Title
55513
    1DOPE     N    1   0.997   0.093  17.958 -0.0106 -0.3394 -0.7246
    1DOPE   HN1    2   1.046   0.094  17.867  0.4460 -0.6324 -0.4862
    1DOPE   HN2    3   1.016   0.173  18.022  1.6617 -0.7831 -0.6344
    1DOPE   HN3    4   1.038   0.011  18.008 -0.9162  0.5028  1.5446
    1DOPE   C12    5   0.854   0.063  17.933  0.1855  0.2613  0.2621
    1DOPE  H12A    6   0.812   0.141  17.866 -3.6985 -1.1618  0.7928
    1DOPE  H12B    7   0.792   0.076  18.024  0.6687  1.0173  0.4927
    1DOPE   C11    8   0.845  -0.079  17.881  0.3112 -0.7523  0.3031
    1DOPE  H11A    9   0.902  -0.097  17.788  0.1557  1.2916 -0.2531
    1DOPE  H11B   10   0.740  -0.096  17.849 -0.4267  0.3938  1.9608
    1DOPE     P   11   0.793  -0.213  18.101  0.5408 -0.0784 -0.1882
    1DOPE   O13   12   0.672  -0.123  18.107 -0.1141 -0.4704  0.2890
    1DOPE   O14   13   0.880  -0.216  18.221  0.5470  0.0702 -0.4114
    1DOPE   O11   14   0.748  -0.355  18.072  0.1097  0.2975  0.2440
    1DOPE   O12   15   0.881  -0.173  17.980  0.2151  0.1052 -0.2416
    1DOPE    C1   16   0.827  -0.444  17.988 -0.3413  0.3609 -0.1056
    1DOPE    HA   17   0.811  -0.551  18.017 -1.7491  1.3818  3.4846
    1DOPE    HB   18   0.937  -0.432  18.000 -0.7034  2.5555  1.4376
    1DOPE    C2   19   0.788  -0.440  17.834  0.0050 -0.7107  0.3338
    1DOPE    HS   20   0.789  -0.335  17.798 -2.9139 -0.5292  0.5846
    1DOPE   O21   21   0.663  -0.498  17.826  0.7242 -0.4246 -0.1079
    1DOPE   C21   22   0.561  -0.411  17.801 -0.1627  0.0120  0.3845
    1DOPE   O22   23   0.567  -0.287  17.789 -0.5769 -0.1061  0.1673
    1DOPE   C22   24   0.433  -0.496  17.791 -0.2862 -0.3036 -0.4384
    1DOPE   H2R   25   0.390  -0.525  17.889 -1.0383 -1.2519 -1.0389
    1DOPE   H2S   26   0.454  -0.588  17.733 -0.1788  0.8283 -2.2663
    1DOPE    C3   27   0.894  -0.519  17.747  0.6481 -0.6007 -0.2006
    1DOPE    HX   28   0.901  -0.623  17.786  0.5509 -0.8757 -0.9090
    1DOPE    HY   29   0.992  -0.472  17.768  0.3551 -0.0561 -0.0339
    1DOPE   O31   30   0.869  -0.511  17.600 -0.4277 -0.0989 -0.2905
    1DOPE   C31   31   0.957  -0.594  17.542  0.4629  0.1980  0.1180
    1DOPE   O32   32   1.044  -0.656  17.597  0.3926 -0.0491 -0.3351
    1DOPE   C32   33   0.919  -0.614  17.400  0.6312 -0.1455 -0.0219
    1DOPE   H2X   34   0.809  -0.600  17.388  0.4541 -1.2186  0.3115
    1DOPE   H2Y   35   0.971  -0.538  17.337 -1.1400  0.4726 -0.8042
    1DOPE   C23   36   0.320  -0.427  17.713 -0.1317  0.1812 -0.6957
    1DOPE   H3R   37   0.294  -0.331  17.762 -0.6224  0.1795 -0.9415
    1DOPE   H3S   38   0.228  -0.488  17.725 -0.2619  0.8966  3.0667
    1DOPE   C24   39   0.355  -0.400  17.566  0.5523  0.5576 -1.0731
    1DOPE   H4R   40   0.398  -0.493  17.523 -0.5901 -1.0054  1.0138
    1DOPE   H4S   41   0.421  -0.313  17.542 -2.6200  3.4110 -0.2039
    1DOPE   C25   42   0.219  -0.373  17.491 -0.5606 -0.5560  0.3964
    1DOPE   H5R   43   0.163  -0.291  17.542 -0.4752  0.5572 -1.2010
    1DOPE   H5S   44   0.154  -0.462  17.482  0.5249 -1.4451  1.0475
    1DOPE   C26   45   0.238  -0.325  17.341 -0.2043 -0.0525 -0.1401
    1DOPE   H6R   46   0.136  -0.319  17.297 -0.5774 -0.2638  0.6727
    1DOPE   H6S   47   0.292  -0.410  17.295 -1.1587 -0.9625  0.3850
    1DOPE   C27   48   0.311  -0.189  17.324  0.6102  0.3995  0.1012
    1DOPE   H7R   49   0.419  -0.200  17.347  0.6053  1.0181  0.4509
    1DOPE   H7S   50   0.282  -0.117  17.404  1.1778 -0.5729  1.2025
    1DOPE   C28   51   0.287  -0.120  17.186  0.1262  0.2364 -0.5339
    1DOPE   H8R   52   0.343  -0.024  17.187  0.5585 -0.0181  0.4772
    1DOPE   H8S   53   0.181  -0.088  17.180  0.3028  0.8257 -0.5275
    1DOPE   C29   54   0.326  -0.199  17.058  0.2876  0.4660  0.3492
    1DOPE   H9R   55   0.421  -0.255  17.068 -0.8371 -1.7776 -0.7906
    1DOPE  C210   56   0.260  -0.199  16.939 -0.5110  0.7041  0.2615
    1DOPE  H10R   57   0.278  -0.266  16.854  0.9759  1.5367 -0.1150
    1DOPE  C211   58   0.137  -0.118  16.914  0.3717 -0.0115  0.6262
    1DOPE  H11R   59   0.122  -0.044  16.995 -0.6918  0.4643  0.0194
    1DOPE  H11S   60   0.045  -0.179  16.910 -0.3518  0.9952 -3.2870
    1DOPE  C212   61   0.141  -0.024  16.792  0.0662  0.3774 -0.2630
    1DOPE  H12R   62   0.227   0.046  16.797  0.4412 -0.1547  1.1996
    1DOPE  H12S   63   0.052   0.041  16.802 -0.9777 -0.9008 -1.0230
    1DOPE  C213   64   0.135  -0.103  16.662 -0.2672 -0.2529  0.9795
    1DOPE  H13R   65   0.062  -0.185  16.668 -0.4603 -0.2164 -0.4151
    1DOPE  H13S   66   0.232  -0.155  16.645 -0.9746 -0.9284 -1.2920
    1DOPE  C214   67   0.106  -0.014  16.540  0.4781  0.0892  0.0441
    1DOPE  H14R   68   0.189   0.056  16.520  0.5201  0.4066  1.2491
    1DOPE  H14S   69   0.009   0.039  16.550  0.6237  0.1410  1.4085
    1DOPE  C215   70   0.099  -0.102  16.410  0.1623  0.5464  0.2727
    1DOPE  H15R   71   0.014  -0.173  16.423 -0.3320  0.8821 -1.0279
    1DOPE  H15S   72   0.194  -0.153  16.382 -0.4968  0.0377 -1.1033
    1DOPE  C216   73   0.055  -0.030  16.282 -0.7088 -0.5890  0.0565
    1DOPE  H16R   74   0.113   0.064  16.276  1.3137 -1.7979 -0.1073
    1DOPE  H16S   75  -0.051  -0.001  16.297 -0.2603 -0.0214  2.5953
    1DOPE  C217   76   0.077  -0.096  16.155  0.2410  0.6217  0.7482
    1DOPE  H17R   77   0.047  -0.202  16.173 -2.1439  1.4014  1.7528
    1DOPE  H17S   78   0.187  -0.095  16.143  0.1112  0.9451 -0.5755
    1DOPE  C218   79   0.022  -0.031  16.027  0.1261 -0.1637  0.2061
    1DOPE  H18R   80   0.056   0.074  16.010  0.6690 -0.6445 -1.9971
    1DOPE  H18S   81  -0.089  -0.034  16.017  0.0408  1.0453  0.6103
    1DOPE  H18T   82   0.068  -0.075  15.936  1.7999  2.5109 -0.3733
    1DOPE   C33   83   0.950  -0.757  17.349 -0.0967  0.2155  0.6142
    1DOPE   H3X   84   0.892  -0.837  17.400  0.9932 -0.9685  0.0556
    1DOPE   H3Y   85   1.057  -0.778  17.365 -0.7473 -2.7479  1.6866
    1DOPE   C34   86   0.934  -0.759  17.194  0.2174  0.1327 -0.0542
    1DOPE   H4X   87   0.824  -0.764  17.176 -0.0717  0.4433  1.4894
    1DOPE   H4Y   88   0.979  -0.668  17.152  2.1070 -0.6883  0.1017
    1DOPE   C35   89   0.998  -0.883  17.126  0.5480 -0.3383 -0.0199
    1DOPE   H5X   90   0.940  -0.970  17.164 -2.2953  1.0127 -0.9959
    1DOPE   H5Y   91   1.108  -0.886  17.140  0.4030 -0.9442  1.1406
    1DOPE   C36   92   0.959  -0.865  16.974 -0.6360 -0.6091 -0.1890
    1DOPE   H6X   93   1.018  -0.777  16.942 -1.8047  1.6389  3.3237
    1DOPE   H6Y   94   0.851  -0.851  16.956 -0.2537  2.0260 -0.7476
    1DOPE   C37   95   1.002  -0.988  16.893  0.7881  0.0652 -0.8378
    1DOPE   H7X   96   1.103  -1.011  16.933 -0.0524 -1.7601  0.3669
    1DOPE   H7Y   97   0.936  -1.064  16.941 -1.1169  2.3377  0.3539
    1DOPE   C38   98   0.972  -0.988  16.744  0.3058 -0.8147  0.0693
    1DOPE   H8X   99   0.866  -0.967  16.721  0.0802  0.9184  2.2988
    1DOPE   H8Y  100   0.999  -1.091  16.715  0.8921 -0.6202 -0.0934
    1DOPE   C39  101   1.052  -0.879  16.678  0.0392  0.1180  0.1772
    1DOPE   H9X  102   1.038  -0.780  16.723  4.1949  0.6601  0.6836
    1DOPE  C310  103   1.121  -0.895  16.564 -0.3192  0.4596 -0.1865
    1DOPE  H10X  104   1.186  -0.817  16.521  2.0327 -1.5561 -0.5067
    1DOPE  C311  105   1.124  -1.029  16.492 -0.2814  0.9735 -0.1206
    1DOPE  H11X  106   1.222  -1.079  16.507 -0.5218  0.3710 -0.5127
    1DOPE  H11Y  107   1.052  -1.106  16.527  1.0945 -0.3789 -0.1236
    1DOPE  C312  108   1.116  -1.036  16.337 -0.6072  0.6138 -0.9002
    1DOPE  H12X  109   1.148  -1.134  16.297  0.2502  0.4741  0.0955
    1DOPE  H12Y  110   1.182  -0.952  16.306 -0.9421  0.3747 -2.3326
    1DOPE  C313  111   0.976  -0.995  16.283  0.1842  0.5276  0.2376
    1DOPE  H13X  112   0.911  -1.080  16.311  0.8520 -0.0865 -0.0168
    1DOPE  H13Y  113   0.936  -0.906  16.335  1.0352  0.7430  0.5500
    1DOPE  C314  114   0.979  -0.978  16.122  0.0956  0.0458  0.4496
    1DOPE  H14X  115   1.034  -1.063  16.076  0.7869 -0.3747  1.9972
    1DOPE  H14Y  116   1.030  -0.881  16.103 -0.6258  0.4900  0.7249
    1DOPE  C315  117   0.841  -0.972  16.053 -0.0702 -0.2273 -0.0488
    1DOPE  H15X  118   0.797  -0.880  16.096  0.2126 -0.3250  0.4593
    1DOPE  H15Y  119   0.797  -1.074  16.065 -2.5774  0.8282  0.3347
    1DOPE  C316  120   0.858  -0.952  15.907 -0.4787  0.3463  0.0258
    1DOPE  H16X  121   0.911  -1.035  15.855 -2.5419  1.1719 -3.7628
    1DOPE  H16Y  122   0.930  -0.868  15.897 -0.3590  0.6467  2.6365
    1DOPE  C317  123   0.728  -0.939  15.835 -0.1739 -0.9151  0.2397
    1DOPE  H17X  124   0.662  -1.026  15.856 -0.7091 -0.1663  1.7925
    1DOPE  H17Y  125   0.666  -0.855  15.872 -0.2531  0.4055 -2.6273
    1DOPE  C318  126   0.746  -0.921  15.686  0.7775  0.3319  0.2369
    1DOPE  H18X  127   0.643  -0.908  15.647 -0.6597  0.3553  3.6237
    1DOPE  H18Y  128   0.801  -0.834  15.646 -1.4087  0.9352 -1.6578
    1DOPE  H18Z  129   0.795  -1.006  15.634 -0.4057  0.6275 -1.4157
    2DOPE     N  130   6.120   5.694  17.934  0.0713 -0.3388 -0.0621
    2DOPE   HN1  131   6.016   5.695  17.930  0.0495 -1.1278  0.1744
    2DOPE   HN2  132   6.158   5.603  17.967  0.5227 -1.2581 -2.8989
    2DOPE   HN3  133   6.153   5.772  17.995 -0.0150  0.2400 -0.7457
    2DOPE   C12  134   6.159   5.723  17.795  0.3114  0.4702  0.1719
    2DOPE  H12A  135   6.131   5.828  17.772  1.0462  0.2930 -1.6717
    2DOPE  H12B  136   6.098   5.655  17.732 -0.8706 -0.3951  2.1737
    2DOPE   C11  137   6.307   5.695  17.770  0.1446  0.3773 -0.0425
    2DOPE  H11A  138   6.335   5.711  17.664  0.0734  0.5405 -0.0363
    2DOPE  H11B  139   6.334   5.589  17.788  3.4970  0.8520 -1.5365
    2DOPE     P  140   6.542   5.759  17.866  0.5461 -0.3954  0.4666
    2DOPE   O13  141   6.551   5.641  17.950 -0.0246  0.1946  0.0767
    2DOPE   O14  142   6.603   5.883  17.932 -0.8918 -0.1829  0.7331
    2DOPE   O11  143   6.611   5.725  17.729 -1.0088 -0.0619 -0.3175
    2DOPE   O12  144   6.385   5.790  17.841  0.2198 -0.4712 -0.5980
    2DOPE    C1  145   6.746   5.683  17.722  0.5576  0.1816  0.2280
    2DOPE    HA  146   6.767   5.608  17.642 -0.0334  0.2462  0.0084
    2DOPE    HB  147   6.782   5.644  17.819  1.3429  1.3204  0.4178
    2DOPE    C2  148   6.838   5.798  17.673 -0.1367  0.9237 -0.9787
    2DOPE    HS  149   6.832   5.886  17.740  1.4771 -0.8483  1.6509
    2DOPE   O21  150   6.823   5.827  17.533  0.1350  0.5999  0.0404
    2DOPE   C21  151   6.734   5.926  17.496 -0.6038  0.5027 -0.1081
    2DOPE   O22  152   6.672   5.997  17.572 -0.0500  0.6972 -0.0439
    2DOPE   C22  153   6.727   5.940  17.339 -0.1897 -0.0307  0.2812
    2DOPE   H2R  154   6.694   5.843  17.295 -2.6106  0.9066 -0.0944
    2DOPE   H2S  155   6.831   5.959  17.303  0.0953 -0.4686  0.8445
    2DOPE    C3  156   6.985   5.738  17.689 -0.6395  1.3884 -0.0941
    2DOPE    HX  157   6.991   5.641  17.636  1.3007  0.4604  1.6917
    2DOPE    HY  158   6.995   5.711  17.796 -0.8980  0.4352 -0.3002
    2DOPE   O31  159   7.092   5.825  17.653  0.2145 -0.5734  0.4373
    2DOPE   C31  160   7.134   5.806  17.528 -0.2943 -0.2513 -0.1028
    2DOPE   O32  161   7.081   5.741  17.439  0.0421  0.2879 -0.5106
    2DOPE   C32  162   7.256   5.897  17.499 -0.1826  0.5928 -0.1988
    2DOPE   H2X  163   7.293   5.942  17.594 -2.4802  0.2846  0.9003
    2DOPE   H2Y  164   7.336   5.834  17.453 -0.6689 -1.5586  1.7402
    2DOPE   C23  165   6.638   6.054  17.308 -0.2597 -0.1071  0.0923
    2DOPE   H3R  166   6.678   6.150  17.349 -1.5926  0.7594 -0.5601
    2DOPE   H3S  167   6.538   6.052  17.356  0.1986  1.1772  1.1593
    2DOPE   C24  168   6.622   6.064  17.150  0.3171 -0.3201 -0.4983
    2DOPE   H4R  169   6.541   6.137  17.131 -0.6674 -0.4394  2.6935
    2DOPE   H4S  170   6.580   5.965  17.120 -1.9090  0.6331 -0.7238
    2DOPE   C25  171   6.743   6.107  17.066 -0.7146 -0.0569  0.4241
    2DOPE   H5R  172   6.827   6.034  17.060  2.3304  3.1692  0.5840
    2DOPE   H5S  173   6.783   6.194  17.122 -0.4745 -0.9458  1.7061
    2DOPE   C26  174   6.710   6.169  16.924  0.6295  0.4993  0.8767
    2DOPE   H6R  175   6.790   6.235  16.884  0.9596 -0.8394 -0.7955
    2DOPE   H6S  176   6.610   6.218  16.926 -1.1261 -2.4602 -2.2274
    2DOPE   C27  177   6.692   6.040  16.830 -0.3413  0.7099 -0.8764
    2DOPE   H7R  178   6.600   5.995  16.874  0.2411 -1.4922 -1.7900
    2DOPE   H7S  179   6.780   5.977  16.855 -1.7555 -0.9948  0.0989
    2DOPE   C28  180   6.689   6.067  16.683 -0.3068 -0.0572  0.7162
    2DOPE   H8R  181   6.626   6.156  16.659 -0.5575 -0.1142  1.1557
    2DOPE   H8S  182   6.630   5.993  16.625 -1.1790  1.6374 -0.6720
    2DOPE   C29  183   6.831   6.097  16.630 -0.2454  0.3777 -0.6060
    2DOPE   H9R  184   6.886   6.166  16.696 -3.1805  0.3244  2.1107
    2DOPE  C210  185   6.888   6.056  16.516  0.1166 -0.6797  0.0470
    2DOPE  H10R  186   6.994   6.076  16.495  0.3086  1.4003  2.5107
    2DOPE  C211  187   6.812   5.988  16.399 -0.0004  0.1894 -0.0633
    2DOPE  H11R  188   6.709   5.954  16.424  0.8223 -1.8319  0.7486
    2DOPE  H11S  189   6.862   5.894  16.369 -2.5303 -0.7538 -1.6971
    2DOPE  C212  190   6.806   6.090  16.289  0.4298 -0.1117 -0.1318
    2DOPE  H12R  191   6.907   6.127  16.260 -0.4644  0.1947 -3.1415
    2DOPE  H12S  192   6.749   6.178  16.324  0.6753  0.2446 -0.6205
    2DOPE  C213  193   6.742   6.053  16.155 -0.5467  0.3652  0.3869
    2DOPE  H13R  194   6.659   5.980  16.167 -0.5386  0.5628  1.7169
    2DOPE  H13S  195   6.820   5.998  16.096  0.0220  1.2852  0.2659
    2DOPE  C214  196   6.710   6.182  16.076 -1.0044 -0.4886 -0.5290
    2DOPE  H14R  197   6.799   6.249  16.086  0.1874 -1.6931 -2.4396
    2DOPE  H14S  198   6.614   6.226  16.110 -1.0525 -0.5752 -0.5579
    2DOPE  C215  199   6.691   6.157  15.928  0.2209 -0.3489  0.4371
    2DOPE  H15R  200   6.602   6.092  15.917 -0.2093  0.3189 -0.0915
    2DOPE  H15S  201   6.777   6.121  15.867 -1.0231 -0.4472 -1.3472
    2DOPE  C216  202   6.645   6.277  15.848  0.8675 -0.6808 -0.0910
    2DOPE  H16R  203   6.714   6.364  15.858 -0.4417  0.3299  0.3870
    2DOPE  H16S  204   6.550   6.311  15.895  0.3394  0.5955 -1.9669
    2DOPE  C217  205   6.607   6.240  15.704  0.3257 -0.0644  1.0104
    2DOPE  H17R  206   6.560   6.329  15.658  1.8410 -0.0610 -0.6363
    2DOPE  H17S  207   6.527   6.162  15.707 -1.0319  1.2714  0.2611
    2DOPE  C218  208   6.725   6.192  15.611  0.2641  0.5419 -0.2630
    2DOPE  H18R  209   6.781   6.100  15.637 -0.8253  0.2154  1.0856
    2DOPE  H18S  210   6.803   6.269  15.595 -0.0610  1.2273  1.2739
    2DOPE  H18T  211   6.687   6.165  15.510  0.2106 -1.4785  0.2595
    2DOPE   C33  212   7.219   6.007  17.388 -0.2520 -0.1057 -0.2840
    2DOPE   H3X  213   7.282   6.098  17.394 -1.1280  0.8529 -3.5186
    2DOPE   H3Y  214   7.113   6.037  17.408 -0.6026 -0.9808 -0.7765
    2DOPE   C34  215   7.213   5.950  17.250  0.3251  0.3590 -0.4906
    2DOPE   H4X  216   7.305   5.895  17.222  2.6749  3.3599  0.7658
    2DOPE   H4Y  217   7.129   5.878  17.238 -1.4066  2.5480 -2.5452
    2DOPE   C35  218   7.207   6.065  17.149  0.4050  0.1843 -0.4165
    2DOPE   H5X  219   7.307   6.114  17.152 -0.0484  1.1120  0.7858
    2DOPE   H5Y  220   7.132   6.141  17.181  1.0370  0.8854 -0.5704
    2DOPE   C36  221   7.175   6.032  17.006 -0.4554 -0.0651 -0.2639
    2DOPE   H6X  222   7.187   6.128  16.952 -0.7920  0.6634  0.9354
    2DOPE   H6Y  223   7.068   6.004  17.008 -1.5452  3.5670 -1.1090
    2DOPE   C37  224   7.274   5.932  16.937  0.5945 -0.3895 -0.2295
    2DOPE   H7X  225   7.379   5.966  16.950  0.0353  0.9227  1.0763
    2DOPE   H7Y  226   7.263   5.832  16.985 -0.1455 -1.0761 -1.7844
    2DOPE   C38  227   7.237   5.926  16.782 -0.3522  0.3200 -0.1560
    2DOPE   H8X  228   7.132   5.959  16.769  0.8427  3.4170 -3.5940
    2DOPE   H8Y  229   7.240   5.818  16.754  1.9392 -0.0822  1.3258
    2DOPE   C39  230   7.321   6.017  16.702  0.2668  0.0995  0.3848
    2DOPE   H9X  231   7.382   6.093  16.754  0.5315  0.4353 -0.3984
    2DOPE  C310  232   7.349   6.002  16.570  0.7198  0.2194 -0.1743
    2DOPE  H10X  233   7.411   6.078  16.520  0.9044  1.3673  1.7035
    2DOPE  C311  234   7.286   5.883  16.496 -0.1170 -0.1344 -0.4164
    2DOPE  H11X  235   7.352   5.796  16.477 -0.9779 -0.6675 -1.0168
    2DOPE  H11Y  236   7.196   5.836  16.541 -0.7033  1.5013  0.2224
    2DOPE  C312  237   7.243   5.937  16.365  0.3675 -0.2971  0.3177
    2DOPE  H12X  238   7.318   5.998  16.310 -2.9246 -0.1727 -4.6809
    2DOPE  H12Y  239   7.176   6.023  16.388 -1.1767 -1.3596 -0.1074
    2DOPE  C313  240   7.162   5.843  16.278  0.1788  0.2219 -0.1881
    2DOPE  H13X  241   7.204   5.741  16.268  0.4966  0.4245 -1.0004
    2DOPE  H13Y  242   7.066   5.825  16.331  0.5413 -3.9798 -0.6054
    2DOPE  C314  243   7.123   5.907  16.137 -0.4094 -0.2834 -0.2886
    2DOPE  H14X  244   7.218   5.922  16.081 -0.7261  0.1043 -0.7405
    2DOPE  H14Y  245   7.067   6.002  16.154  1.8573  1.0610  0.0218
    2DOPE  C315  246   7.034   5.819  16.055 -0.0190 -0.0108  0.1419
    2DOPE  H15X  247   6.937   5.809  16.109  0.5277  1.2190  1.4220
    2DOPE  H15Y  248   7.085   5.723  16.035  0.0151 -0.1734  0.9457
    2DOPE  C316  249   7.004   5.871  15.912 -0.9894 -0.5016  0.0954
    2DOPE  H16X  250   7.106   5.872  15.870 -2.1656 -0.1379 -3.0536
    2DOPE  H16Y  251   6.965   5.975  15.919 -1.0132 -0.4677 -0.5379
    2DOPE  C317  252   6.909   5.785  15.825 -0.3440 -0.2611  0.4289
    2DOPE  H17X  253   6.938   5.684  15.861 -1.4828 -0.3131  1.2439
    2DOPE  H17Y  254   6.804   5.793  15.858 -1.0690 -3.3025 -0.7954
    2DOPE  C318  255   6.925   5.807  15.677  0.7097  0.0641 -0.1616
    2DOPE  H18X  256   6.850   5.746  15.622  0.4216  1.1575 -1.0211
    2DOPE  H18Y  257   6.912   5.914  15.650  1.6014  0.6466  1.5606
    2DOPE  H18Z  258   7.028   5.777  15.648  0.3620 -1.8009  0.3523
    3DOPE     N  259   6.180   0.610  17.980 -0.1577 -0.1185  0.3202
    3DOPE   HN1  260   6.162   0.663  18.068  1.8002 -0.6344  1.0751
    3DOPE   HN2  261   6.102   0.553  17.941  0.7309 -1.4520  0.4358
    3DOPE   HN3  262   6.253   0.538  17.996  0.8982  1.0333  0.8062
    3DOPE   C12  263   6.252   0.697  17.885  0.3236  0.3674  0.0332
    3DOPE  H12A  264   6.173   0.769  17.853 -1.3316 -0.7777  1.4143
    3DOPE  H12B  265   6.289   0.633  17.802 -0.8585  0.9706 -1.0028
    3DOPE   C11  266   6.354   0.782  17.957  0.4488  0.5968 -0.4212
    3DOPE  H11A  267   6.292   0.840  18.029 -1.3828  0.0964 -1.5236
    3DOPE  H11B  268   6.395   0.856  17.886  0.3141  1.5202  0.4470
    3DOPE     P  269   6.564   0.641  17.938  0.1395 -0.1203 -0.5828
    3DOPE   O13  270   6.577   0.489  17.938  1.4582 -0.7475  0.3043
    3DOPE   O14  271   6.687   0.693  18.001 -0.4551 -0.5632  0.2011
    3DOPE   O11  272   6.557   0.696  17.793  0.4122  0.0177 -0.2934
    3DOPE   O12  273   6.445   0.694  18.019 -0.1533  0.0800  0.1843
    3DOPE    C1  274   6.624   0.639  17.678  0.4283 -0.5202 -0.4312
    3DOPE    HA  275   6.695   0.559  17.708  2.6979  1.2128 -0.9386
    3DOPE    HB  276   6.689   0.722  17.643 -0.4273  0.6640  0.6883
    3DOPE    C2  277   6.524   0.577  17.577 -0.8181 -0.1832 -0.3799
    3DOPE    HS  278   6.441   0.651  17.575  0.2099  0.9746 -1.1751
    3DOPE   O21  279   6.493   0.441  17.625  0.2625  0.4836 -0.1428
    3DOPE   C21  280   6.377   0.397  17.582  0.1006 -0.9045  0.2147
    3DOPE   O22  281   6.295   0.469  17.522  0.2310  0.3211 -0.3273
    3DOPE   C22  282   6.367   0.244  17.600 -0.4897 -0.4383  0.2511
    3DOPE   H2R  283   6.376   0.229  17.710  0.6747  0.9332  0.3579
    3DOPE   H2S  284   6.447   0.194  17.541 -1.5583 -2.0041  0.0614
    3DOPE    C3  285   6.581   0.568  17.435 -0.6458 -0.4721 -0.1309
    3DOPE    HX  286   6.668   0.500  17.422 -0.2583 -0.0546  0.2334
    3DOPE    HY  287   6.633   0.666  17.423 -2.3153  0.7647  1.9098
    3DOPE   O31  288   6.485   0.543  17.326 -0.2472  0.8052  0.4696
    3DOPE   C31  289   6.409   0.645  17.301  0.3971 -0.0316  0.4916
    3DOPE   O32  290   6.424   0.756  17.352 -0.7884 -0.2609  0.0725
    3DOPE   C32  291   6.310   0.618  17.190  0.2781  0.6300  0.1876
    3DOPE   H2X  292   6.302   0.510  17.168  4.4517  0.0511  0.6906
    3DOPE   H2Y  293   6.211   0.660  17.221  0.6988  1.9377 -0.1637
    3DOPE   C23  294   6.223   0.199  17.558 -0.2306 -0.0890  0.5754
    3DOPE   H3R  295   6.140   0.267  17.586  0.6431  0.3279  2.2229
    3DOPE   H3S  296   6.191   0.107  17.611 -0.1846 -0.7419 -0.4959
    3DOPE   C24  297   6.221   0.180  17.405  0.0020 -0.1472 -0.1085
    3DOPE   H4R  298   6.306   0.116  17.374  0.5141  0.6353 -0.3388
    3DOPE   H4S  299   6.241   0.280  17.361  1.0224  0.2044  1.1106
    3DOPE   C25  300   6.094   0.130  17.340  0.2897 -0.1433  0.3907
    3DOPE   H5R  301   6.100   0.144  17.230  0.5905  0.1726  0.4451
    3DOPE   H5S  302   6.023   0.206  17.380  0.4957  0.8027 -0.9739
    3DOPE   C26  303   6.049  -0.007  17.387 -0.2230 -0.0725  0.4442
    3DOPE   H6R  304   6.021  -0.015  17.494 -0.7251 -1.3239  0.2426
    3DOPE   H6S  305   6.128  -0.084  17.369  0.3547  1.1337 -2.8872
    3DOPE   C27  306   5.913  -0.050  17.314  0.3557  0.3762  0.1129
    3DOPE   H7R  307   5.841   0.034  17.325 -0.7076 -0.4935 -0.0075
    3DOPE   H7S  308   5.885  -0.141  17.371  0.0980 -0.4250 -1.2599
    3DOPE   C28  309   5.936  -0.080  17.165 -0.0117 -0.1235 -0.5802
    3DOPE   H8R  310   5.868  -0.165  17.144  2.2386 -2.7135  1.6932
    3DOPE   H8S  311   6.046  -0.099  17.160  1.0421  4.0283  1.7901
    3DOPE   C29  312   5.910   0.035  17.075  0.0545  0.4692  0.0176
    3DOPE   H9R  313   5.872   0.126  17.124 -0.1952  0.3870 -0.0241
    3DOPE  C210  314   5.914   0.019  16.942 -0.3629 -0.3177 -0.7766
    3DOPE  H10R  315   5.890   0.104  16.876  0.2753 -0.6270 -1.4180
    3DOPE  C211  316   5.949  -0.108  16.869 -0.1459 -0.5717  0.0235
    3DOPE  H11R  317   5.859  -0.160  16.831 -0.4050  0.1501 -0.3758
    3DOPE  H11S  318   5.978  -0.191  16.936  0.4919 -0.4910 -0.1479
    3DOPE  C212  319   6.053  -0.091  16.754  0.3696 -0.7871  0.3370
    3DOPE  H12R  320   6.073  -0.186  16.701  1.2652 -0.3737 -0.0906
    3DOPE  H12S  321   6.149  -0.060  16.802  0.3815  1.2065 -0.8764
    3DOPE  C213  322   6.021   0.016  16.647 -0.4166 -0.3198 -0.1235
    3DOPE  H13R  323   6.101   0.012  16.570  1.0678 -0.5477  1.3791
    3DOPE  H13S  324   6.013   0.118  16.691  1.5945  1.1746 -2.9172
    3DOPE  C214  325   5.888   0.014  16.573 -0.3412 -0.2424 -0.2009
    3DOPE  H14R  326   5.811   0.013  16.653 -1.3548  1.2850 -1.1069
    3DOPE  H14S  327   5.881  -0.079  16.514  0.8100 -2.0560  2.3617
    3DOPE  C215  328   5.866   0.133  16.482  0.3958 -0.4667  0.0076
    3DOPE  H15R  329   5.933   0.215  16.516 -0.3658 -0.5592  1.8621
    3DOPE  H15S  330   5.759   0.162  16.488  0.1131 -0.9230 -2.0384
    3DOPE  C216  331   5.887   0.095  16.332 -0.1878 -0.6377 -0.5099
    3DOPE  H16R  332   5.835   0.000  16.308 -2.1823  0.3068 -0.1078
    3DOPE  H16S  333   5.993   0.067  16.315  0.0115  0.8381 -1.9480
    3DOPE  C217  334   5.847   0.191  16.225 -0.6860 -0.0548 -0.2272
    3DOPE  H17R  335   5.899   0.289  16.230  1.6857 -1.2785  0.5015
    3DOPE  H17S  336   5.741   0.221  16.235 -0.3243  0.8201  1.1063
    3DOPE  C218  337   5.874   0.132  16.088 -0.4131 -0.1924 -0.3041
    3DOPE  H18R  338   5.982   0.128  16.061 -0.9382  0.8562 -2.8466
    3DOPE  H18S  339   5.830   0.197  16.009 -0.9818 -2.3019 -1.8214
    3DOPE  H18T  340   5.827   0.032  16.094  0.8316 -0.7665  0.2395
    3DOPE   C33  341   6.342   0.692  17.054  0.1080  0.3274  0.2805
    3DOPE   H3X  342   6.360   0.799  17.076  1.7805  0.4260 -1.3217
    3DOPE   H3Y  343   6.248   0.691  16.996 -0.2339  0.8182  0.8167
    3DOPE   C34  344   6.466   0.643  16.986 -0.0228  0.3939  1.0539
    3DOPE   H4X  345   6.545   0.643  17.064  1.9287  3.0724 -0.7137
    3DOPE   H4Y  346   6.457   0.545  16.934 -2.8557  0.1717  1.8176
    3DOPE   C35  347   6.517   0.752  16.881 -0.3025 -0.1065  0.2984
    3DOPE   H5X  348   6.621   0.728  16.848  0.6142  1.3083  1.9814
    3DOPE   H5Y  349   6.524   0.843  16.943 -2.6983  0.0411  0.4229
    3DOPE   C36  350   6.425   0.762  16.756  0.3689 -0.3022  0.0164
    3DOPE   H6X  351   6.441   0.858  16.702  1.7924 -1.8079 -2.4595
    3DOPE   H6Y  352   6.321   0.749  16.793  0.4043  0.8837  0.5853
    3DOPE   C37  353   6.452   0.650  16.652  0.0533 -0.6933 -0.2050
    3DOPE   H7X  354   6.560   0.625  16.643 -0.0548 -1.5841  0.6981
    3DOPE   H7Y  355   6.409   0.561  16.704  0.5477 -1.1261 -0.5325
    3DOPE   C38  356   6.387   0.679  16.515  0.9507 -0.1526  0.6281
    3DOPE   H8X  357   6.279   0.704  16.520  0.8923 -0.2465 -0.1156
    3DOPE   H8Y  358   6.403   0.582  16.463 -0.2016  0.7004 -1.4373
    3DOPE   C39  359   6.442   0.804  16.441  0.2624  0.5025  0.2228
    3DOPE   H9X  360   6.476   0.883  16.510 -0.2151 -1.3369  2.7132
    3DOPE  C310  361   6.487   0.822  16.314  0.5953 -0.5217 -0.0411
    3DOPE  H10X  362   6.532   0.915  16.276  0.6069 -0.6383 -0.3107
    3DOPE  C311  363   6.466   0.715  16.216 -0.5792  0.4891  0.2373
    3DOPE  H11X  364   6.563   0.661  16.208 -0.6404  0.0301  2.1438
    3DOPE  H11Y  365   6.396   0.639  16.257  0.4497  0.4754  2.0769
    3DOPE  C312  366   6.436   0.773  16.074  0.3175 -0.1821 -0.0354
    3DOPE  H12X  367   6.525   0.827  16.034  1.1370 -1.2670  0.2576
    3DOPE  H12Y  368   6.350   0.843  16.082  0.2195 -0.4923  2.2522
    3DOPE  C313  369   6.414   0.672  15.972  0.0663 -0.0049 -0.2804
    3DOPE  H13X  370   6.479   0.583  15.990  2.7624  2.3780  3.0349
    3DOPE  H13Y  371   6.308   0.638  15.982 -0.1379  0.0484 -1.9885
    3DOPE  C314  372   6.437   0.726  15.833 -1.1320  0.5825  0.8919
    3DOPE  H14X  373   6.547   0.742  15.832 -1.0821  0.2427  0.0029
    3DOPE  H14Y  374   6.377   0.817  15.813 -0.1586  0.8871 -0.8808
    3DOPE  C315  375   6.424   0.624  15.713  0.3087  0.4841 -0.3946
    3DOPE  H15X  376   6.325   0.574  15.712  0.0539  0.9839 -1.7747
    3DOPE  H15Y  377   6.507   0.550  15.716  1.1666  1.3830  3.1478
    3DOPE  C316  378   6.464   0.685  15.579  0.0211 -0.3397 -0.4466
    3DOPE  H16X  379   6.555   0.746  15.598 -0.7260  0.1637  1.8451
    3DOPE  H16Y  380   6.383   0.756  15.554 -1.5334 -0.9811  2.3860
    3DOPE  C317  381   6.487   0.580  15.465  0.0636  0.1146  0.2440
    3DOPE  H17X  382   6.537   0.631  15.380  3.0036 -2.5998  0.1824
    3DOPE  H17Y  383   6.572   0.515  15.494  1.2809  1.4753 -0.1577
    3DOPE  C318  384   6.359   0.504  15.422 -0.1658 -0.7561 -0.3045
    3DOPE  H18X  385   6.318   0.452  15.511  0.1144 -2.1994 -0.9923
    3DOPE  H18Y  386   6.286   0.580  15.386  2.5771  1.2354 -2.0537
    3DOPE  H18Z  387   6.388   0.434  15.340  3.3773 -1.3285  1.2472
    4DOPE     N  388   5.683   4.205  18.037 -0.4509 -0.1706  0.2201
    4DOPE   HN1  389   5.622   4.185  18.119 -2.6698  2.7179 -0.5546
    4DOPE   HN2  390   5.768   4.146  18.048 -0.7583 -0.5723  0.4746
    4DOPE   HN3  391   5.695   4.308  18.028  0.0841 -0.3526 -1.3786
    4DOPE   C12  392   5.602   4.175  17.917 -0.1113  0.4824  0.3678
    4DOPE  H12A  393   5.633   4.243  17.835  3.1375 -0.8784  0.3362
    4DOPE  H12B  394   5.495   4.200  17.937 -0.8201 -0.1368 -2.2717
    4DOPE   C11  395   5.600   4.028  17.872 -0.1188 -0.5138 -0.5879
    4DOPE  H11A  396   5.541   4.010  17.780 -0.9672 -0.3155 -0.0905
    4DOPE  H11B  397   5.550   3.959  17.944  2.1675 -1.2993  0.3654
    4DOPE     P  398   5.843   4.023  17.754 -0.2353 -0.1224  0.1341
    4DOPE   O13  399   5.934   3.909  17.730 -0.5650  0.4142 -0.0299
    4DOPE   O14  400   5.900   4.147  17.825 -0.6213 -0.4469 -0.1925
    4DOPE   O11  401   5.765   4.060  17.619 -0.0829 -0.1181 -0.4171
    4DOPE   O12  402   5.731   3.982  17.854 -0.3742  0.3392  0.1440
    4DOPE    C1  403   5.689   3.958  17.550 -0.3039  0.0247 -0.8644
    4DOPE    HA  404   5.593   3.934  17.601  0.7740  0.2018  1.3402
    4DOPE    HB  405   5.740   3.859  17.549  0.5530  0.4504 -0.0067
    4DOPE    C2  406   5.660   3.992  17.398  0.1829 -0.5649  0.8124
    4DOPE    HS  407   5.647   3.899  17.340 -3.0777  0.1726  0.1895
    4DOPE   O21  408   5.764   4.069  17.337  0.0790  0.9342 -0.5775
    4DOPE   C21  409   5.891   4.018  17.329  0.0881  0.4387  0.1135
    4DOPE   O22  410   5.920   3.901  17.351  0.7265  0.6519  0.1764
    4DOPE   C22  411   5.984   4.125  17.267 -0.1248  0.3454 -0.1246
    4DOPE   H2R  412   6.013   4.190  17.353  1.8230 -1.9828  1.0935
    4DOPE   H2S  413   5.932   4.189  17.193 -0.2052  0.7504  0.2779
    4DOPE    C3  414   5.531   4.067  17.379  0.6563 -0.9464 -0.3786
    4DOPE    HX  415   5.539   4.166  17.427 -0.2452  0.2322 -2.4983
    4DOPE    HY  416   5.449   4.014  17.432 -1.4316  1.6663 -0.7603
    4DOPE   O31  417   5.479   4.073  17.243 -0.1100  0.0201  0.3188
    4DOPE   C31  418   5.439   3.967  17.170 -0.6208  0.2780 -0.3817
    4DOPE   O32  419   5.446   3.852  17.209 -0.5345  0.2104  0.2367
    4DOPE   C32  420   5.394   4.017  17.033  0.2122 -0.4252  0.3655
    4DOPE   H2X  421   5.286   4.039  17.043 -0.9281 -3.6665 -2.7964
    4DOPE   H2Y  422   5.459   4.106  17.016  1.7549 -1.3269  1.2171
    4DOPE   C23  423   6.108   4.068  17.209 -0.4400  0.2369  0.5086
    4DOPE   H3R  424   6.169   4.002  17.274  0.0878  0.8493  0.6390
    4DOPE   H3S  425   6.185   4.143  17.180  2.8118 -3.3154 -0.9201
    4DOPE   C24  426   6.085   3.992  17.074  0.1944  0.3284  0.3639
    4DOPE   H4R  427   6.022   3.902  17.092  2.7094 -1.7215 -0.3267
    4DOPE   H4S  428   6.179   3.940  17.046  0.5700 -0.0147  2.1201
    4DOPE   C25  429   6.027   4.083  16.967  0.0861  0.3993 -0.8475
    4DOPE   H5R  430   6.079   4.180  16.959 -0.2255  0.6808  0.3164
    4DOPE   H5S  431   5.920   4.104  16.989 -1.0351 -3.2169 -1.9930
    4DOPE   C26  432   6.034   4.013  16.831  0.0229  0.1913  0.6036
    4DOPE   H6R  433   5.980   3.916  16.837  1.9979 -1.3434 -2.9732
    4DOPE   H6S  434   6.136   3.976  16.806 -1.0249 -1.7612 -1.0088
    4DOPE   C27  435   5.974   4.100  16.712  0.2697  0.2612  0.1855
    4DOPE   H7R  436   6.037   4.182  16.671 -0.2155 -0.3398 -1.8698
    4DOPE   H7S  437   5.869   4.126  16.734  0.1144 -1.3436  1.5551
    4DOPE   C28  438   5.950   4.002  16.589 -0.5198  0.7894  0.5723
    4DOPE   H8R  439   5.867   4.035  16.523 -0.3413  0.5666  0.2338
    4DOPE   H8S  440   5.917   3.907  16.636  0.6798 -0.5064 -1.0597
    4DOPE   C29  441   6.081   3.974  16.509 -0.0415 -0.8750 -0.2120
    4DOPE   H9R  442   6.157   3.938  16.579  0.6543 -0.3630 -0.6921
    4DOPE  C210  443   6.123   4.000  16.379  0.1747 -0.0312 -0.0485
    4DOPE  H10R  444   6.219   3.969  16.338 -0.5017 -0.4461 -1.3516
    4DOPE  C211  445   6.051   4.075  16.267 -0.0115  0.5013 -0.4184
    4DOPE  H11R  446   6.107   4.164  16.232  2.8981  0.1418  2.7207
    4DOPE  H11S  447   5.949   4.106  16.300 -0.1524 -1.4061  1.1142
    4DOPE  C212  448   6.029   3.978  16.146 -0.1578 -0.3783 -0.3886
    4DOPE  H12R  449   5.952   3.902  16.170 -0.5429  0.0059 -0.4035
    4DOPE  H12S  450   6.120   3.919  16.120 -0.1664 -0.1842 -0.8748
    4DOPE  C213  451   5.984   4.054  16.021 -0.4859  0.0989  0.3222
    4DOPE  H13R  452   6.035   4.152  16.014 -0.8134  0.1630 -2.0792
    4DOPE  H13S  453   5.877   4.082  16.034 -0.6232 -0.1910 -0.1620
    4DOPE  C214  454   5.990   3.980  15.889 -0.5804  0.1906  0.0221
    4DOPE  H14R  455   5.916   3.897  15.890 -0.9325  0.5021  0.0256
    4DOPE  H14S  456   6.087   3.924  15.893 -1.2578 -0.9452  1.8724
    4DOPE  C215  457   5.973   4.061  15.767  0.3880 -0.1000  0.8560
    4DOPE  H15R  458   6.044   4.147  15.763 -0.8963  0.9527 -0.7987
    4DOPE  H15S  459   5.880   4.122  15.759  1.1612  0.9711 -0.4371
    4DOPE  C216  460   6.011   3.977  15.639 -0.1286 -0.5775 -0.3156
    4DOPE  H16R  461   5.972   3.875  15.654 -1.8557  0.2008  0.8551
    4DOPE  H16S  462   6.121   3.971  15.648  0.1294 -0.5819 -2.8413
    4DOPE  C217  463   5.989   4.047  15.503 -0.2128  0.1034  0.2682
    4DOPE  H17R  464   5.887   4.036  15.460  0.8174  0.9311 -2.6276
    4DOPE  H17S  465   6.047   3.996  15.423 -3.2380 -0.7649 -1.5425
    4DOPE  C218  466   6.023   4.191  15.510 -0.5233 -0.1099  0.5459
    4DOPE  H18R  467   5.956   4.247  15.578 -1.1400  1.5272 -1.2923
    4DOPE  H18S  468   5.998   4.237  15.411 -0.9930 -0.3406  0.5519
    4DOPE  H18T  469   6.128   4.223  15.525  0.0086 -0.8940 -1.2352
    4DOPE   C33  470   5.415   3.911  16.925 -0.1728 -0.4290 -0.2842
    4DOPE   H3X  471   5.337   3.832  16.930  0.0035 -0.7102 -1.6929
    4DOPE   H3Y  472   5.507   3.850  16.938  0.1092  0.1656  0.6414
    4DOPE   C34  473   5.409   3.975  16.780 -0.5955  1.1352  0.4327
    4DOPE   H4X  474   5.306   4.015  16.769 -1.3653 -0.8048  0.1402
    4DOPE   H4Y  475   5.483   4.058  16.783  1.2331 -0.4399  0.6642
    4DOPE   C35  476   5.431   3.885  16.663 -0.3596  0.5002  0.3097
    4DOPE   H5X  477   5.349   3.815  16.640 -0.3085  0.5798 -0.1237
    4DOPE   H5Y  478   5.520   3.820  16.679 -0.3621  1.0331  2.9807
    4DOPE   C36  479   5.467   3.968  16.532 -0.0966  0.2210  0.4134
    4DOPE   H6X  480   5.557   4.030  16.548 -1.0793  1.3915  1.6295
    4DOPE   H6Y  481   5.387   4.045  16.523  1.3321  1.9412  1.9019
    4DOPE   C37  482   5.489   3.889  16.409  0.3887 -0.4201 -0.1353
    4DOPE   H7X  483   5.594   3.853  16.400  0.5231  0.2307 -1.1658
    4DOPE   H7Y  484   5.433   3.794  16.425  0.5283 -0.3147  1.1354
    4DOPE   C38  485   5.453   3.964  16.278  0.2217  0.5828  0.4904
    4DOPE   H8X  486   5.352   4.009  16.279  0.5071  1.3022 -0.7503
    4DOPE   H8Y  487   5.459   3.882  16.203  2.1404  0.0425  1.1631
    4DOPE   C39  488   5.553   4.066  16.244 -0.3334  0.5979 -0.1502
    4DOPE   H9X  489   5.608   4.107  16.329 -1.0564 -1.2412  1.2664
    4DOPE  C310  490   5.572   4.108  16.117 -0.0076 -0.0517  0.0031
    4DOPE  H10X  491   5.647   4.185  16.093 -0.4863  0.1326 -0.9709
    4DOPE  C311  492   5.502   4.061  15.984 -0.1552 -0.3522  0.3332
    4DOPE  H11X  493   5.426   3.983  16.002 -0.2782 -0.2134  0.4176
    4DOPE  H11Y  494   5.453   4.153  15.945  2.8244  0.0781 -2.9483
    4DOPE  C312  495   5.598   4.038  15.866 -0.3040  0.4206  0.7712
    4DOPE  H12X  496   5.661   3.948  15.882 -3.4257 -2.3766 -1.4682
    4DOPE  H12Y  497   5.669   4.124  15.864 -1.1703  1.1470 -0.3277
    4DOPE  C313  498   5.531   4.048  15.734 -0.2091  0.1004  0.7501
    4DOPE  H13X  499   5.474   3.954  15.717 -1.3211  0.9888 -0.7460
    4DOPE  H13Y  500   5.466   4.135  15.714  0.4302 -0.0564 -2.7392
    4DOPE  C314  501   5.634   4.040  15.614 -0.5175  0.3777  0.5133
    4DOPE  H14X  502   5.692   3.946  15.629 -2.1961 -0.8104 -0.1156
    4DOPE  H14Y  503   5.703   4.126  15.629  1.5147 -0.8853 -0.9498
    4DOPE  C315  504   5.568   4.053  15.470  0.1288  0.7853 -0.2056
    4DOPE  H15X  505   5.470   4.106  15.474 -0.4523 -0.2159 -0.7461
    4DOPE  H15Y  506   5.552   3.955  15.421  2.4324  0.3030 -0.1066
    4DOPE  C316  507   5.656   4.124  15.361  0.1955  0.0919  0.0650
    4DOPE  H16X  508   5.724   4.044  15.324  3.5889  2.8245 -0.1039
    4DOPE  H16Y  509   5.713   4.210  15.402  0.5422 -0.0296 -0.1612
    4DOPE  C317  510   5.566   4.161  15.231 -0.3212  0.0603 -0.6319
    4DOPE  H17X  511   5.635   4.195  15.151 -1.1695 -0.4801 -1.6214
    4DOPE  H17Y  512   5.505   4.076  15.192 -2.1060  0.2564  1.5521
    4DOPE  C318  513   5.472   4.273  15.256  0.4909 -0.3094  0.1681
    4DOPE  H18X  514   5.401   4.233  15.332 -0.1929  0.5336 -0.0134
    4DOPE  H18Y  515   5.529   4.362  15.292  0.3344  0.1394 -0.6745
    4DOPE  H18Z  516   5.418   4.298  15.162  0.7093  1.3558  0.4599
    5DOPE     N  517   5.109   0.184  17.956 -0.3737 -0.7482 -0.0670
    5DOPE   HN1  518   5.115   0.285  17.976 -1.5278 -0.8124  0.7036
    5DOPE   HN2  519   5.192   0.133  17.994 -1.6659 -0.4740  3.4444
    5DOPE   HN3  520   5.095   0.172  17.853  2.0895  0.7973 -0.6712
    5DOPE   C12  521   4.996   0.135  18.045 -0.1468  0.4966  0.0683
    5DOPE  H12A  522   4.921   0.216  18.038 -0.4649  0.4550  2.2451
    5DOPE  H12B  523   5.030   0.155  18.150 -2.2385  0.3867  0.8046
    5DOPE   C11  524   4.948  -0.007  18.003  0.5124  0.1963 -0.0429
    5DOPE  H11A  525   4.863  -0.046  18.062  1.5853 -1.6850  0.3357
    5DOPE  H11B  526   5.042  -0.059  18.033  0.6021  0.5316  0.2658
    5DOPE     P  527   4.807   0.044  17.800  0.0929  0.2608  0.1146
    5DOPE   O13  528   4.853   0.174  17.745 -0.0385  0.0389 -0.0725
    5DOPE   O14  529   4.698   0.046  17.898 -0.5452  0.5974  0.1605
    5DOPE   O11  530   4.770  -0.046  17.681  0.4040  0.3169 -0.7214
    5DOPE   O12  531   4.935  -0.029  17.861 -0.0044 -0.3401 -0.4456
    5DOPE    C1  532   4.851  -0.157  17.640  0.0559 -0.2268 -0.3413
    5DOPE    HA  533   4.812  -0.235  17.571  1.8973  0.0588 -1.8102
    5DOPE    HB  534   4.882  -0.218  17.727 -0.2675  0.4149  0.2252
    5DOPE    C2  535   4.968  -0.108  17.543 -0.8154 -0.0304 -0.9505
    5DOPE    HS  536   5.044  -0.057  17.607 -0.3291 -0.2278 -1.3692
    5DOPE   O21  537   4.912  -0.012  17.452  0.4865 -0.5438 -0.2160
    5DOPE   C21  538   4.992   0.095  17.418  0.5309  0.0946  0.0306
    5DOPE   O22  539   5.111   0.096  17.449  0.2056  0.2946 -0.7041
    5DOPE   C22  540   4.920   0.202  17.340  0.6982  0.0786 -0.2632
    5DOPE   H2R  541   4.991   0.286  17.323  0.6054 -0.0530 -1.3449
    5DOPE   H2S  542   4.841   0.230  17.413  0.4615 -2.7291  0.6689
    5DOPE    C3  543   5.043  -0.235  17.476  0.5923  0.1717 -0.2705
    5DOPE    HX  544   4.960  -0.293  17.430  2.5015 -0.9274 -2.5654
    5DOPE    HY  545   5.088  -0.299  17.555 -0.9063  0.8434  1.2004
    5DOPE   O31  546   5.134  -0.204  17.365  0.7599 -0.9060 -0.1535
    5DOPE   C31  547   5.251  -0.172  17.400 -0.6100 -0.5396 -0.5175
    5DOPE   O32  548   5.292  -0.155  17.514  0.4299 -0.2179  0.7321
    5DOPE   C32  549   5.338  -0.135  17.275 -0.0137  0.2068  0.1404
    5DOPE   H2X  550   5.275  -0.151  17.185 -0.8027  0.0039  0.7136
    5DOPE   H2Y  551   5.354  -0.025  17.280  0.4026  0.3117 -2.4380
    5DOPE   C23  552   4.855   0.149  17.210 -0.2502  0.0917  0.0933
    5DOPE   H3R  553   4.812   0.235  17.155  1.2684  0.2888 -0.8219
    5DOPE   H3S  554   4.792   0.064  17.243  1.1726 -1.0610 -0.0626
    5DOPE   C24  555   4.956   0.094  17.105  0.5092  0.1001 -0.2994
    5DOPE   H4R  556   4.899   0.053  17.019  0.7947 -1.8868  0.4003
    5DOPE   H4S  557   5.009   0.012  17.159  1.3341  1.4791  1.0462
    5DOPE   C25  558   5.054   0.200  17.062  0.9081  0.2865 -0.3651
    5DOPE   H5R  559   5.113   0.243  17.146  0.1318 -0.3407  0.5203
    5DOPE   H5S  560   4.992   0.280  17.015  2.3602 -0.1324 -3.2293
    5DOPE   C26  561   5.154   0.156  16.948  0.2130  0.5228 -0.0409
    5DOPE   H6R  562   5.224   0.083  16.993  1.1062  0.6691 -1.1343
    5DOPE   H6S  563   5.218   0.236  16.905  0.0546  0.4464 -0.4194
    5DOPE   C27  564   5.094   0.084  16.824 -0.3592  0.5179 -0.3683
    5DOPE   H7R  565   5.035  -0.004  16.859 -1.5520  2.0810  1.8255
    5DOPE   H7S  566   5.181   0.047  16.766 -1.1717 -1.2559 -0.5365
    5DOPE   C28  567   4.993   0.172  16.749 -0.2304 -0.4576  0.6335
    5DOPE   H8R  568   4.908   0.207  16.812 -1.2692 -0.1717 -0.8611
    5DOPE   H8S  569   4.943   0.110  16.672 -2.5905  0.9808  0.9181
    5DOPE   C29  570   5.062   0.293  16.675 -0.1491  0.0130  0.0148
    5DOPE   H9R  571   5.100   0.367  16.747 -3.0142  1.3950  0.2472
    5DOPE  C210  572   5.088   0.304  16.545 -0.8838  0.1448  0.0989
    5DOPE  H10R  573   5.142   0.390  16.504 -1.7679 -0.1622 -1.8434
    5DOPE  C211  574   5.063   0.208  16.435 -0.2666  0.0122  0.5821
    5DOPE  H11R  575   4.974   0.142  16.447  0.7282 -1.4852  0.0831
    5DOPE  H11S  576   5.137   0.125  16.435 -0.4018 -0.1114  1.3989
    5DOPE  C212  577   5.047   0.263  16.295  0.1116  0.2759 -0.2728
    5DOPE  H12R  578   5.130   0.328  16.260  0.8953 -1.0704 -0.9742
    5DOPE  H12S  579   4.951   0.319  16.289 -1.5456 -2.2129  1.1878
    5DOPE  C213  580   5.049   0.153  16.190 -0.2443 -0.5274 -0.7673
    5DOPE  H13R  581   4.980   0.076  16.232 -0.8320  1.3694  1.9643
    5DOPE  H13S  582   5.151   0.108  16.187  0.1499  0.1233  1.4316
    5DOPE  C214  583   4.989   0.190  16.055 -0.8032  0.3899 -0.1727
    5DOPE  H14R  584   5.047   0.277  16.019  0.8019 -0.4461  0.2776
    5DOPE  H14S  585   4.882   0.217  16.063 -0.6256  1.9285 -2.3323
    5DOPE  C215  586   5.006   0.075  15.959 -0.9358 -0.0961  0.2482
    5DOPE  H15R  587   4.980  -0.024  16.003  2.0011 -0.5491  1.2317
    5DOPE  H15S  588   5.113   0.069  15.930 -0.6706  1.3965  0.8088
    5DOPE  C216  589   4.927   0.093  15.827 -0.1381  0.1047 -0.4855
    5DOPE  H16R  590   4.946   0.188  15.771  1.0297  0.5832  0.6761
    5DOPE  H16S  591   4.819   0.103  15.850 -0.1093 -0.3195 -0.1693
    5DOPE  C217  592   4.941  -0.031  15.726  0.5588 -0.7606 -0.0832
    5DOPE  H17R  593   4.899   0.012  15.632  1.2745 -2.2874 -1.1407
    5DOPE  H17S  594   4.872  -0.113  15.756 -0.1613  0.6274  2.2899
    5DOPE  C218  595   5.083  -0.077  15.699  0.4765  0.5110 -0.5485
    5DOPE  H18R  596   5.116  -0.155  15.771  1.5517  0.5321 -1.0000
    5DOPE  H18S  597   5.150   0.011  15.699  0.6710  0.3677 -1.2799
    5DOPE  H18T  598   5.097  -0.115  15.595  3.1060  0.4420 -0.2279
    5DOPE   C33  599   5.470  -0.208  17.272 -0.5712 -0.1970 -0.3528
    5DOPE   H3X  600   5.449  -0.316  17.287  1.0066 -0.4863 -0.0599
    5DOPE   H3Y  601   5.523  -0.184  17.367 -0.4961  1.2785 -0.7456
    5DOPE   C34  602   5.559  -0.184  17.149 -0.1497 -0.0774 -0.7518
    5DOPE   H4X  603   5.587  -0.078  17.130  0.6458 -0.4144 -1.5326
    5DOPE   H4Y  604   5.656  -0.237  17.157  0.6687  1.4789 -0.0080
    5DOPE   C35  605   5.497  -0.231  17.018  0.1170  0.3213 -0.0140
    5DOPE   H5X  606   5.409  -0.167  16.992 -0.8771 -1.7053 -1.9363
    5DOPE   H5Y  607   5.453  -0.333  17.011  1.9754 -0.4038 -2.2965
    5DOPE   C36  608   5.591  -0.202  16.907  0.2249  0.4279 -0.8124
    5DOPE   H6X  609   5.684  -0.257  16.934 -1.3088 -0.7672  2.4980
    5DOPE   H6Y  610   5.605  -0.092  16.903 -1.7290  0.7602  0.4094
    5DOPE   C37  611   5.546  -0.258  16.772  0.2378 -0.2269 -0.3437
    5DOPE   H7X  612   5.619  -0.224  16.695 -1.0465  0.4363 -1.2994
    5DOPE   H7Y  613   5.545  -0.369  16.772  0.9543 -0.2423  0.0469
    5DOPE   C38  614   5.411  -0.214  16.726 -0.2861 -0.1398 -0.3770
    5DOPE   H8X  615   5.337  -0.241  16.804 -0.7444  1.0498 -0.3698
    5DOPE   H8Y  616   5.390  -0.281  16.640 -1.6794  0.7725 -0.7991
    5DOPE   C39  617   5.409  -0.068  16.695  0.3845  0.7137 -0.0409
    5DOPE   H9X  618   5.413  -0.001  16.782 -0.1923  0.3166  0.2939
    5DOPE  C310  619   5.413   0.005  16.580  0.1958 -0.0816 -0.1385
    5DOPE  H10X  620   5.414   0.114  16.593 -0.2422  0.1230 -1.6382
    5DOPE  C311  621   5.408  -0.052  16.439  0.7562 -0.7226  0.3350
    5DOPE  H11X  622   5.375  -0.158  16.436 -1.5154 -0.0626 -1.2056
    5DOPE  H11Y  623   5.343   0.007  16.370  2.8407  0.9340 -0.3145
    5DOPE  C312  624   5.551  -0.048  16.372 -0.3154 -0.1370  0.2624
    5DOPE  H12X  625   5.636  -0.091  16.430  0.4461  2.3996  1.1593
    5DOPE  H12Y  626   5.574   0.060  16.361 -1.3173 -0.1323 -2.4209
    5DOPE  C313  627   5.555  -0.116  16.230  0.4650  0.2372 -0.0081
    5DOPE  H13X  628   5.656  -0.150  16.198  0.4747  2.4159 -2.6419
    5DOPE  H13Y  629   5.489  -0.204  16.238 -0.8303  1.3202  2.1878
    5DOPE  C314  630   5.505  -0.022  16.123  0.0669 -0.0656  0.5312
    5DOPE  H14X  631   5.569   0.069  16.125 -1.3020  1.1737 -3.2452
    5DOPE  H14Y  632   5.403   0.011  16.149  0.5342  2.3053 -0.3911
    5DOPE  C315  633   5.496  -0.086  15.983 -0.1010 -0.8337  0.2137
    5DOPE  H15X  634   5.590  -0.135  15.950 -0.3471 -0.9263 -0.3769
    5DOPE  H15Y  635   5.467  -0.007  15.909  0.6025 -1.5891 -0.9043
    5DOPE  C316  636   5.383  -0.194  15.964  0.3939  0.7555 -0.6199
    5DOPE  H16X  637   5.275  -0.174  15.982  0.0646  0.8645 -2.4861
    5DOPE  H16Y  638   5.414  -0.261  16.047 -0.5609  1.0054 -0.0424
    5DOPE  C317  639   5.408  -0.262  15.831 -0.1789 -0.8398 -0.4633
    5DOPE  H17X  640   5.357  -0.196  15.757  0.5351  2.4616  1.7972
    5DOPE  H17Y  641   5.518  -0.268  15.812  0.1277 -0.6962  1.1560
    5DOPE  C318  642   5.365  -0.408  15.825  0.4359  0.8528 -0.4370
    5DOPE  H18X  643   5.254  -0.411  15.833  0.5272  1.1364  1.1917
    5DOPE  H18Y  644   5.374  -0.445  15.720  0.0539  3.1107 -1.3124
    5DOPE  H18Z  645   5.424  -0.473  15.893  0.1853  2.1155  1.0462
    6DOPE     N  646   4.712   0.377  17.684  0.0926 -0.2825  0.6310
    6DOPE   HN1  647   4.790   0.314  17.713  1.4867  1.2051  0.2210
    6DOPE   HN2  648   4.618   0.332  17.688  0.1528 -0.4906 -0.0679
    6DOPE   HN3  649   4.722   0.399  17.583  0.8358 -0.6542  0.6190
    6DOPE   C12  650   4.708   0.508  17.750 -1.0973 -0.8632 -0.2796
    6DOPE  H12A  651   4.675   0.500  17.856 -0.1848  1.2782  0.2203
    6DOPE  H12B  652   4.628   0.573  17.708 -1.9594  0.4420  3.0797
    6DOPE   C11  653   4.842   0.581  17.759 -0.6121  0.4848 -0.0987
    6DOPE  H11A  654   4.837   0.681  17.807  1.7162 -0.2915  1.9244
    6DOPE  H11B  655   4.882   0.600  17.657 -0.8796  1.7328  0.0154
    6DOPE     P  656   5.013   0.550  17.944 -0.2399 -0.1811  0.0847
    6DOPE   O13  657   5.097   0.440  17.996 -0.4874 -0.2719  0.1675
    6DOPE   O14  658   4.934   0.630  18.046 -0.1120 -0.0967 -0.1119
    6DOPE   O11  659   5.111   0.659  17.878  0.1950 -0.0567 -0.1766
    6DOPE   O12  660   4.931   0.494  17.824 -0.1888 -0.2408 -0.2074
    6DOPE    C1  661   5.159   0.639  17.746  1.0567 -0.2850 -0.8721
    6DOPE    HA  662   5.085   0.580  17.688 -0.3534 -2.9270  3.1306
    6DOPE    HB  663   5.254   0.580  17.750  1.1954 -0.0921 -1.3479
    6DOPE    C2  664   5.199   0.772  17.674 -1.0552 -0.3999 -1.8603
    6DOPE    HS  665   5.112   0.841  17.674  0.0366  1.1832  1.4684
    6DOPE   O21  666   5.257   0.731  17.549  0.0452  0.2219 -0.1671
    6DOPE   C21  667   5.159   0.696  17.462  0.7633 -0.7788  0.3939
    6DOPE   O22  668   5.041   0.726  17.477  0.4506  0.5596 -0.0170
    6DOPE   C22  669   5.210   0.631  17.341 -0.5644 -0.0953  0.1511
    6DOPE   H2R  670   5.237   0.524  17.350 -0.2575 -0.0154  0.2130
    6DOPE   H2S  671   5.297   0.694  17.312 -0.0272 -0.3972  1.0866
    6DOPE    C3  672   5.301   0.849  17.757 -0.7050  0.0274  0.4907
    6DOPE    HX  673   5.365   0.773  17.806 -1.6474 -0.5494  0.8379
    6DOPE    HY  674   5.240   0.890  17.841 -1.2792  3.0975 -1.2675
    6DOPE   O31  675   5.374   0.949  17.688  0.5365  0.1417  0.2591
    6DOPE   C31  676   5.481   0.915  17.631  0.4993  0.5631  0.0436
    6DOPE   O32  677   5.547   0.812  17.651 -0.0147 -0.4192  0.2774
    6DOPE   C32  678   5.524   1.016  17.528 -0.4322 -0.4637 -0.5602
    6DOPE   H2X  679   5.438   1.029  17.458  0.4177  0.9889 -1.3920
    6DOPE   H2Y  680   5.560   1.096  17.596  1.0090 -2.9004  1.7390
    6DOPE   C23  681   5.110   0.639  17.230 -0.3461 -0.1242 -0.4249
    6DOPE   H3R  682   5.087   0.743  17.199 -0.5437  0.0092  0.1733
    6DOPE   H3S  683   5.016   0.586  17.256 -1.6725  2.6580  0.8627
    6DOPE   C24  684   5.176   0.569  17.107  0.4638 -0.4059  0.1512
    6DOPE   H4R  685   5.206   0.467  17.142 -2.0314 -0.7870  1.4337
    6DOPE   H4S  686   5.258   0.633  17.070  1.5618  0.1688  3.2981
    6DOPE   C25  687   5.071   0.558  16.995  0.0908  0.1015  0.2020
    6DOPE   H5R  688   4.973   0.515  17.026 -0.4450  0.6823 -0.6233
    6DOPE   H5S  689   5.114   0.498  16.912  2.2634  2.5876 -0.6152
    6DOPE   C26  690   5.039   0.700  16.926  0.1575  0.6874 -0.2943
    6DOPE   H6R  691   5.139   0.743  16.906  0.0833  1.2669  0.5331
    6DOPE   H6S  692   4.986   0.763  17.001 -2.6741  0.4565 -1.9362
    6DOPE   C27  693   4.959   0.684  16.796 -0.3569  0.7509 -0.5742
    6DOPE   H7R  694   4.858   0.652  16.826 -0.4286 -1.8754 -3.1838
    6DOPE   H7S  695   4.999   0.594  16.744  0.9035  1.4154 -0.8048
    6DOPE   C28  696   4.968   0.808  16.700  0.7653 -0.3214 -0.8533
    6DOPE   H8R  697   4.960   0.899  16.764 -0.6308 -1.6186  0.9242
    6DOPE   H8S  698   4.869   0.791  16.651 -0.2305  0.6645  0.7103
    6DOPE   C29  699   5.086   0.806  16.604 -0.0294  0.4475 -0.9195
    6DOPE   H9R  700   5.186   0.809  16.651 -0.0469 -1.3468 -0.7293
    6DOPE  C210  701   5.084   0.782  16.477 -0.0906  0.3330  0.2913
    6DOPE  H10R  702   5.179   0.764  16.424  1.3644  0.2790  2.7880
    6DOPE  C211  703   4.958   0.768  16.401  0.5954 -0.4554  0.5092
    6DOPE  H11R  704   4.902   0.860  16.428  0.6929 -0.4143  0.5716
    6DOPE  H11S  705   4.895   0.683  16.433 -1.7358  1.1579  0.4874
    6DOPE  C212  706   4.978   0.763  16.254  0.7770 -0.1059 -0.2411
    6DOPE  H12R  707   5.058   0.835  16.229  0.1364  0.3151 -1.1491
    6DOPE  H12S  708   4.891   0.808  16.201 -1.2489 -0.3248  2.6652
    6DOPE  C213  709   5.021   0.626  16.190 -0.3302 -0.1188 -0.4311
    6DOPE  H13R  710   4.946   0.550  16.220 -0.7759  0.2435 -0.6087
    6DOPE  H13S  711   5.117   0.602  16.239 -0.8251  1.7238  1.6129
    6DOPE  C214  712   5.035   0.618  16.039  0.2136  0.2218  0.2193
    6DOPE  H14R  713   4.939   0.652  15.995 -0.5946 -1.8377  0.2978
    6DOPE  H14S  714   5.037   0.514  15.999  1.9883  0.4154 -0.2584
    6DOPE  C215  715   5.145   0.697  15.987  0.4421  0.0576 -0.3128
    6DOPE  H15R  716   5.240   0.658  16.029 -1.3963 -0.4276  4.0542
    6DOPE  H15S  717   5.137   0.801  16.024 -1.6730 -0.0589 -0.3066
    6DOPE  C216  718   5.148   0.698  15.832  0.8283  0.2138  0.0407
    6DOPE  H16R  719   5.079   0.781  15.806 -0.8604 -1.7003 -1.9932
    6DOPE  H16S  720   5.114   0.599  15.794 -1.4312  0.5142  1.1273
    6DOPE  C217  721   5.289   0.727  15.782  0.0366  0.9592  0.0843
    6DOPE  H17R  722   5.353   0.637  15.796 -0.1869  1.1472  2.9432
    6DOPE  H17S  723   5.344   0.794  15.852  1.3650 -1.2499  1.2653
    6DOPE  C218  724   5.305   0.766  15.629 -0.3791  0.2967 -0.1373
    6DOPE  H18R  725   5.399   0.821  15.606 -0.7220  1.7676  1.7143
    6DOPE  H18S  726   5.218   0.823  15.589 -0.3269 -0.6645 -1.6908
    6DOPE  H18T  727   5.315   0.667  15.581  0.3316  0.4128 -0.2300
    6DOPE   C33  728   5.651   0.972  17.453 -0.2901  0.2901  0.2222
    6DOPE   H3X  729   5.727   0.922  17.517 -0.0119 -0.9709 -1.0300
    6DOPE   H3Y  730   5.692   1.060  17.398  0.3592 -0.3761 -0.3802
    6DOPE   C34  731   5.631   0.857  17.356 -0.5265  0.5771  0.4103
    6DOPE   H4X  732   5.733   0.821  17.329 -0.0411  0.1876  2.5484
    6DOPE   H4Y  733   5.583   0.771  17.408 -1.4725  0.9562  0.1869
    6DOPE   C35  734   5.547   0.883  17.237  0.0774 -0.1342 -0.5026
    6DOPE   H5X  735   5.592   0.975  17.192  0.0296 -0.0391 -0.3570
    6DOPE   H5Y  736   5.439   0.898  17.261 -0.4095  0.3612 -2.7644
    6DOPE   C36  737   5.556   0.779  17.123  0.0650  0.5574  0.2660
    6DOPE   H6X  738   5.514   0.683  17.160 -1.8508  0.1259 -2.7732
    6DOPE   H6Y  739   5.662   0.766  17.093 -0.0805 -0.4830  0.1635
    6DOPE   C37  740   5.464   0.812  17.001  0.4688 -0.3058 -0.2507
    6DOPE   H7X  741   5.475   0.722  16.937  0.6168  0.0831 -0.7849
    6DOPE   H7Y  742   5.355   0.814  17.022 -0.5559  4.8231 -4.0213
    6DOPE   C38  743   5.513   0.944  16.934 -0.0729  0.0273  0.4776
    6DOPE   H8X  744   5.496   1.036  16.994  0.2926  1.1385 -1.0827
    6DOPE   H8Y  745   5.442   0.965  16.851  1.5781  1.4748 -0.6079
    6DOPE   C39  746   5.650   0.944  16.868  0.0972  1.3871 -1.0122
    6DOPE   H9X  747   5.730   0.921  16.940  0.8863  1.7495 -1.7477
    6DOPE  C310  748   5.683   0.947  16.737 -0.0154 -0.3387 -0.0540
    6DOPE  H10X  749   5.792   0.959  16.725  0.0160 -2.7780 -3.4663
    6DOPE  C311  750   5.590   0.987  16.629 -0.3240  0.1487 -0.0365
    6DOPE  H11X  751   5.485   0.955  16.648  0.6543 -2.3387  1.6720
    6DOPE  H11Y  752   5.587   1.098  16.630 -1.7943  0.1266  0.3944
    6DOPE  C312  753   5.635   0.937  16.489  0.2408 -0.4678 -1.2034
    6DOPE  H12X  754   5.660   0.829  16.488 -2.7608 -1.2537 -1.4746
    6DOPE  H12Y  755   5.720   1.000  16.456 -0.5822  1.6677  0.4920
    6DOPE  C313  756   5.523   0.951  16.388  0.1198  0.2002  0.0614
    6DOPE  H13X  757   5.432   0.899  16.426  0.2638 -1.2050 -1.4280
    6DOPE  H13Y  758   5.485   1.055  16.379 -0.1280  0.2188  1.1490
    6DOPE  C314  759   5.565   0.896  16.248 -0.2025 -0.1883 -0.2729
    6DOPE  H14X  760   5.534   0.790  16.234 -2.2492 -0.1340  2.8594
    6DOPE  H14Y  761   5.675   0.906  16.246 -0.1338  0.0174  1.8347
    6DOPE  C315  762   5.512   0.981  16.125 -0.1267  0.1731  0.3076
    6DOPE  H15X  763   5.507   1.087  16.159  1.8487  0.3093  0.3087
    6DOPE  H15Y  764   5.406   0.956  16.105 -0.2087 -0.1010  1.0605
    6DOPE  C316  765   5.612   0.965  16.004  0.1668 -0.0337 -0.4761
    6DOPE  H16X  766   5.712   1.008  16.023  0.7902 -0.7131 -2.0461
    6DOPE  H16Y  767   5.571   1.030  15.924  0.8836 -0.2153 -0.9996
    6DOPE  C317  768   5.636   0.822  15.959  0.3522  0.2473 -0.1632
    6DOPE  H17X  769   5.694   0.762  16.032  0.3496 -0.2740 -0.5775
    6DOPE  H17Y  770   5.534   0.779  15.945 -0.4233  1.7930  0.5428
    6DOPE  C318  771   5.716   0.798  15.833  0.1325  0.4302 -0.0560
    6DOPE  H18X  772   5.763   0.697  15.837  2.0836  1.0737 -3.1283
    6DOPE  H18Y  773   5.663   0.805  15.735 -1.5018  0.2033  0.7822
    6DOPE  H18Z  774   5.796   0.874  15.842 -0.1800  0.5553  2.4412
    7DOPE     N  775   0.735   1.815  17.631 -0.1432  0.6768 -0.3641
    7DOPE   HN1  776   0.831   1.843  17.603  0.7697 -1.2635  0.6387
    7DOPE   HN2  777   0.714   1.820  17.733 -2.2003 -1.4278 -0.6039
    7DOPE   HN3  778   0.731   1.720  17.589 -2.7131  0.7334 -0.4494
    7DOPE   C12  779   0.625   1.881  17.557  0.0333 -0.1346  0.1916
    7DOPE  H12A  780   0.661   1.905  17.455  0.0156 -2.0698 -0.2991
    7DOPE  H12B  781   0.582   1.969  17.610 -1.2201 -1.0271  0.7103
    7DOPE   C11  782   0.516   1.780  17.532 -0.4042 -0.7237 -0.7936
    7DOPE  H11A  783   0.426   1.827  17.486 -0.6350 -2.9656 -2.8471
    7DOPE  H11B  784   0.480   1.744  17.631 -0.7439  1.4170 -0.0916
    7DOPE     P  785   0.618   1.532  17.492 -0.0381 -0.4002  0.0415
    7DOPE   O13  786   0.509   1.453  17.550  0.1043 -0.0371  0.1815
    7DOPE   O14  787   0.742   1.547  17.575 -0.0950 -0.2618  0.1226
    7DOPE   O11  788   0.662   1.481  17.346  0.0355  0.2475 -0.3785
    7DOPE   O12  789   0.560   1.672  17.451 -0.2647 -0.3468 -0.4881
    7DOPE    C1  790   0.751   1.558  17.270  0.4793  0.2901 -0.6382
    7DOPE    HA  791   0.846   1.579  17.324  0.4897 -1.7645  0.2135
    7DOPE    HB  792   0.700   1.651  17.237 -2.9013 -0.0702  2.8219
    7DOPE    C2  793   0.790   1.490  17.133 -0.4365  0.7454  0.0302
    7DOPE    HS  794   0.813   1.383  17.148 -0.6440  0.6955  0.0056
    7DOPE   O21  795   0.905   1.555  17.082  0.4521  0.8010  0.4582
    7DOPE   C21  796   1.019   1.518  17.137  0.4064 -0.4538 -0.1262
    7DOPE   O22  797   1.033   1.439  17.227  0.9271  0.2199  0.4952
    7DOPE   C22  798   1.143   1.595  17.087  0.0514  0.8673 -0.4415
    7DOPE   H2R  799   1.211   1.594  17.175  0.6776 -0.7371 -0.9154
    7DOPE   H2S  800   1.108   1.699  17.072 -3.4336 -0.1005  0.0163
    7DOPE    C3  801   0.664   1.495  17.034 -0.2158  0.1173 -0.2051
    7DOPE    HX  802   0.625   1.599  17.038  1.8206  0.9088  0.2787
    7DOPE    HY  803   0.583   1.438  17.085  0.8070 -1.0139  0.2101
    7DOPE   O31  804   0.692   1.435  16.905 -0.6006 -0.7538 -0.1409
    7DOPE   C31  805   0.697   1.519  16.809 -0.6377  0.2025 -0.4614
    7DOPE   O32  806   0.683   1.640  16.816  0.0154  0.9266 -0.2263
    7DOPE   C32  807   0.726   1.445  16.683  0.5194  0.3212  0.3232
    7DOPE   H2X  808   0.811   1.374  16.700 -0.3255 -1.3565 -1.9096
    7DOPE   H2Y  809   0.644   1.376  16.651 -0.9847  2.3345 -0.3535
    7DOPE   C23  810   1.214   1.543  16.962 -0.1793 -0.0748 -0.6185
    7DOPE   H3R  811   1.198   1.436  16.940 -0.3331 -0.3632  0.7982
    7DOPE   H3S  812   1.322   1.570  16.966  0.0740 -0.8993 -1.3908
    7DOPE   C24  813   1.156   1.608  16.828  0.3436 -0.1300  0.3868
    7DOPE   H4R  814   1.144   1.717  16.845  0.7318 -0.4156  2.9252
    7DOPE   H4S  815   1.057   1.560  16.814 -0.1213  0.9277 -0.0589
    7DOPE   C25  816   1.238   1.581  16.696  0.5444 -0.7538  0.0678
    7DOPE   H5R  817   1.261   1.472  16.690  0.4999 -0.6908 -1.5237
    7DOPE   H5S  818   1.332   1.637  16.713  0.9407 -1.7018  1.1552
    7DOPE   C26  819   1.176   1.634  16.567  0.1403 -0.0435 -1.0979
    7DOPE   H6R  820   1.156   1.742  16.582  0.0313  0.0152 -1.6261
    7DOPE   H6S  821   1.083   1.573  16.566  0.2366 -0.2652  0.6775
    7DOPE   C27  822   1.270   1.604  16.453 -0.2456  0.6814  0.6807
    7DOPE   H7R  823   1.290   1.495  16.451  1.8544  1.0314 -0.0128
    7DOPE   H7S  824   1.366   1.658  16.471 -0.0317  0.9528 -1.0840
    7DOPE   C28  825   1.223   1.650  16.312 -0.4174  0.1807  0.3451
    7DOPE   H8R  826   1.208   1.760  16.323 -0.6186  0.0808  1.1059
    7DOPE   H8S  827   1.123   1.607  16.292 -0.5962  0.8610 -0.2696
    7DOPE   C29  828   1.328   1.632  16.199  0.0620 -0.3079  0.2254
    7DOPE   H9R  829   1.431   1.611  16.231  0.4850  1.6871  0.3044
    7DOPE  C210  830   1.301   1.645  16.070 -0.4171 -0.0308 -0.0912
    7DOPE  H10R  831   1.378   1.628  15.994 -1.0477 -1.2738 -0.4797
    7DOPE  C211  832   1.166   1.655  16.007 -0.3292 -0.3906  0.9772
    7DOPE  H11R  833   1.138   1.762  16.022 -0.9808 -0.5936  1.2483
    7DOPE  H11S  834   1.094   1.602  16.073 -0.1055 -0.3733  1.2383
    7DOPE  C212  835   1.142   1.615  15.858  0.5872  0.6134 -0.7134
    7DOPE  H12R  836   1.031   1.611  15.846  0.6389 -1.2562 -0.9442
    7DOPE  H12S  837   1.177   1.510  15.846 -1.9449 -0.2018 -1.7337
    7DOPE  C213  838   1.199   1.706  15.757 -0.5852  0.2848 -0.1309
    7DOPE  H13R  839   1.310   1.712  15.770 -0.6859  1.8486  0.2741
    7DOPE  H13S  840   1.157   1.802  15.793  0.3927 -0.2142  2.5675
    7DOPE  C214  841   1.148   1.670  15.614 -0.4263  0.1514  0.3374
    7DOPE  H14R  842   1.051   1.617  15.623  0.3576 -1.3308  0.4089
    7DOPE  H14S  843   1.220   1.602  15.565  1.0454 -0.0383  2.6092
    7DOPE  C215  844   1.124   1.794  15.529 -0.0231 -0.0860  0.3775
    7DOPE  H15R  845   1.220   1.848  15.515  0.1899 -0.2987  0.9823
    7DOPE  H15S  846   1.041   1.861  15.560 -0.9838 -0.9904 -0.1883
    7DOPE  C216  847   1.080   1.749  15.389 -0.2102 -0.6405 -0.9257
    7DOPE  H16R  848   0.988   1.686  15.389 -1.6904  0.8010  5.1346
    7DOPE  H16S  849   1.164   1.690  15.347  0.9818  1.2902 -1.3836
    7DOPE  C217  850   1.058   1.868  15.288  0.5743 -0.1344 -0.7246
    7DOPE  H17R  851   1.126   1.951  15.317  1.0325 -0.9051  0.5098
    7DOPE  H17S  852   0.954   1.900  15.311  0.3190 -1.6375  0.3506
    7DOPE  C218  853   1.056   1.849  15.134 -0.3105  0.6595 -0.0668
    7DOPE  H18R  854   0.996   1.937  15.102  1.1108  1.7664  0.2017
    7DOPE  H18S  855   1.004   1.756  15.103  1.8833 -0.8328  0.4818
    7DOPE  H18T  856   1.158   1.842  15.089 -0.4808 -0.9525 -0.2773
    7DOPE   C33  857   0.754   1.536  16.562  0.2908 -0.4509  0.6761
    7DOPE   H3X  858   0.830   1.610  16.597 -1.1774  0.4701  2.0749
    7DOPE   H3Y  859   0.657   1.587  16.547  0.3432 -0.2812  0.8984
    7DOPE   C34  860   0.792   1.457  16.431 -0.1790  0.5631 -0.3344
    7DOPE   H4X  861   0.887   1.503  16.397 -0.1397 -0.5357 -1.7753
    7DOPE   H4Y  862   0.816   1.354  16.463  0.3474  0.1798 -1.8712
    7DOPE   C35  863   0.687   1.439  16.323  1.3604  0.5331  0.7094
    7DOPE   H5X  864   0.590   1.423  16.374  1.7813  0.6428  1.5641
    7DOPE   H5Y  865   0.710   1.345  16.268 -1.5568 -0.5942  1.2237
    7DOPE   C36  866   0.685   1.555  16.224  0.1775 -0.8242 -0.1894
    7DOPE   H6X  867   0.789   1.561  16.185  1.0981 -0.4435  2.1482
    7DOPE   H6Y  868   0.651   1.652  16.264  2.5335  0.9953 -2.2352
    7DOPE   C37  869   0.588   1.538  16.106 -0.0778  0.1904  0.3917
    7DOPE   H7X  870   0.607   1.436  16.068  3.0537  0.5751  0.6640
    7DOPE   H7Y  871   0.488   1.533  16.154  0.3779 -1.4311  1.2526
    7DOPE   C38  872   0.591   1.649  16.004  0.2537 -0.8855  0.1859
    7DOPE   H8X  873   0.575   1.744  16.059  2.8495  0.7730 -1.6988
    7DOPE   H8Y  874   0.503   1.643  15.936  0.1577  2.1272 -0.1019
    7DOPE   C39  875   0.715   1.653  15.919 -0.3164 -0.7258 -0.4576
    7DOPE   H9X  876   0.800   1.704  15.967 -1.5133  0.6028  0.3284
    7DOPE  C310  877   0.738   1.586  15.806  0.5050  0.3159 -0.3146
    7DOPE  H10X  878   0.833   1.604  15.755  0.1642 -0.9420 -1.4307
    7DOPE  C311  879   0.644   1.495  15.733 -0.1356  0.5664 -0.2495
    7DOPE  H11X  880   0.680   1.391  15.746 -2.0212 -0.1408 -0.4136
    7DOPE  H11Y  881   0.541   1.508  15.772  0.0674  1.4929  0.0047
    7DOPE  C312  882   0.643   1.519  15.574 -0.0461  0.1959 -0.5482
    7DOPE  H12X  883   0.577   1.448  15.521  0.8239 -0.5212 -0.6938
    7DOPE  H12Y  884   0.748   1.502  15.544  0.9887  0.8772  2.3676
    7DOPE  C313  885   0.619   1.661  15.514 -0.2799 -0.0490 -0.1228
    7DOPE  H13X  886   0.509   1.676  15.504 -0.1124 -0.3380 -3.7871
    7DOPE  H13Y  887   0.652   1.741  15.583 -0.4884  0.0725 -0.1615
    7DOPE  C314  888   0.673   1.669  15.366 -0.9490 -0.4103  0.0799
    7DOPE  H14X  889   0.629   1.594  15.296  1.4351 -1.6594 -0.1704
    7DOPE  H14Y  890   0.783   1.658  15.360 -0.8059  1.2970 -1.9030
    7DOPE  C315  891   0.640   1.807  15.310 -0.3083  0.1901 -0.7390
    7DOPE  H15X  892   0.677   1.879  15.386 -1.3310  0.4278 -0.4508
    7DOPE  H15Y  893   0.530   1.815  15.306 -0.6297 -2.0318  1.2944
    7DOPE  C316  894   0.697   1.833  15.171  0.5247  0.3338  0.3415
    7DOPE  H16X  895   0.785   1.767  15.159  0.8140  0.9553 -1.2559
    7DOPE  H16Y  896   0.725   1.940  15.174  0.3159  0.4101 -0.2972
    7DOPE  C317  897   0.607   1.797  15.049  0.5542 -0.1626 -0.6040
    7DOPE  H17X  898   0.562   1.697  15.068 -0.3612  0.6021  1.5656
    7DOPE  H17Y  899   0.525   1.872  15.045 -2.1149 -2.7877  0.8455
    7DOPE  C318  900   0.690   1.793  14.916 -0.7353 -0.1947 -0.4543
    7DOPE  H18X  901   0.775   1.724  14.932  0.7042  1.5596 -0.1962
    7DOPE  H18Y  902   0.627   1.753  14.834 -2.3159 -0.1351  0.6841
    7DOPE  H18Z  903   0.735   1.889  14.883  2.6569 -2.1120 -1.8671
    8DOPE     N  904   2.898   1.502  17.862  0.1406  0.0686 -0.2194
    8DOPE   HN1  905   2.893   1.557  17.950  0.7588  0.5536 -0.4807
    8DOPE   HN2  906   2.848   1.411  17.864 -0.5529  0.3823 -1.5870
    8DOPE   HN3  907   2.996   1.470  17.854  0.0603 -0.4799  0.8631
    8DOPE   C12  908   2.861   1.600  17.748  0.0636  0.3761 -0.1510
    8DOPE  H12A  909   2.856   1.543  17.653 -1.1189  2.3832 -1.3607
    8DOPE  H12B  910   2.931   1.686  17.739  0.4696  0.1432  0.6084
    8DOPE   C11  911   2.723   1.678  17.763  0.1551  0.1661 -0.2254
    8DOPE  H11A  912   2.713   1.739  17.671 -0.9110 -0.0330 -0.2565
    8DOPE  H11B  913   2.728   1.747  17.849  0.6637  0.7129 -0.6847
    8DOPE     P  914   2.565   1.492  17.671 -0.2506  0.3417 -0.0817
    8DOPE   O13  915   2.434   1.443  17.718  1.0197 -0.2274  0.8415
    8DOPE   O14  916   2.664   1.385  17.644 -0.0563 -0.3000 -0.8764
    8DOPE   O11  917   2.541   1.574  17.541 -0.7670  0.2244 -0.0722
    8DOPE   O12  918   2.615   1.596  17.784  0.1799  0.1264  0.6355
    8DOPE    C1  919   2.605   1.560  17.416  0.5233  0.0294  0.4023
    8DOPE    HA  920   2.716   1.568  17.414  0.6995 -1.9178 -1.7109
    8DOPE    HB  921   2.563   1.636  17.346 -1.3519 -2.1909 -1.0639
    8DOPE    C2  922   2.564   1.429  17.347 -0.0267 -0.6465  0.5543
    8DOPE    HS  923   2.608   1.343  17.402 -2.2549 -1.6033  0.9569
    8DOPE   O21  924   2.619   1.437  17.212  0.0419  0.3186  0.3736
    8DOPE   C21  925   2.717   1.353  17.179  0.0494  0.3673 -0.4877
    8DOPE   O22  926   2.760   1.272  17.261 -0.0035  0.2952 -0.4283
    8DOPE   C22  927   2.771   1.377  17.040 -0.1925  0.6582 -0.0447
    8DOPE   H2R  928   2.840   1.293  17.014 -0.4469  0.6365 -0.6791
    8DOPE   H2S  929   2.827   1.472  17.036  0.1858  0.4759  0.8319
    8DOPE    C3  930   2.413   1.413  17.337  0.4521  0.6420 -0.2918
    8DOPE    HX  931   2.372   1.511  17.303 -0.6760 -0.1580 -1.3235
    8DOPE    HY  932   2.370   1.409  17.439 -0.7489 -2.5398 -0.8042
    8DOPE   O31  933   2.364   1.305  17.258  0.5185  0.1173  0.3139
    8DOPE   C31  934   2.376   1.187  17.319  0.4073 -0.0176  0.6939
    8DOPE   O32  935   2.434   1.158  17.420 -0.6235 -0.6290 -0.3196
    8DOPE   C32  936   2.312   1.081  17.218  0.4578  0.0517 -0.2134
    8DOPE   H2X  937   2.283   0.991  17.276 -1.7030 -0.2187 -1.6088
    8DOPE   H2Y  938   2.221   1.118  17.167  1.3651  1.8424 -0.6082
    8DOPE   C23  939   2.656   1.376  16.939 -0.1536 -0.1764 -0.1286
    8DOPE   H3R  940   2.594   1.465  16.962  1.3368  0.4086  1.9290
    8DOPE   H3S  941   2.591   1.287  16.940 -0.6524  0.1887  0.0169
    8DOPE   C24  942   2.701   1.404  16.793  1.0822 -0.0852 -0.3244
    8DOPE   H4R  943   2.809   1.427  16.780  0.7976  0.2482 -2.4961
    8DOPE   H4S  944   2.655   1.503  16.772 -3.7942 -1.8192  0.8981
    8DOPE   C25  945   2.651   1.294  16.693 -0.7647 -0.4127 -1.2372
    8DOPE   H5R  946   2.557   1.255  16.736 -0.1835  1.1629  1.7743
    8DOPE   H5S  947   2.724   1.211  16.706  1.2894  1.5505  0.9113
    8DOPE   C26  948   2.636   1.351  16.548  0.9095  0.1125 -0.2659
    8DOPE   H6R  949   2.734   1.395  16.521  1.6374 -1.6729 -0.6949
    8DOPE   H6S  950   2.573   1.442  16.558 -0.0630 -0.6492  0.8514
    8DOPE   C27  951   2.571   1.253  16.447  0.3548 -0.3404 -0.3898
    8DOPE   H7R  952   2.487   1.200  16.497 -0.9007  1.6582 -0.2375
    8DOPE   H7S  953   2.637   1.169  16.417  0.2696 -0.1067 -1.2564
    8DOPE   C28  954   2.505   1.316  16.324  0.7314 -0.6450  0.0050
    8DOPE   H8R  955   2.437   1.401  16.346 -1.3695 -1.8693 -1.4316
    8DOPE   H8S  956   2.433   1.248  16.275 -1.2018  1.4172 -0.2060
    8DOPE   C29  957   2.617   1.366  16.230 -0.0604 -0.2287 -0.2965
    8DOPE   H9R  958   2.699   1.412  16.287  0.6045 -1.1052 -0.5277
    8DOPE  C210  959   2.630   1.332  16.098  0.3327  0.3876  0.3553
    8DOPE  H10R  960   2.715   1.358  16.033 -0.3408 -0.2737 -0.8227
    8DOPE  C211  961   2.541   1.249  16.024 -0.0052  0.1604 -0.4112
    8DOPE  H11R  962   2.438   1.283  16.046  0.3672  0.0566  1.6836
    8DOPE  H11S  963   2.553   1.143  16.056  0.6525  0.6535  1.0577
    8DOPE  C212  964   2.547   1.241  15.872 -0.4469 -0.1519  0.5577
    8DOPE  H12R  965   2.646   1.215  15.827 -0.4261  0.4435  0.2487
    8DOPE  H12S  966   2.519   1.341  15.832 -0.1961  0.1753  1.1855
    8DOPE  C213  967   2.454   1.137  15.811  0.2214  1.2203  0.1419
    8DOPE  H13R  968   2.356   1.161  15.856 -2.4433 -2.8788 -2.7584
    8DOPE  H13S  969   2.482   1.042  15.863  0.8664  1.0994 -0.4064
    8DOPE  C214  970   2.451   1.119  15.660 -0.4297 -0.1050  0.2655
    8DOPE  H14R  971   2.417   1.213  15.610  0.0221  1.7328  3.1253
    8DOPE  H14S  972   2.375   1.039  15.646 -0.0674 -0.9411  2.6250
    8DOPE  C215  973   2.584   1.057  15.616  0.4705 -0.2055  0.1507
    8DOPE  H15R  974   2.631   0.985  15.685 -1.2199 -0.5851  0.9631
    8DOPE  H15S  975   2.655   1.142  15.610  0.4682  0.0443  2.6764
    8DOPE  C216  976   2.587   1.002  15.471  0.1523  0.1561 -0.2923
    8DOPE  H16R  977   2.564   1.093  15.412 -1.7305  1.0270  1.6396
    8DOPE  H16S  978   2.505   0.928  15.460 -1.3414  1.7743 -0.5250
    8DOPE  C217  979   2.724   0.949  15.439  0.2343  0.2804 -0.8540
    8DOPE  H17R  980   2.767   0.888  15.521  1.7059  3.1981  0.7053
    8DOPE  H17S  981   2.791   1.037  15.441  0.9797 -0.2837 -0.8431
    8DOPE  C218  982   2.734   0.881  15.304  0.2156 -0.2801 -0.1383
    8DOPE  H18R  983   2.725   0.963  15.230  1.2180  0.5672  0.6368
    8DOPE  H18S  984   2.650   0.808  15.304 -1.3801  1.4486 -1.9504
    8DOPE  H18T  985   2.830   0.828  15.291 -0.8016 -2.0945 -0.6436
    8DOPE   C33  986   2.410   1.048  17.106  0.1702  0.3528  0.5273
    8DOPE   H3X  987   2.502   1.007  17.154  0.0071  0.6538  1.1056
    8DOPE   H3Y  988   2.441   1.137  17.047 -0.9529 -1.1586 -2.5534
    8DOPE   C34  989   2.368   0.951  16.988 -0.1445 -0.1414  0.3058
    8DOPE   H4X  990   2.385   0.849  17.029  0.7929 -0.3598 -0.5966
    8DOPE   H4Y  991   2.260   0.961  16.966  0.2947 -1.5842 -3.1625
    8DOPE   C35  992   2.450   0.964  16.859 -0.0619  0.0314  0.1765
    8DOPE   H5X  993   2.551   0.924  16.881  0.2791  0.0041 -1.3593
    8DOPE   H5Y  994   2.463   1.072  16.835 -0.6027  0.1537  0.4062
    8DOPE   C36  995   2.385   0.882  16.747 -0.2970 -0.4149 -0.5269
    8DOPE   H6X  996   2.285   0.926  16.729 -0.4728 -0.4086  0.4055
    8DOPE   H6Y  997   2.383   0.775  16.776 -0.9401 -0.4371 -0.6523
    8DOPE   C37  998   2.467   0.887  16.617  0.3840  0.0482  0.2122
    8DOPE   H7X  999   2.464   0.994  16.586 -0.7139  0.1451  0.6069
    8DOPE   H7Y 1000   2.569   0.844  16.626  1.1922  1.7898 -0.1786
    8DOPE   C38 1001   2.403   0.802  16.498  0.0283 -0.8441  0.6428
    8DOPE   H8X 1002   2.298   0.833  16.481 -0.1247 -0.9767  1.3361
    8DOPE   H8Y 1003   2.400   0.697  16.533  0.1423 -1.2488 -0.5181
    8DOPE   C39 1004   2.493   0.796  16.373  0.2340 -0.8693 -0.7180
    8DOPE   H9X 1005   2.586   0.741  16.397 -1.0090 -2.2533  1.2098
    8DOPE  C310 1006   2.464   0.823  16.249 -0.2591  0.3219  0.2001
    8DOPE  H10X 1007   2.538   0.799  16.171 -2.2672  0.2890 -1.8425
    8DOPE  C311 1008   2.342   0.894  16.187 -0.1713  0.5193 -1.2093
    8DOPE  H11X 1009   2.287   0.948  16.267  0.5997  0.2833 -0.4992
    8DOPE  H11Y 1010   2.379   0.976  16.123 -1.9510  1.1595 -1.4709
    8DOPE  C312 1011   2.269   0.788  16.105 -0.1125  0.1196 -0.4984
    8DOPE  H12X 1012   2.167   0.822  16.081 -0.2655 -0.7880 -1.1873
    8DOPE  H12Y 1013   2.264   0.695  16.166 -0.3256  0.4047 -0.0730
    8DOPE  C313 1014   2.350   0.738  15.981 -0.4429 -0.8943 -0.5924
    8DOPE  H13X 1015   2.388   0.823  15.921  1.4546 -0.2028  1.4296
    8DOPE  H13Y 1016   2.443   0.688  16.015  0.6035 -0.1489 -2.2380
    8DOPE  C314 1017   2.275   0.641  15.896  0.3809 -0.6998 -0.5124
    8DOPE  H14X 1018   2.270   0.550  15.960  1.7343 -0.8153 -0.5623
    8DOPE  H14Y 1019   2.343   0.615  15.813 -0.1551 -0.7856 -0.9292
    8DOPE  C315 1020   2.132   0.700  15.859 -0.2793 -0.3767 -0.2281
    8DOPE  H15X 1021   2.163   0.802  15.828 -0.1360 -0.7132 -1.2318
    8DOPE  H15Y 1022   2.070   0.694  15.950 -0.1263 -1.3813 -0.1731
    8DOPE  C316 1023   2.065   0.631  15.738 -0.1556  1.0185  0.4273
    8DOPE  H16X 1024   2.034   0.529  15.769 -0.8174 -0.6732 -4.8189
    8DOPE  H16Y 1025   2.136   0.623  15.652 -1.1542 -2.8032 -0.2165
    8DOPE  C317 1026   1.941   0.714  15.715  0.3926 -0.9193  0.3855
    8DOPE  H17X 1027   1.860   0.645  15.682  0.7852 -0.7509 -0.9885
    8DOPE  H17Y 1028   1.898   0.750  15.811  0.2389  0.9108 -0.3330
    8DOPE  C318 1029   1.950   0.821  15.602 -0.0021  0.2228 -0.3576
    8DOPE  H18X 1030   2.038   0.888  15.615  0.0506 -0.1961  1.8399
    8DOPE  H18Y 1031   1.855   0.878  15.601  0.3153  0.8975  1.9538
    8DOPE  H18Z 1032   1.955   0.774  15.501  0.5512  0.9022 -0.6543
    9DOPE     N 1033   5.303   5.754  17.830 -0.3528  0.5939 -0.1437
    9DOPE   HN1 1034   5.356   5.844  17.826 -1.5710  1.4705 -5.6852
    9DOPE   HN2 1035   5.317   5.703  17.919  1.6787  1.4156  0.0673
    9DOPE   HN3 1036   5.338   5.688  17.757 -0.3778  2.1380 -1.6406
    9DOPE   C12 1037   5.158   5.774  17.807  0.3424 -0.0850 -0.7264
    9DOPE  H12A 1038   5.116   5.848  17.879  2.1035 -0.5902  0.9217
    9DOPE  H12B 1039   5.113   5.674  17.826  0.4411  0.5039  3.6795
    9DOPE   C11 1040   5.148   5.823  17.659  0.2426 -0.0894  0.4183
    9DOPE  H11A 1041   5.038   5.833  17.646  0.2837 -1.5686 -1.4225
    9DOPE  H11B 1042   5.171   5.749  17.579 -0.4441  0.4629 -0.3035
    9DOPE     P 1043   5.195   6.082  17.598 -0.5157  0.4456  0.0520
    9DOPE   O13 1044   5.317   6.171  17.593  0.6602  0.0687 -0.0692
    9DOPE   O14 1045   5.092   6.127  17.690 -0.3389  0.1200 -0.3434
    9DOPE   O11 1046   5.134   6.068  17.456 -0.3147 -0.4238  0.3771
    9DOPE   O12 1047   5.229   5.936  17.636 -0.5230 -0.2340 -0.1232
    9DOPE    C1 1048   5.208   6.013  17.348  0.1435 -0.0206 -0.6613
    9DOPE    HA 1049   5.237   5.907  17.364 -0.9466  0.0344  2.6032
    9DOPE    HB 1050   5.303   6.069  17.338 -0.6190  1.4190 -0.1677
    9DOPE    C2 1051   5.136   6.019  17.212  0.4989 -0.3014 -0.6536
    9DOPE    HS 1052   5.202   5.994  17.126  0.9534 -0.4570 -0.2688
    9DOPE   O21 1053   5.066   6.148  17.181 -0.6668  0.0323  0.2892
    9DOPE   C21 1054   5.149   6.241  17.139 -0.1856 -0.1216 -0.6867
    9DOPE   O22 1055   5.267   6.245  17.147 -0.0579  0.1584  0.5155
    9DOPE   C22 1056   5.064   6.351  17.067  0.8352  0.8945  0.3022
    9DOPE   H2R 1057   5.135   6.426  17.028 -0.0149  0.2132 -2.7903
    9DOPE   H2S 1058   4.985   6.378  17.141 -0.7598 -1.5323 -0.3711
    9DOPE    C3 1059   5.026   5.910  17.211 -0.1077 -0.3475  0.3213
    9DOPE    HX 1060   4.965   5.921  17.303  0.9278  0.8725  0.8938
    9DOPE    HY 1061   5.075   5.812  17.229 -1.7410 -1.0214  1.3690
    9DOPE   O31 1062   4.950   5.902  17.082 -0.2544  0.1512  0.4128
    9DOPE   C31 1063   4.903   5.780  17.052 -0.3247 -0.2143 -0.1605
    9DOPE   O32 1064   4.899   5.680  17.123  0.2615  0.5980 -0.0198
    9DOPE   C32 1065   4.862   5.793  16.905 -0.5251  0.0531  0.5348
    9DOPE   H2X 1066   4.781   5.869  16.907 -0.9225 -0.2954 -1.0030
    9DOPE   H2Y 1067   4.954   5.826  16.852  0.7174  0.1818  2.6683
    9DOPE   C23 1068   4.983   6.289  16.952 -0.2399 -0.3708 -0.0878
    9DOPE   H3R 1069   4.915   6.363  16.906 -1.0398 -1.5754 -0.8733
    9DOPE   H3S 1070   4.923   6.203  16.988 -0.7223 -0.0000  0.0038
    9DOPE   C24 1071   5.065   6.235  16.836  0.1556 -0.6155  0.1750
    9DOPE   H4R 1072   5.118   6.144  16.872  1.7000 -0.7517 -2.1780
    9DOPE   H4S 1073   5.148   6.303  16.805 -1.2761  0.3961 -1.6165
    9DOPE   C25 1074   4.977   6.206  16.722 -0.2918 -0.1114 -0.3242
    9DOPE   H5R 1075   4.924   6.297  16.687 -0.5106 -0.0212  0.2222
    9DOPE   H5S 1076   4.900   6.137  16.763  0.3994  0.1495  1.5298
    9DOPE   C26 1077   5.041   6.124  16.609  0.2651 -0.5120  0.3536
    9DOPE   H6R 1078   5.034   6.019  16.644  0.5177 -0.8004 -0.4495
    9DOPE   H6S 1079   5.148   6.151  16.593  0.2869 -0.4749  0.5550
    9DOPE   C27 1080   4.962   6.124  16.473  0.3751 -0.0535  0.0553
    9DOPE   H7R 1081   4.859   6.095  16.503 -0.1017  3.0436  1.8196
    9DOPE   H7S 1082   5.010   6.051  16.404 -1.7377  0.4522 -2.0589
    9DOPE   C28 1083   4.950   6.252  16.397 -0.2689 -0.1246  0.1298
    9DOPE   H8R 1084   4.882   6.318  16.455 -1.1615  0.9309 -1.9985
    9DOPE   H8S 1085   4.889   6.219  16.310 -0.0601 -1.1755  0.3707
    9DOPE   C29 1086   5.071   6.331  16.356  0.5121  0.0900  0.1573
    9DOPE   H9R 1087   5.167   6.310  16.407  0.8922  1.8757  0.2241
    9DOPE  C210 1088   5.081   6.410  16.248 -0.2481  0.2155  0.9257
    9DOPE  H10R 1089   5.172   6.466  16.224 -0.7992  0.6748 -0.1965
    9DOPE  C211 1090   4.960   6.444  16.156  0.5262 -0.5061 -0.0846
    9DOPE  H11R 1091   4.930   6.549  16.173 -2.0042 -1.2328  0.4114
    9DOPE  H11S 1092   4.873   6.386  16.194 -2.2188  1.5100 -2.8624
    9DOPE  C212 1093   4.984   6.403  16.018  0.8174 -0.5038  0.0646
    9DOPE  H12R 1094   5.086   6.427  15.983  0.2562  0.7127 -0.8317
    9DOPE  H12S 1095   4.901   6.454  15.964  1.3032 -1.4182 -1.6199
    9DOPE  C213 1096   4.968   6.256  15.994  0.3183 -0.1983 -0.0105
    9DOPE  H13R 1097   5.038   6.205  16.063  0.5756  2.1690  1.5896
    9DOPE  H13S 1098   5.001   6.239  15.889  1.7645  1.6314  0.0948
    9DOPE  C214 1099   4.826   6.199  16.003 -0.3012 -0.1140 -0.1451
    9DOPE  H14R 1100   4.767   6.249  15.923 -2.1000 -0.7486  0.7185
    9DOPE  H14S 1101   4.791   6.233  16.103  0.7211 -0.4672  0.3421
    9DOPE  C215 1102   4.809   6.047  15.988  0.1517 -0.2782 -0.2480
    9DOPE  H15R 1103   4.711   6.004  16.018 -0.2913  1.4553  0.9566
    9DOPE  H15S 1104   4.883   5.994  16.050  0.8064  0.5775 -0.2910
    9DOPE  C216 1105   4.848   6.006  15.851 -0.2292  0.1369 -0.2234
    9DOPE  H16R 1106   4.944   6.055  15.824  1.3441 -2.2355  0.7698
    9DOPE  H16S 1107   4.765   6.049  15.790  0.3903 -0.3757 -1.4462
    9DOPE  C217 1108   4.859   5.852  15.835 -0.2682  0.3852 -0.0354
    9DOPE  H17R 1109   4.755   5.815  15.845 -0.1757  0.3431  0.7719
    9DOPE  H17S 1110   4.916   5.810  15.920 -1.3225 -0.1691  0.4110
    9DOPE  C218 1111   4.923   5.796  15.707  0.2990 -0.6268 -1.1633
    9DOPE  H18R 1112   4.867   5.828  15.617 -0.8613  0.0921 -0.2201
    9DOPE  H18S 1113   4.933   5.685  15.712  1.4084 -0.5112  0.1652
    9DOPE  H18T 1114   5.027   5.833  15.691 -0.0179  0.2309 -1.2745
    9DOPE   C33 1115   4.808   5.659  16.848 -0.2262 -0.4282 -0.0479
    9DOPE   H3X 1116   4.705   5.630  16.878 -1.4299  0.3955 -3.0429
    9DOPE   H3Y 1117   4.871   5.573  16.880 -0.2521 -0.2513  0.4824
    9DOPE   C34 1118   4.826   5.649  16.690 -0.0397  0.2548 -0.6652
    9DOPE   H4X 1119   4.926   5.694  16.670  2.0071 -4.1011 -1.4379
    9DOPE   H4Y 1120   4.838   5.541  16.667  0.2370  0.1807 -0.1959
    9DOPE   C35 1121   4.724   5.727  16.603  0.5652  0.0786  0.2264
    9DOPE   H5X 1122   4.720   5.828  16.649  0.4693  0.6390 -0.9700
    9DOPE   H5Y 1123   4.622   5.683  16.611 -0.3496  1.9488 -0.3366
    9DOPE   C36 1124   4.768   5.746  16.464  0.5772  0.4511 -0.6088
    9DOPE   H6X 1125   4.855   5.815  16.462  1.1724 -0.2591  0.2253
    9DOPE   H6Y 1126   4.695   5.807  16.407 -1.3213  2.0135  3.1756
    9DOPE   C37 1127   4.796   5.610  16.398 -0.4853 -0.7264  0.2177
    9DOPE   H7X 1128   4.901   5.593  16.433 -0.1544  1.2450  0.2674
    9DOPE   H7Y 1129   4.741   5.521  16.435  0.0932 -0.8865  0.7131
    9DOPE   C38 1130   4.803   5.620  16.242 -0.3892  0.6250  0.1042
    9DOPE   H8X 1131   4.871   5.541  16.204 -1.9346 -0.9364  0.4948
    9DOPE   H8Y 1132   4.859   5.713  16.218 -0.3690  1.3016  2.4902
    9DOPE   C39 1133   4.676   5.627  16.164 -0.0614 -0.5449 -0.1901
    9DOPE   H9X 1134   4.587   5.681  16.201  0.6487  0.8489 -0.4502
    9DOPE  C310 1135   4.651   5.568  16.052 -0.5098  0.7864 -0.3578
    9DOPE  H10X 1136   4.550   5.587  16.013 -0.7414  1.9418  0.7306
    9DOPE  C311 1137   4.751   5.471  15.976 -0.1752 -0.3889 -0.0303
    9DOPE  H11X 1138   4.855   5.511  15.985 -0.4052  0.7275 -1.8951
    9DOPE  H11Y 1139   4.742   5.369  16.019  2.2982 -0.9358 -0.6181
    9DOPE  C312 1140   4.728   5.465  15.824 -0.3095 -0.2794 -0.0344
    9DOPE  H12X 1141   4.746   5.569  15.789  2.7755  0.1061  2.1978
    9DOPE  H12Y 1142   4.623   5.439  15.800 -0.5195  0.9580 -0.5012
    9DOPE  C313 1143   4.820   5.355  15.751 -0.5409 -0.5708 -1.3987
    9DOPE  H13X 1144   4.925   5.390  15.752 -0.4811 -0.7077  0.3558
    9DOPE  H13Y 1145   4.794   5.255  15.791 -0.9195 -0.6873 -1.9384
    9DOPE  C314 1146   4.777   5.348  15.607  0.0654 -0.6430  0.1843
    9DOPE  H14X 1147   4.775   5.449  15.562  0.1672  0.1361  1.8492
    9DOPE  H14Y 1148   4.673   5.310  15.608  0.1524 -0.9915  2.4140
    9DOPE  C315 1149   4.873   5.263  15.519 -0.3653  0.1552  0.1083
    9DOPE  H15X 1150   4.978   5.293  15.536 -1.3840  2.8968  2.2890
    9DOPE  H15Y 1151   4.838   5.280  15.415  0.5914  0.6330 -0.1441
    9DOPE  C316 1152   4.870   5.111  15.553  0.6401 -0.0603 -0.3449
    9DOPE  H16X 1153   4.767   5.081  15.581  1.1520 -0.3527  1.3508
    9DOPE  H16Y 1154   4.924   5.094  15.649  0.8548  2.3144  0.0007
    9DOPE  C317 1155   4.934   5.020  15.450 -0.3052  0.0429  0.4665
    9DOPE  H17X 1156   5.044   5.032  15.440 -0.2296 -0.3758  0.7833
    9DOPE  H17Y 1157   4.932   4.914  15.482 -0.2534  0.3910  1.6527
    9DOPE  C318 1158   4.871   5.036  15.313 -0.6266 -0.0666 -0.1460
    9DOPE  H18X 1159   4.935   5.107  15.256  0.4345  0.3700  1.5295
    9DOPE  H18Y 1160   4.873   4.943  15.252  1.7368  1.1225 -2.0667
    9DOPE  H18Z 1161   4.769   5.078  15.317  0.0937  2.1534 -2.3897
   10DOPE     N 1162   4.331   1.452  17.281 -0.0096  0.2463  0.1780
   10DOPE   HN1 1163   4.295   1.444  17.184  1.1860  0.4863 -0.3043
   10DOPE   HN2 1164   4.370   1.548  17.297  0.1369  0.2680 -0.3010
   10DOPE   HN3 1165   4.409   1.384  17.286 -0.8208 -0.6285  1.9844
   10DOPE   C12 1166   4.244   1.423  17.397 -0.0263  0.0865  0.0471
   10DOPE  H12A 1167   4.183   1.333  17.376 -1.1918  0.9283 -0.2880
   10DOPE  H12B 1168   4.183   1.515  17.412  0.6838  0.8557 -1.5095
   10DOPE   C11 1169   4.324   1.401  17.527 -0.6001  0.0773  0.1984
   10DOPE  H11A 1170   4.382   1.307  17.521  0.1404  0.5488 -0.2642
   10DOPE  H11B 1171   4.252   1.391  17.610  0.8620 -0.7025  1.4147
   10DOPE     P 1172   4.528   1.494  17.661 -0.3230  0.1181 -0.1490
   10DOPE   O13 1173   4.479   1.404  17.767 -0.4686 -0.4000 -0.3386
   10DOPE   O14 1174   4.587   1.623  17.707  0.6794 -0.7012 -0.4664
   10DOPE   O11 1175   4.646   1.425  17.574 -0.1429 -0.1193  0.0808
   10DOPE   O12 1176   4.420   1.510  17.554 -0.5280  0.3380 -0.4805
   10DOPE    C1 1177   4.710   1.492  17.473  0.3692  0.1266 -0.5538
   10DOPE    HA 1178   4.820   1.490  17.492  0.5645 -0.0682 -1.6021
   10DOPE    HB 1179   4.676   1.597  17.464 -0.3692 -0.0268  0.4032
   10DOPE    C2 1180   4.711   1.428  17.328 -0.2018  0.0944  0.2794
   10DOPE    HS 1181   4.612   1.459  17.289 -0.2777  0.2457  0.5881
   10DOPE   O21 1182   4.723   1.289  17.339  0.6068  0.1011 -0.1348
   10DOPE   C21 1183   4.625   1.224  17.275 -0.2448  0.4122  0.5563
   10DOPE   O22 1184   4.517   1.267  17.247 -1.1354 -0.0730  0.1430
   10DOPE   C22 1185   4.671   1.073  17.278 -0.6837  0.0723 -0.3136
   10DOPE   H2R 1186   4.624   1.035  17.371 -1.9488  2.1953 -0.0093
   10DOPE   H2S 1187   4.780   1.076  17.299 -1.1294  0.6676  2.1852
   10DOPE    C3 1188   4.822   1.482  17.245 -0.2127  0.0492 -0.1144
   10DOPE    HX 1189   4.912   1.445  17.299  0.6330 -0.1283 -1.6038
   10DOPE    HY 1190   4.831   1.593  17.246  1.8049 -0.0464 -1.3311
   10DOPE   O31 1191   4.822   1.434  17.109  0.2432 -0.5671 -0.2378
   10DOPE   C31 1192   4.770   1.513  17.013 -0.5826  0.1581 -0.2071
   10DOPE   O32 1193   4.730   1.623  17.024 -0.1266  0.0025 -0.1971
   10DOPE   C32 1194   4.782   1.431  16.886  0.0027 -0.8977  0.2538
   10DOPE   H2X 1195   4.886   1.396  16.871  0.7054  2.0190 -2.7973
   10DOPE   H2Y 1196   4.714   1.345  16.906 -0.4351 -0.2199  1.8513
   10DOPE   C23 1197   4.628   0.981  17.159  0.1342  0.6658  0.1479
   10DOPE   H3R 1198   4.518   0.965  17.154  0.0823 -0.5078  2.9398
   10DOPE   H3S 1199   4.671   0.879  17.172  2.0181  1.3802 -0.0949
   10DOPE   C24 1200   4.664   1.047  17.022 -0.6902  0.1830  0.8237
   10DOPE   H4R 1201   4.774   1.045  17.008 -0.8493 -3.0565 -0.7743
   10DOPE   H4S 1202   4.620   1.149  17.022 -1.1784 -0.0218  0.2344
   10DOPE   C25 1203   4.594   0.983  16.897  0.3612 -0.5822 -0.6315
   10DOPE   H5R 1204   4.486   0.975  16.918  0.3695  0.2474 -0.2363
   10DOPE   H5S 1205   4.635   0.880  16.892 -0.5293 -0.9006 -1.7458
   10DOPE   C26 1206   4.606   1.061  16.772 -0.5817  0.3931 -0.2126
   10DOPE   H6R 1207   4.708   1.062  16.727 -0.6484 -1.2277 -0.4487
   10DOPE   H6S 1208   4.577   1.166  16.793  0.3952  0.8836 -1.2243
   10DOPE   C27 1209   4.516   1.027  16.653 -0.3156  0.6343 -0.0849
   10DOPE   H7R 1210   4.411   1.034  16.689 -0.5336 -1.5972 -0.1486
   10DOPE   H7S 1211   4.537   0.923  16.620  0.7834  1.0312 -0.6749
   10DOPE   C28 1212   4.522   1.115  16.529 -0.4583  0.0990  0.2828
   10DOPE   H8R 1213   4.521   1.218  16.571 -0.0308 -0.5459  1.9688
   10DOPE   H8S 1214   4.429   1.094  16.472 -0.4914 -1.9259  1.0022
   10DOPE   C29 1215   4.649   1.088  16.449  0.5458  0.3569 -0.0433
   10DOPE   H9R 1216   4.740   1.127  16.499  0.4868 -2.1263  2.2506
   10DOPE  C210 1217   4.664   1.022  16.331  0.1063 -0.5460 -0.4107
   10DOPE  H10R 1218   4.761   1.027  16.280 -0.5394  0.5367 -1.6202
   10DOPE  C211 1219   4.554   0.954  16.256 -0.3179 -0.3072 -0.1535
   10DOPE  H11R 1220   4.499   1.028  16.193 -2.4990  0.5961  2.6184
   10DOPE  H11S 1221   4.479   0.917  16.329 -1.7520 -0.6358 -1.7276
   10DOPE  C212 1222   4.584   0.835  16.167  0.1079  0.9374 -0.1027
   10DOPE  H12R 1223   4.486   0.792  16.135  0.3072  1.8346 -2.0410
   10DOPE  H12S 1224   4.632   0.757  16.229 -1.5847 -2.1051 -2.3228
   10DOPE  C213 1225   4.653   0.871  16.030  0.0085 -0.5448 -0.5134
   10DOPE  H13R 1226   4.755   0.908  16.056 -0.5184 -2.0692  5.0160
   10DOPE  H13S 1227   4.590   0.943  15.973 -2.1619 -1.4091  0.6851
   10DOPE  C214 1228   4.662   0.751  15.936 -0.0255 -0.6466 -0.6697
   10DOPE  H14R 1229   4.561   0.706  15.921 -1.0068  0.3275  2.1652
   10DOPE  H14S 1230   4.714   0.682  16.006  0.3704 -0.6705 -0.9882
   10DOPE  C215 1231   4.748   0.760  15.815 -0.1900 -0.2782  0.6555
   10DOPE  H15R 1232   4.846   0.811  15.827 -1.7828  2.5592  2.7493
   10DOPE  H15S 1233   4.696   0.832  15.747 -0.5556  1.2112  2.4312
   10DOPE  C216 1234   4.780   0.622  15.753 -0.3726  0.3148  0.2839
   10DOPE  H16R 1235   4.709   0.548  15.797  0.8811 -1.1793 -0.1345
   10DOPE  H16S 1236   4.881   0.589  15.787 -0.4218 -0.1303  0.0099
   10DOPE  C217 1237   4.762   0.606  15.606  0.7421 -1.1766 -0.2587
   10DOPE  H17R 1238   4.665   0.652  15.578  0.8991 -0.0452  0.9536
   10DOPE  H17S 1239   4.749   0.499  15.580  0.1365 -0.7832 -1.6940
   10DOPE  C218 1240   4.874   0.679  15.529  0.1003 -0.1105 -0.0794
   10DOPE  H18R 1241   4.961   0.636  15.585 -1.4733  0.8368  3.3865
   10DOPE  H18S 1242   4.857   0.788  15.528  1.0198  0.0368 -1.1068
   10DOPE  H18T 1243   4.876   0.644  15.424  2.2311  1.1677 -0.5281
   10DOPE   C33 1244   4.756   1.524  16.769  0.6227 -0.2153  0.4348
   10DOPE   H3X 1245   4.830   1.606  16.753  0.9203 -0.8021 -1.4844
   10DOPE   H3Y 1246   4.650   1.558  16.770  0.2034 -1.3962 -0.9735
   10DOPE   C34 1247   4.762   1.452  16.629 -0.5578  0.1374 -0.8241
   10DOPE   H4X 1248   4.868   1.426  16.609 -0.3373  0.8557 -0.6328
   10DOPE   H4Y 1249   4.696   1.364  16.644 -1.7851  1.0447 -0.6973
   10DOPE   C35 1250   4.711   1.538  16.512 -0.2660  0.2498 -0.3223
   10DOPE   H5X 1251   4.753   1.641  16.503 -0.6974  0.4510 -0.0729
   10DOPE   H5Y 1252   4.602   1.554  16.531  0.0462  2.5908 -0.1631
   10DOPE   C36 1253   4.728   1.481  16.371  0.1202  0.1392  0.4178
   10DOPE   H6X 1254   4.701   1.376  16.394 -1.2471  0.4181  0.1423
   10DOPE   H6Y 1255   4.834   1.474  16.337  0.2319  1.6056  0.3745
   10DOPE   C37 1256   4.629   1.534  16.265  0.1415 -0.0222 -0.0291
   10DOPE   H7X 1257   4.526   1.512  16.302 -0.0124 -0.2574 -0.5862
   10DOPE   H7Y 1258   4.627   1.645  16.271 -2.9518 -0.0143  0.7401
   10DOPE   C38 1259   4.655   1.490  16.117  0.5503 -0.7691  0.2473
   10DOPE   H8X 1260   4.748   1.547  16.096 -0.0010 -0.2370 -0.8608
   10DOPE   H8Y 1261   4.572   1.524  16.051  0.3578 -0.3401  0.6999
   10DOPE   C39 1262   4.678   1.339  16.100 -1.0800 -0.0103 -0.1189
   10DOPE   H9X 1263   4.671   1.272  16.187  2.3796  0.3559  0.5645
   10DOPE  C310 1264   4.692   1.282  15.977  0.8779  0.3442 -0.2691
   10DOPE  H10X 1265   4.725   1.178  15.967  0.7641  0.1861  0.8517
   10DOPE  C311 1266   4.695   1.355  15.845  0.1067 -0.3222 -0.1569
   10DOPE  H11X 1267   4.713   1.462  15.868  2.7305 -0.8338  0.5933
   10DOPE  H11Y 1268   4.786   1.319  15.791  1.2822  2.9767 -0.6125
   10DOPE  C312 1269   4.560   1.342  15.771 -0.7581  0.9200 -0.4649
   10DOPE  H12X 1270   4.552   1.429  15.702  1.8116  1.4549 -0.1779
   10DOPE  H12Y 1271   4.480   1.359  15.847 -1.1013  0.0898 -0.6377
   10DOPE  C313 1272   4.543   1.208  15.700  0.0051 -0.3194  0.5398
   10DOPE  H13X 1273   4.551   1.122  15.769  1.1468 -1.1458 -0.5794
   10DOPE  H13Y 1274   4.438   1.206  15.664  0.1401 -1.6003  0.1526
   10DOPE  C314 1275   4.638   1.188  15.578  0.2242  0.0101  0.3292
   10DOPE  H14X 1276   4.746   1.182  15.605 -0.0121 -1.1446  1.0983
   10DOPE  H14Y 1277   4.619   1.269  15.505  0.7848 -0.4420 -0.3407
   10DOPE  C315 1278   4.622   1.052  15.495 -0.3164 -0.3198 -0.9873
   10DOPE  H15X 1279   4.524   1.055  15.443 -0.3759  2.0291 -0.8476
   10DOPE  H15Y 1280   4.639   0.963  15.559  0.8266  0.8098  0.3559
   10DOPE  C316 1281   4.736   1.045  15.390 -0.1980  0.6712  0.2625
   10DOPE  H16X 1282   4.831   1.028  15.446 -0.5795  0.8844  0.9992
   10DOPE  H16Y 1283   4.759   1.145  15.349  1.4945  0.7322  1.2663
   10DOPE  C317 1284   4.706   0.938  15.282 -0.8909 -0.0262 -0.0246
   10DOPE  H17X 1285   4.688   0.838  15.325 -2.0449  0.1693 -0.0199
   10DOPE  H17Y 1286   4.610   0.976  15.242 -0.5960  0.9504  0.1647
   10DOPE  C318 1287   4.814   0.928  15.172  0.6734  0.3431 -0.5899
   10DOPE  H18X 1288   4.783   0.866  15.085 -0.9641  2.2139 -1.4389
   10DOPE  H18Y 1289   4.826   1.033  15.139  1.2668  0.5989  0.3970
   10DOPE  H18Z 1290   4.908   0.896  15.222  0.5015 -1.3870 -1.3141
   11DOPE     N 1291   4.729   3.330  17.909 -0.7534  0.4160 -0.4445
   11DOPE   HN1 1292   4.730   3.254  17.980  0.1485 -0.8390 -1.7333
   11DOPE   HN2 1293   4.631   3.354  17.886  0.1196  1.6821 -3.3525
   11DOPE   HN3 1294   4.762   3.295  17.816  1.9252  2.3593 -0.3404
   11DOPE   C12 1295   4.816   3.447  17.950 -0.7942  0.9044  0.0719
   11DOPE  H12A 1296   4.919   3.413  17.969 -1.0186 -0.1523 -0.4879
   11DOPE  H12B 1297   4.787   3.489  18.049  2.9098 -0.6948  2.0126
   11DOPE   C11 1298   4.815   3.556  17.835 -0.4537  0.7684 -0.6180
   11DOPE  H11A 1299   4.826   3.502  17.739 -1.2689 -0.1864 -0.1938
   11DOPE  H11B 1300   4.905   3.621  17.841 -0.3325  0.6829 -1.4350
   11DOPE     P 1301   4.577   3.672  17.771  0.0540 -0.2526  0.1885
   11DOPE   O13 1302   4.538   3.808  17.802  0.0436 -0.0127  0.2197
   11DOPE   O14 1303   4.470   3.569  17.781 -0.0640 -0.2253 -0.2203
   11DOPE   O11 1304   4.643   3.670  17.633 -0.2543  0.4152 -0.0553
   11DOPE   O12 1305   4.696   3.633  17.858  0.2702  0.5775  0.2944
   11DOPE    C1 1306   4.736   3.763  17.583  0.2917 -0.5785  0.9267
   11DOPE    HA 1307   4.838   3.738  17.621 -0.1928 -1.3308  1.7639
   11DOPE    HB 1308   4.704   3.864  17.615 -0.7004 -0.0744 -1.4282
   11DOPE    C2 1309   4.741   3.755  17.421 -0.2484  0.8110  0.6738
   11DOPE    HS 1310   4.813   3.833  17.389  1.4329 -2.0049 -3.2609
   11DOPE   O21 1311   4.613   3.765  17.357  0.6222  0.4800 -0.2190
   11DOPE   C21 1312   4.563   3.884  17.354 -0.3458 -0.6327 -0.3311
   11DOPE   O22 1313   4.622   3.982  17.390  0.4454  0.3763  0.1731
   11DOPE   C22 1314   4.421   3.883  17.301  0.0588  0.5543 -0.6597
   11DOPE   H2R 1315   4.358   3.901  17.390  0.3145 -0.7530 -0.1853
   11DOPE   H2S 1316   4.392   3.781  17.266  0.4735 -0.2685  1.2387
   11DOPE    C3 1317   4.810   3.621  17.362 -0.6004  0.5491 -0.6563
   11DOPE    HX 1318   4.748   3.536  17.400  0.2663 -0.0786 -0.6202
   11DOPE    HY 1319   4.912   3.602  17.402 -0.7789 -0.3577 -0.6108
   11DOPE   O31 1320   4.817   3.622  17.224 -0.4521 -0.1834  0.2470
   11DOPE   C31 1321   4.782   3.518  17.152  0.6639  0.3466  0.0344
   11DOPE   O32 1322   4.741   3.414  17.202 -0.4289 -0.1310  0.7757
   11DOPE   C32 1323   4.792   3.536  17.000 -0.4754  1.9228  0.1913
   11DOPE   H2X 1324   4.704   3.601  16.977 -3.1921 -0.7733  2.0920
   11DOPE   H2Y 1325   4.882   3.594  16.973  1.0863 -0.9464 -1.1980
   11DOPE   C23 1326   4.397   3.984  17.188  0.8573 -0.6141 -0.2422
   11DOPE   H3R 1327   4.412   4.090  17.217 -0.2750  0.3205 -2.8084
   11DOPE   H3S 1328   4.287   3.979  17.172  0.3395  1.7225  2.0700
   11DOPE   C24 1329   4.471   3.958  17.054  0.2904  0.3214  0.0364
   11DOPE   H4R 1330   4.503   3.852  17.045  1.0883  0.4968  0.6971
   11DOPE   H4S 1331   4.567   4.014  17.046  0.4233  0.1774  0.6335
   11DOPE   C25 1332   4.383   4.002  16.942 -0.2670 -0.6219 -0.2406
   11DOPE   H5R 1333   4.374   4.111  16.959 -1.4098 -0.4885 -1.4772
   11DOPE   H5S 1334   4.282   3.958  16.960 -0.4965 -0.2337 -0.5691
   11DOPE   C26 1335   4.427   3.986  16.799 -0.3199 -0.2628  0.5118
   11DOPE   H6R 1336   4.527   4.033  16.781  0.6310 -0.4884  4.4408
   11DOPE   H6S 1337   4.359   4.021  16.718  0.5534 -1.7925 -0.9640
   11DOPE   C27 1338   4.450   3.835  16.774  0.3231 -0.5618 -0.5582
   11DOPE   H7R 1339   4.366   3.783  16.824 -1.0112  0.3699 -1.7732
   11DOPE   H7S 1340   4.547   3.799  16.817 -0.2436 -0.2629  1.0539
   11DOPE   C28 1341   4.444   3.808  16.617 -0.2712  0.1015 -0.2577
   11DOPE   H8R 1342   4.348   3.836  16.568 -0.9592 -1.1902  0.2803
   11DOPE   H8S 1343   4.451   3.698  16.597 -0.2070  0.1004 -0.2274
   11DOPE   C29 1344   4.550   3.882  16.546 -0.3776 -0.2055 -0.4046
   11DOPE   H9R 1345   4.650   3.838  16.560 -1.4026 -2.2284  1.0063
   11DOPE  C210 1346   4.537   3.969  16.444  0.2330  0.1519  0.2306
   11DOPE  H10R 1347   4.629   3.997  16.390  0.0066 -1.1489 -0.8993
   11DOPE  C211 1348   4.409   4.010  16.364 -0.7455  0.3484 -0.4696
   11DOPE  H11R 1349   4.401   4.120  16.360 -1.2214  0.3007 -1.0657
   11DOPE  H11S 1350   4.321   3.991  16.428 -1.2296  0.1263 -1.1821
   11DOPE  C212 1351   4.376   3.940  16.233  0.2909  0.0977  0.1484
   11DOPE  H12R 1352   4.270   3.960  16.206 -0.2540 -1.4256  1.0151
   11DOPE  H12S 1353   4.388   3.830  16.248 -0.8964 -0.0429  0.2335
   11DOPE  C213 1354   4.458   3.986  16.104  0.1848 -0.5547 -0.6536
   11DOPE  H13R 1355   4.416   3.924  16.023 -0.1318 -0.9823 -0.1713
   11DOPE  H13S 1356   4.567   3.970  16.116 -0.4563 -3.9964  2.0344
   11DOPE  C214 1357   4.431   4.137  16.087 -0.0934 -0.1407  0.4353
   11DOPE  H14R 1358   4.455   4.194  16.179 -1.9228 -0.6809  1.2873
   11DOPE  H14S 1359   4.324   4.157  16.064 -0.2453 -0.2759  1.0137
   11DOPE  C215 1360   4.527   4.187  15.978  0.1500  0.2718 -1.0640
   11DOPE  H15R 1361   4.521   4.117  15.892  0.0909 -1.7401  0.4894
   11DOPE  H15S 1362   4.632   4.185  16.014 -0.1499 -1.1181 -0.1894
   11DOPE  C216 1363   4.478   4.330  15.937  0.1683 -0.1791 -0.2316
   11DOPE  H16R 1364   4.495   4.404  16.018  0.7226 -1.3405  0.7457
   11DOPE  H16S 1365   4.371   4.333  15.905  0.3398  0.2157 -0.7725
   11DOPE  C217 1366   4.559   4.382  15.811  0.7268 -0.2017 -0.5176
   11DOPE  H17R 1367   4.666   4.382  15.839  1.2577 -2.5742 -2.2193
   11DOPE  H17S 1368   4.517   4.484  15.794  0.1898  0.4370  3.6460
   11DOPE  C218 1369   4.541   4.287  15.691 -0.1987  1.1910  0.1257
   11DOPE  H18R 1370   4.586   4.186  15.702 -1.8543  0.4577  0.4975
   11DOPE  H18S 1371   4.589   4.329  15.600 -1.0611  0.8939 -0.4824
   11DOPE  H18T 1372   4.434   4.274  15.663  0.2413 -0.0560 -1.0780
   11DOPE   C33 1373   4.781   3.407  16.920 -0.0101 -0.1282  0.1388
   11DOPE   H3X 1374   4.675   3.374  16.921  0.5102 -1.9037  0.2619
   11DOPE   H3Y 1375   4.848   3.327  16.957  0.2406 -0.1282 -0.3074
   11DOPE   C34 1376   4.825   3.419  16.770  0.1187  0.0929  0.6685
   11DOPE   H4X 1377   4.917   3.481  16.768 -0.8214  1.5511 -1.4175
   11DOPE   H4Y 1378   4.854   3.318  16.735 -3.4538 -1.2314  1.1238
   11DOPE   C35 1379   4.704   3.456  16.676  0.0166 -0.4952  0.3641
   11DOPE   H5X 1380   4.667   3.559  16.699 -2.4035 -0.5873 -2.4733
   11DOPE   H5Y 1381   4.629   3.374  16.682  0.1865 -0.7986 -1.1889
   11DOPE   C36 1382   4.741   3.466  16.525 -0.1383 -0.4110  0.7809
   11DOPE   H6X 1383   4.797   3.373  16.500  3.4861  1.9812 -0.8953
   11DOPE   H6Y 1384   4.823   3.540  16.516  0.7305 -1.3168  1.0860
   11DOPE   C37 1385   4.623   3.498  16.428  0.7181 -0.4727 -0.0406
   11DOPE   H7X 1386   4.527   3.452  16.459  0.6131 -1.8561 -2.1700
   11DOPE   H7Y 1387   4.598   3.606  16.435 -0.1566 -0.6557 -0.1931
   11DOPE   C38 1388   4.658   3.457  16.280  0.1127 -0.4537  0.6400
   11DOPE   H8X 1389   4.574   3.474  16.209 -0.4172  1.1706  1.6011
   11DOPE   H8Y 1390   4.658   3.346  16.292  2.0710 -0.7046 -1.1347
   11DOPE   C39 1391   4.795   3.508  16.225  0.1105  0.4132 -0.0095
   11DOPE   H9X 1392   4.881   3.476  16.286 -0.4519  0.8274  1.0152
   11DOPE  C310 1393   4.813   3.596  16.121  1.1787 -0.0627 -0.3589
   11DOPE  H10X 1394   4.910   3.631  16.083  0.5641  2.0751 -0.1272
   11DOPE  C311 1395   4.698   3.650  16.039  0.0985 -0.2282 -1.4479
   11DOPE  H11X 1396   4.608   3.586  16.027 -0.8799  0.9229 -0.5068
   11DOPE  H11Y 1397   4.666   3.733  16.107  1.2424  1.4844 -2.9118
   11DOPE  C312 1398   4.745   3.726  15.910  0.4745  0.6097  0.4170
   11DOPE  H12X 1399   4.834   3.790  15.933 -0.2003  2.0825 -0.8979
   11DOPE  H12Y 1400   4.659   3.776  15.861 -0.9966 -1.4908  0.7364
   11DOPE  C313 1401   4.789   3.626  15.808  0.7808  0.7608 -0.3122
   11DOPE  H13X 1402   4.876   3.565  15.842  1.2826  0.6976 -1.6347
   11DOPE  H13Y 1403   4.710   3.550  15.789  0.9168  1.0071 -2.0320
   11DOPE  C314 1404   4.818   3.684  15.670  0.0901 -0.8427  1.0955
   11DOPE  H14X 1405   4.863   3.781  15.697 -1.4950  0.5502 -0.9466
   11DOPE  H14Y 1406   4.721   3.713  15.626  0.4204  2.8307  2.4615
   11DOPE  C315 1407   4.906   3.595  15.589  0.0274  0.0409  0.7037
   11DOPE  H15X 1408   4.871   3.489  15.594  1.8737 -0.6822 -0.8378
   11DOPE  H15Y 1409   5.003   3.586  15.643  0.4658  0.9578  0.0845
   11DOPE  C316 1410   4.923   3.634  15.445  0.3992 -0.2866 -0.1048
   11DOPE  H16X 1411   4.974   3.733  15.441 -0.6166  0.2161 -1.3045
   11DOPE  H16Y 1412   4.819   3.648  15.409  0.1247 -0.0926  0.7335
   11DOPE  C317 1413   4.994   3.537  15.354 -0.8542 -0.2804  0.1911
   11DOPE  H17X 1414   4.948   3.436  15.350  2.1212 -1.7676  0.7214
   11DOPE  H17Y 1415   4.997   3.575  15.250  3.7272 -0.9318 -0.0975
   11DOPE  C318 1416   5.140   3.525  15.399  0.2761 -0.4453 -0.2792
   11DOPE  H18X 1417   5.155   3.508  15.508  0.5284 -2.0307 -0.5393
   11DOPE  H18Y 1418   5.186   3.441  15.342  0.3372 -1.0101  0.5870
   11DOPE  H18Z 1419   5.207   3.613  15.385  2.5084 -1.5268  2.6139
   12DOPE     N 1420   0.274   1.141  17.911  0.1564  0.2423  0.0626
   12DOPE   HN1 1421   0.340   1.168  17.987  1.2411 -1.1432 -0.3378
   12DOPE   HN2 1422   0.195   1.207  17.897  1.2077  1.5931  0.1944
   12DOPE   HN3 1423   0.233   1.050  17.937 -0.2320  0.7690  1.3948
   12DOPE   C12 1424   0.342   1.120  17.779 -0.1141  0.0279 -0.2027
   12DOPE  H12A 1425   0.408   1.207  17.758  0.5099 -1.0247 -3.0831
   12DOPE  H12B 1426   0.271   1.122  17.694  0.6519  1.6125 -0.8490
   12DOPE   C11 1427   0.429   0.999  17.793 -0.4875 -0.1258  0.3982
   12DOPE  H11A 1428   0.487   0.982  17.700  0.0228 -0.4509  0.7766
   12DOPE  H11B 1429   0.355   0.916  17.798  0.8722 -1.4318 -0.2724
   12DOPE     P 1430   0.527   0.875  18.010  0.0158  0.4562  0.2675
   12DOPE   O13 1431   0.444   0.907  18.131 -0.0788  0.0294  0.3135
   12DOPE   O14 1432   0.673   0.843  18.020  0.0861 -0.1087 -0.5467
   12DOPE   O11 1433   0.466   0.752  17.932 -0.1507 -0.3049  0.8927
   12DOPE   O12 1434   0.510   1.005  17.914  0.0314 -0.1339  0.3423
   12DOPE    C1 1435   0.529   0.697  17.820  0.5294 -0.3539 -0.3236
   12DOPE    HA 1436   0.635   0.673  17.838  0.7937  0.7786 -0.3028
   12DOPE    HB 1437   0.519   0.762  17.730  2.6771 -1.9438 -1.8230
   12DOPE    C2 1438   0.461   0.562  17.776 -0.3224 -0.3288  0.5238
   12DOPE    HS 1439   0.414   0.517  17.866  0.5767 -1.2226  0.5571
   12DOPE   O21 1440   0.564   0.477  17.724  0.0878 -0.6644 -0.3378
   12DOPE   C21 1441   0.531   0.350  17.692 -0.0947  0.0457  0.2850
   12DOPE   O22 1442   0.420   0.300  17.705 -1.0765  0.8813  0.7315
   12DOPE   C22 1443   0.645   0.278  17.624  0.0925  0.6554  0.3176
   12DOPE   H2R 1444   0.711   0.234  17.702  1.0134 -1.1589 -1.3767
   12DOPE   H2S 1445   0.710   0.357  17.580  0.1718  2.3024  3.2038
   12DOPE    C3 1446   0.345   0.591  17.671 -1.3852 -0.2840 -0.0271
   12DOPE    HX 1447   0.286   0.679  17.706  1.7133  1.8700  0.1630
   12DOPE    HY 1448   0.283   0.499  17.659  0.5256 -1.3694 -2.4436
   12DOPE   O31 1449   0.406   0.627  17.543 -0.3384 -0.1690 -0.4875
   12DOPE   C31 1450   0.322   0.648  17.451 -0.3560 -1.1379 -0.0955
   12DOPE   O32 1451   0.199   0.638  17.452 -0.1789  0.7620  0.4746
   12DOPE   C32 1452   0.404   0.677  17.322  0.4089  0.5078  0.0012
   12DOPE   H2X 1453   0.371   0.777  17.287  2.0328  1.2741  0.5579
   12DOPE   H2Y 1454   0.512   0.672  17.349  0.5180 -1.5954 -0.6161
   12DOPE   C23 1455   0.595   0.163  17.530  0.2426  0.2308  0.3989
   12DOPE   H3R 1456   0.532   0.097  17.593 -2.7226  2.6135  0.1557
   12DOPE   H3S 1457   0.689   0.116  17.494 -0.1649 -1.7473  1.7644
   12DOPE   C24 1458   0.521   0.198  17.403  1.0080  0.2909  0.6660
   12DOPE   H4R 1459   0.515   0.309  17.406 -0.8136  0.2269  3.9466
   12DOPE   H4S 1460   0.412   0.176  17.399  1.2730 -1.1803  0.7915
   12DOPE   C25 1461   0.587   0.144  17.276 -0.3773  0.1808 -0.0829
   12DOPE   H5R 1462   0.560   0.037  17.263 -0.6565  0.1318  0.8419
   12DOPE   H5S 1463   0.697   0.160  17.283 -0.5564  1.7521 -0.5099
   12DOPE   C26 1464   0.544   0.216  17.145 -0.0679 -0.6241 -0.4603
   12DOPE   H6R 1465   0.534   0.327  17.153  0.0332 -0.3559 -3.0794
   12DOPE   H6S 1466   0.448   0.172  17.113 -1.3215  1.3712  0.3472
   12DOPE   C27 1467   0.654   0.206  17.030 -0.0724 -0.9740 -0.9724
   12DOPE   H7R 1468   0.679   0.099  17.012  0.6032 -0.7020 -1.7322
   12DOPE   H7S 1469   0.751   0.239  17.072 -0.3894 -1.2673  0.0235
   12DOPE   C28 1470   0.631   0.279  16.901  0.6430  0.0648  0.7701
   12DOPE   H8R 1471   0.726   0.274  16.845  0.3583 -0.7912  0.3466
   12DOPE   H8S 1472   0.625   0.389  16.918  0.1305  0.3877 -1.2797
   12DOPE   C29 1473   0.504   0.219  16.840  0.0991  0.1412  1.4999
   12DOPE   H9R 1474   0.406   0.222  16.890 -0.4848 -1.7830  0.5871
   12DOPE  C210 1475   0.503   0.155  16.719 -0.2528  0.4187 -0.1825
   12DOPE  H10R 1476   0.405   0.128  16.676 -0.5164  1.1584 -0.0695
   12DOPE  C211 1477   0.619   0.139  16.627 -0.3772  0.3153 -0.3469
   12DOPE  H11R 1478   0.626   0.037  16.584 -1.9738  0.6831 -1.5877
   12DOPE  H11S 1479   0.713   0.170  16.675 -0.7294  0.5617  0.1889
   12DOPE  C212 1480   0.595   0.233  16.500 -0.1546 -0.8037  0.0659
   12DOPE  H12R 1481   0.697   0.261  16.465 -0.2074  0.2062  0.6674
   12DOPE  H12S 1482   0.540   0.322  16.537  1.1771 -0.0247  0.2441
   12DOPE  C213 1483   0.510   0.164  16.385  0.1957  0.1077  0.6332
   12DOPE  H13R 1484   0.415   0.122  16.426  0.9534 -2.3136  0.0566
   12DOPE  H13S 1485   0.561   0.078  16.338  0.7333  0.8455 -0.1567
   12DOPE  C214 1486   0.485   0.253  16.260 -0.5863  1.0905 -0.1439
   12DOPE  H14R 1487   0.586   0.292  16.232 -0.6403  1.3023 -0.0387
   12DOPE  H14S 1488   0.418   0.336  16.289 -0.7597  1.0048 -0.2983
   12DOPE  C215 1489   0.428   0.174  16.137  0.0686  0.5419 -0.4689
   12DOPE  H15R 1490   0.374   0.080  16.163  2.0269 -1.8660 -4.2566
   12DOPE  H15S 1491   0.517   0.134  16.084 -0.3455  0.4482 -1.1013
   12DOPE  C216 1492   0.352   0.266  16.047  0.5775  0.3062 -0.1876
   12DOPE  H16R 1493   0.280   0.313  16.117 -1.4861 -2.9326  0.0523
   12DOPE  H16S 1494   0.275   0.228  15.976 -1.9193  4.5424 -0.1300
   12DOPE  C217 1495   0.432   0.367  15.973  0.0317  0.5848  0.3261
   12DOPE  H17R 1496   0.505   0.415  16.042 -0.5987  0.3604  1.1573
   12DOPE  H17S 1497   0.364   0.441  15.926 -2.2509 -1.9219 -0.5568
   12DOPE  C218 1498   0.524   0.294  15.867  0.4186 -0.2631  0.2394
   12DOPE  H18R 1499   0.465   0.247  15.786  1.6175 -0.2283 -0.6908
   12DOPE  H18S 1500   0.583   0.210  15.909 -4.1511 -4.1383 -0.2800
   12DOPE  H18T 1501   0.589   0.367  15.813 -1.3862  0.4509 -1.0919
   12DOPE   C33 1502   0.380   0.561  17.218  0.7915  0.3270  0.0655
   12DOPE   H3X 1503   0.373   0.463  17.272 -0.5302  0.1950 -0.3256
   12DOPE   H3Y 1504   0.469   0.557  17.151  1.5248  2.2974  0.8535
   12DOPE   C34 1505   0.251   0.580  17.141  0.9628 -0.1164  0.0607
   12DOPE   H4X 1506   0.175   0.570  17.221  1.3520  3.5343  1.0507
   12DOPE   H4Y 1507   0.241   0.685  17.106 -0.3040 -0.1513  0.2761
   12DOPE   C35 1508   0.232   0.477  17.036 -0.1742  0.2881  0.2734
   12DOPE   H5X 1509   0.241   0.370  17.066  3.8431  0.6071  0.7116
   12DOPE   H5Y 1510   0.316   0.487  16.964  0.8802 -2.1742  1.0399
   12DOPE   C36 1511   0.109   0.494  16.941  0.7877  0.0673 -0.7698
   12DOPE   H6X 1512   0.121   0.600  16.908  0.5035  0.8272  1.3401
   12DOPE   H6Y 1513   0.019   0.492  17.006  0.4164 -0.8090 -1.3095
   12DOPE   C37 1514   0.097   0.401  16.828  0.7459 -0.3450 -0.0650
   12DOPE   H7X 1515   0.114   0.295  16.858 -2.4524 -1.2572 -1.0664
   12DOPE   H7Y 1516  -0.009   0.405  16.795  0.0563 -2.5930  1.5979
   12DOPE   C38 1517   0.193   0.433  16.707 -0.3545 -0.3525 -0.4887
   12DOPE   H8X 1518   0.299   0.444  16.737 -0.4416 -0.2633 -0.2083
   12DOPE   H8Y 1519   0.159   0.533  16.672  1.2079  0.8389  1.2520
   12DOPE   C39 1520   0.178   0.335  16.592  0.8725  0.0658  0.0622
   12DOPE   H9X 1521   0.179   0.233  16.633  1.3240  1.2282  3.2117
   12DOPE  C310 1522   0.106   0.352  16.476  0.4056  0.3991 -0.4660
   12DOPE  H10X 1523   0.110   0.267  16.406  0.2761 -0.8899  1.0203
   12DOPE  C311 1524   0.053   0.482  16.421  0.3201  0.4047 -0.3340
   12DOPE  H11X 1525  -0.057   0.489  16.431  0.4100  0.8357  0.4304
   12DOPE  H11Y 1526   0.109   0.565  16.469 -1.5748  1.5057  0.0424
   12DOPE  C312 1527   0.091   0.497  16.271 -0.0006 -0.3665  0.2364
   12DOPE  H12X 1528   0.200   0.476  16.268  0.1524  0.5239 -2.3451
   12DOPE  H12Y 1529   0.097   0.603  16.239  0.0060 -0.5981 -0.5554
   12DOPE  C313 1530   0.012   0.413  16.179 -0.0743  0.6695  0.3485
   12DOPE  H13X 1531   0.040   0.306  16.192 -0.8190  0.3531 -0.5347
   12DOPE  H13Y 1532  -0.094   0.429  16.207 -0.1531  2.8270 -0.9928
   12DOPE  C314 1533   0.043   0.461  16.032  0.3753 -0.2722  0.3338
   12DOPE  H14X 1534   0.153   0.459  16.026  0.4363  1.3139  0.4796
   12DOPE  H14Y 1535   0.012   0.567  16.020  0.2998 -0.3388 -0.1047
   12DOPE  C315 1536  -0.009   0.379  15.911  0.1643  0.0704 -0.1947
   12DOPE  H15X 1537  -0.108   0.422  15.886 -0.9824 -2.0584  0.4220
   12DOPE  H15Y 1538  -0.020   0.273  15.943 -0.7812  0.0149 -0.6893
   12DOPE  C316 1539   0.077   0.388  15.784  0.2315 -0.0865 -0.0334
   12DOPE  H16X 1540   0.179   0.350  15.806  0.0001 -0.0465  1.2121
   12DOPE  H16Y 1541   0.082   0.497  15.765 -1.1815  0.0960  0.5035
   12DOPE  C317 1542   0.006   0.319  15.670 -0.1054  0.0477 -0.4367
   12DOPE  H17X 1543  -0.014   0.214  15.699  0.1190  0.4795  1.3552
   12DOPE  H17Y 1544  -0.093   0.367  15.663  1.2088  3.0874  0.1949
   12DOPE  C318 1545   0.083   0.317  15.539  0.1264 -0.3266  0.1437
   12DOPE  H18X 1546   0.051   0.227  15.481 -1.3418 -0.9153  1.7793
   12DOPE  H18Y 1547   0.069   0.415  15.488 -1.9647 -0.7013 -0.0965
   12DOPE  H18Z 1548   0.193   0.300  15.543 -0.1522 -2.1557  0.9652
   13DOPE     N 1549   5.259   3.182  17.837  0.0399 -0.1080  0.5316
   13DOPE   HN1 1550   5.220   3.276  17.862  0.2045  0.7814 -2.2717
   13DOPE   HN2 1551   5.182   3.116  17.818  0.0254 -0.7908  2.6645
   13DOPE   HN3 1552   5.303   3.138  17.920 -1.2704 -0.9121  0.8177
   13DOPE   C12 1553   5.357   3.205  17.732 -0.2034  0.5907  0.2407
   13DOPE  H12A 1554   5.441   3.136  17.754 -1.1604 -0.4300  0.8696
   13DOPE  H12B 1555   5.399   3.306  17.746  2.0737 -0.3022  0.3168
   13DOPE   C11 1556   5.291   3.187  17.596  0.5110 -0.6121  0.2890
   13DOPE  H11A 1557   5.367   3.233  17.529  0.1747 -1.1272 -0.4492
   13DOPE  H11B 1558   5.197   3.246  17.593  0.4946 -0.6137  0.6918
   13DOPE     P 1559   5.147   2.971  17.593  0.2029 -0.2831 -0.1051
   13DOPE   O13 1560   5.113   2.983  17.738  0.0419 -0.2321  0.7470
   13DOPE   O14 1561   5.155   2.829  17.542 -0.1577  0.5717  0.3271
   13DOPE   O11 1562   5.050   3.060  17.509  0.2771  0.1619 -0.0327
   13DOPE   O12 1563   5.281   3.048  17.558 -0.2443  0.1475  0.0155
   13DOPE    C1 1564   5.056   3.056  17.363 -0.3792 -0.2822 -0.6327
   13DOPE    HA 1565   5.159   3.076  17.325  1.2675 -4.0483  1.2918
   13DOPE    HB 1566   4.987   3.136  17.329  0.4373  2.2229  3.0259
   13DOPE    C2 1567   4.999   2.929  17.294  0.2044 -0.4066  0.5591
   13DOPE    HS 1568   4.945   2.870  17.371  0.1236  1.8441  2.3185
   13DOPE   O21 1569   5.113   2.855  17.241  0.6618  0.1452  0.0762
   13DOPE   C21 1570   5.093   2.731  17.233  0.1851 -0.6344  0.6274
   13DOPE   O22 1571   4.985   2.675  17.247 -0.9455  0.4108 -0.1365
   13DOPE   C22 1572   5.220   2.658  17.199 -0.3254  0.6015  0.1307
   13DOPE   H2R 1573   5.249   2.596  17.287  0.6501 -1.3909 -1.5257
   13DOPE   H2S 1574   5.301   2.728  17.168  1.2481  0.5405  3.5372
   13DOPE    C3 1575   4.898   2.956  17.181 -0.2755 -0.5717 -0.1253
   13DOPE    HX 1576   4.803   3.010  17.204 -0.6681 -0.9587 -0.8033
   13DOPE    HY 1577   4.851   2.859  17.155 -1.4178 -0.5953  1.8515
   13DOPE   O31 1578   4.964   3.022  17.062  0.5988 -0.8309 -0.3200
   13DOPE   C31 1579   4.920   2.980  16.950  0.1911 -0.7974 -0.3945
   13DOPE   O32 1580   4.839   2.890  16.934 -0.4083 -0.6205  0.1124
   13DOPE   C32 1581   5.002   3.046  16.839 -1.0218  0.0543  0.0182
   13DOPE   H2X 1582   4.958   3.143  16.805  1.1752  0.5433 -1.6474
   13DOPE   H2Y 1583   5.107   3.065  16.869 -1.2421  1.1693  0.1310
   13DOPE   C23 1584   5.185   2.559  17.088 -0.5163 -0.4529  0.4547
   13DOPE   H3R 1585   5.089   2.508  17.112 -1.2664  0.9770  0.6151
   13DOPE   H3S 1586   5.270   2.488  17.084  1.7007  1.7287  3.5815
   13DOPE   C24 1587   5.182   2.627  16.944  0.1077  0.2250  0.2116
   13DOPE   H4R 1588   5.136   2.728  16.951  1.5290  1.0341 -1.3311
   13DOPE   H4S 1589   5.122   2.569  16.870  0.4026 -1.4275  1.2120
   13DOPE   C25 1590   5.320   2.640  16.882 -0.2760  0.1661 -0.1288
   13DOPE   H5R 1591   5.359   2.537  16.876 -0.7840  0.0003 -0.6250
   13DOPE   H5S 1592   5.387   2.696  16.951  0.8007 -1.6963  0.3900
   13DOPE   C26 1593   5.314   2.690  16.739  0.3790 -0.8746  0.1074
   13DOPE   H6R 1594   5.419   2.698  16.703  0.4422 -1.3455  0.1836
   13DOPE   H6S 1595   5.274   2.793  16.737 -1.9639 -1.7087  1.0206
   13DOPE   C27 1596   5.231   2.602  16.642 -0.0120 -0.1394  0.8825
   13DOPE   H7R 1597   5.130   2.649  16.635  0.0584 -0.2498 -2.3955
   13DOPE   H7S 1598   5.223   2.498  16.681 -1.2832 -0.7578 -0.8971
   13DOPE   C28 1599   5.289   2.595  16.498  0.4266 -1.1003 -0.2430
   13DOPE   H8R 1600   5.223   2.525  16.444 -0.6420 -1.1699  1.1094
   13DOPE   H8S 1601   5.386   2.543  16.512  0.3432 -1.9457 -2.5050
   13DOPE   C29 1602   5.311   2.734  16.437  0.0370  0.4145  0.8356
   13DOPE   H9R 1603   5.293   2.818  16.506 -2.5788 -0.2236  1.0156
   13DOPE  C210 1604   5.328   2.754  16.304 -0.7822 -0.3441 -0.3068
   13DOPE  H10R 1605   5.343   2.850  16.253  2.6037 -0.8435 -0.4619
   13DOPE  C211 1606   5.326   2.648  16.203  0.1429  0.8165 -0.4865
   13DOPE  H11R 1607   5.224   2.603  16.209  0.6430 -0.2387  0.4202
   13DOPE  H11S 1608   5.400   2.571  16.231  0.7045  1.4715 -0.1557
   13DOPE  C212 1609   5.366   2.690  16.062  0.0304 -0.0595  0.2868
   13DOPE  H12R 1610   5.386   2.591  16.017  1.9278 -0.3479  1.6276
   13DOPE  H12S 1611   5.463   2.746  16.059  1.3490 -2.1967  0.9884
   13DOPE  C213 1612   5.254   2.767  15.990  0.4014 -0.4758  0.2374
   13DOPE  H13R 1613   5.253   2.877  16.005  1.4585 -0.1313 -1.8820
   13DOPE  H13S 1614   5.156   2.726  16.024  0.5622 -1.3445 -0.3019
   13DOPE  C214 1615   5.269   2.751  15.836  0.4036  0.6773  0.6210
   13DOPE  H14R 1616   5.270   2.641  15.823 -1.8134  0.6315  0.3964
   13DOPE  H14S 1617   5.366   2.785  15.794  0.7121 -1.6019 -0.7000
   13DOPE  C215 1618   5.146   2.814  15.764  0.7235 -0.2488  0.3224
   13DOPE  H15R 1619   5.159   2.924  15.763 -0.7304 -0.0557 -0.9012
   13DOPE  H15S 1620   5.049   2.794  15.814 -0.0642 -0.7893 -1.3594
   13DOPE  C216 1621   5.126   2.771  15.619 -0.3215 -0.0512 -0.1963
   13DOPE  H16R 1622   5.214   2.812  15.565  1.4972 -0.4460  2.2661
   13DOPE  H16S 1623   5.032   2.815  15.579  0.7039  0.9825 -1.5464
   13DOPE  C217 1624   5.125   2.620  15.588  0.0046 -0.4322  0.7308
   13DOPE  H17R 1625   5.067   2.566  15.666 -0.4332 -2.4584 -0.9217
   13DOPE  H17S 1626   5.223   2.568  15.591 -0.2189 -0.8730  0.4500
   13DOPE  C218 1627   5.050   2.579  15.460 -0.0305  0.3852  0.4418
   13DOPE  H18R 1628   5.057   2.638  15.366 -3.0503 -0.6620 -0.5446
   13DOPE  H18S 1629   4.941   2.571  15.476 -0.1129 -1.5895 -0.7358
   13DOPE  H18T 1630   5.081   2.476  15.433 -1.7523 -0.1724  0.4911
   13DOPE   C33 1631   5.002   2.957  16.705 -0.7694 -0.2632 -0.0202
   13DOPE   H3X 1632   4.900   2.922  16.676  0.1851 -0.8484 -2.9755
   13DOPE   H3Y 1633   5.058   2.863  16.724 -0.1550  0.0466 -0.3103
   13DOPE   C34 1634   5.044   3.044  16.587 -0.8502  0.1817 -0.0430
   13DOPE   H4X 1635   4.988   3.139  16.588  0.2054  0.8157  0.7601
   13DOPE   H4Y 1636   5.152   3.069  16.595 -0.0157 -1.8965 -3.0967
   13DOPE   C35 1637   5.019   2.985  16.447 -0.3481  0.3814  0.7588
   13DOPE   H5X 1638   4.911   2.959  16.450 -0.7221  1.8343  0.7194
   13DOPE   H5Y 1639   5.072   2.888  16.438 -0.2114  0.5023  0.2744
   13DOPE   C36 1640   5.040   3.085  16.336  0.2505  0.1206 -0.7441
   13DOPE   H6X 1641   5.143   3.123  16.355 -0.1773  0.4663  1.0235
   13DOPE   H6Y 1642   4.969   3.169  16.355 -0.7005 -1.3337  2.9629
   13DOPE   C37 1643   5.036   3.033  16.193  0.0690  0.0573  0.5230
   13DOPE   H7X 1644   5.093   2.938  16.195 -0.5844 -0.3706 -0.1546
   13DOPE   H7Y 1645   4.941   2.995  16.148 -0.2459  1.9907 -0.5692
   13DOPE   C38 1646   5.122   3.118  16.099 -0.7195  0.1947 -0.0076
   13DOPE   H8X 1647   5.156   3.049  16.019 -0.8508  0.9443 -0.7199
   13DOPE   H8Y 1648   5.220   3.146  16.144  0.4006 -1.3080 -1.3534
   13DOPE   C39 1649   5.046   3.239  16.047 -0.3987  0.2196  0.6292
   13DOPE   H9X 1650   4.972   3.275  16.119 -1.1192  0.3342 -0.1562
   13DOPE  C310 1651   5.059   3.298  15.924  0.5215  0.0122 -0.0020
   13DOPE  H10X 1652   4.989   3.377  15.893  2.1327  1.4820 -0.0681
   13DOPE  C311 1653   5.152   3.247  15.814  0.3092 -0.6621 -0.2626
   13DOPE  H11X 1654   5.239   3.306  15.780  0.6432 -1.8058 -1.4760
   13DOPE  H11Y 1655   5.202   3.151  15.840 -0.6376 -0.9107  0.7494
   13DOPE  C312 1656   5.062   3.221  15.694  0.3009 -0.8462  0.4406
   13DOPE  H12X 1657   5.015   3.317  15.663  2.8121  0.8221  1.4420
   13DOPE  H12Y 1658   4.979   3.149  15.703 -0.3118 -0.2550 -0.3188
   13DOPE  C313 1659   5.134   3.188  15.564  0.0160 -0.5553  0.2856
   13DOPE  H13X 1660   5.201   3.275  15.545 -0.1336 -0.1820  1.4000
   13DOPE  H13Y 1661   5.188   3.092  15.577 -1.1553 -1.0584  1.6621
   13DOPE  C314 1662   5.035   3.160  15.455 -0.2556  0.3205 -0.2587
   13DOPE  H14X 1663   4.950   3.230  15.470  0.3987  0.9265  0.7667
   13DOPE  H14Y 1664   4.975   3.067  15.465 -0.6685  0.6878  0.8676
   13DOPE  C315 1665   5.094   3.152  15.314 -0.3478  0.1779 -0.5682
   13DOPE  H15X 1666   5.167   3.069  15.316 -0.6152 -0.0537  1.2901
   13DOPE  H15Y 1667   5.142   3.248  15.283 -0.6954 -0.1567 -2.1797
   13DOPE  C316 1668   4.994   3.124  15.206 -0.0118  1.0360  0.3451
   13DOPE  H16X 1669   5.034   3.163  15.111  0.9092 -0.9253 -0.1358
   13DOPE  H16Y 1670   4.900   3.176  15.236  0.1893  1.1437  0.7999
   13DOPE  C317 1671   4.952   2.974  15.178  0.1104 -0.4660  0.2853
   13DOPE  H17X 1672   5.041   2.921  15.138  0.1959 -0.7843  0.8981
   13DOPE  H17Y 1673   4.924   2.932  15.277  2.3062  0.2358  1.2618
   13DOPE  C318 1674   4.835   2.952  15.077 -0.7030 -0.1229  0.9811
   13DOPE  H18X 1675   4.817   2.843  15.069 -1.9751  0.1811 -1.0402
   13DOPE  H18Y 1676   4.741   2.995  15.117 -1.7001 -2.8425  1.7629
   13DOPE  H18Z 1677   4.874   2.991  14.981 -2.3329 -0.1182  0.2894
   14DOPE     N 1678   1.801   6.348  17.995 -0.0738  0.4110  0.6697
   14DOPE   HN1 1679   1.806   6.253  18.037 -1.2307  0.8340  1.8264
   14DOPE   HN2 1680   1.892   6.399  18.003 -0.9436  2.0876  0.4505
   14DOPE   HN3 1681   1.730   6.406  18.045 -1.1474  0.5827 -0.9706
   14DOPE   C12 1682   1.764   6.344  17.851  0.3088  0.2931  0.3838
   14DOPE  H12A 1683   1.683   6.272  17.828  0.8197  0.4212 -2.1688
   14DOPE  H12B 1684   1.854   6.317  17.792 -0.3041 -2.0489  0.4247
   14DOPE   C11 1685   1.698   6.482  17.813 -0.0153  0.1359  0.6590
   14DOPE  H11A 1686   1.674   6.470  17.705 -1.1962  1.1635  0.7822
   14DOPE  H11B 1687   1.765   6.569  17.823  0.2399 -0.2758  3.0141
   14DOPE     P 1688   1.568   6.620  17.994 -0.5111  0.0180 -0.3013
   14DOPE   O13 1689   1.664   6.566  18.095  0.2777  0.0522 -0.6019
   14DOPE   O14 1690   1.428   6.640  18.029  0.2511 -0.6146 -0.2125
   14DOPE   O11 1691   1.630   6.740  17.922  0.2512 -0.0771  0.5165
   14DOPE   O12 1692   1.571   6.510  17.878 -0.1461 -0.0586  0.5178
   14DOPE    C1 1693   1.548   6.859  17.891  0.0387  0.3977  0.0241
   14DOPE    HA 1694   1.617   6.945  17.885  0.9620 -0.4452 -2.5340
   14DOPE    HB 1695   1.468   6.873  17.967 -2.2288 -2.6482 -1.5692
   14DOPE    C2 1696   1.467   6.833  17.756  0.2538 -0.2841  0.6789
   14DOPE    HS 1697   1.390   6.754  17.774 -0.2614  0.2866  1.0373
   14DOPE   O21 1698   1.559   6.803  17.647 -0.0623  0.1947  0.2264
   14DOPE   C21 1699   1.516   6.701  17.561  0.1401  0.6468  0.6570
   14DOPE   O22 1700   1.406   6.658  17.552  0.1937 -0.8399 -0.0780
   14DOPE   C22 1701   1.629   6.659  17.465  0.1383 -0.8582 -0.4406
   14DOPE   H2R 1702   1.697   6.595  17.524  0.0903 -1.0071 -0.5438
   14DOPE   H2S 1703   1.692   6.743  17.430  1.4296 -1.8263 -0.5217
   14DOPE    C3 1704   1.381   6.958  17.721  0.3126  0.2322 -0.1212
   14DOPE    HX 1705   1.436   7.054  17.706  1.0306 -0.1214  0.2289
   14DOPE    HY 1706   1.327   6.973  17.817  0.9447  0.2592  0.2302
   14DOPE   O31 1707   1.297   6.937  17.610  0.1041 -0.2815 -0.3400
   14DOPE   C31 1708   1.180   6.873  17.627 -1.0473  0.5309  0.0241
   14DOPE   O32 1709   1.140   6.825  17.733  0.0296 -0.3749 -0.3066
   14DOPE   C32 1710   1.118   6.849  17.484  0.3510 -0.6067 -0.3773
   14DOPE   H2X 1711   1.094   6.947  17.437  1.0554  0.2124  0.8883
   14DOPE   H2Y 1712   1.193   6.789  17.428 -2.1794 -2.1688 -2.2802
   14DOPE   C23 1713   1.577   6.584  17.337 -0.1618 -0.1264 -0.6080
   14DOPE   H3R 1714   1.473   6.544  17.337 -0.5309  0.8042  0.0205
   14DOPE   H3S 1715   1.641   6.495  17.319 -0.8144 -1.0018  1.1594
   14DOPE   C24 1716   1.578   6.675  17.206 -0.3044  0.5215 -0.5712
   14DOPE   H4R 1717   1.681   6.708  17.180  0.3133 -1.2484 -0.5002
   14DOPE   H4S 1718   1.516   6.766  17.216  0.7932  1.3370 -1.0204
   14DOPE   C25 1719   1.512   6.597  17.089 -0.3436  0.7585 -0.2709
   14DOPE   H5R 1720   1.410   6.569  17.121  0.3561  0.3227  1.7399
   14DOPE   H5S 1721   1.566   6.500  17.076 -0.1261  0.9317 -0.6698
   14DOPE   C26 1722   1.514   6.673  16.953 -0.5348  0.8697 -0.7032
   14DOPE   H6R 1723   1.616   6.687  16.911  0.2002 -2.0273 -0.0441
   14DOPE   H6S 1724   1.469   6.774  16.968 -0.8098  0.8089 -1.1259
   14DOPE   C27 1725   1.453   6.586  16.840 -0.1258  0.1180 -0.6730
   14DOPE   H7R 1726   1.358   6.572  16.896  0.4172 -0.2527  0.1928
   14DOPE   H7S 1727   1.504   6.489  16.823  2.5788  1.6510 -1.8379
   14DOPE   C28 1728   1.413   6.647  16.710 -0.0708 -0.6292 -0.2406
   14DOPE   H8R 1729   1.368   6.746  16.733  1.5537 -0.4131  2.3415
   14DOPE   H8S 1730   1.345   6.582  16.650 -2.4793  0.2121  1.4038
   14DOPE   C29 1731   1.536   6.670  16.635 -0.1304  0.4258 -0.1338
   14DOPE   H9R 1732   1.597   6.749  16.681  2.1495 -1.6248  0.5179
   14DOPE  C210 1733   1.579   6.598  16.532 -0.6722 -0.6622  0.1718
   14DOPE  H10R 1734   1.680   6.616  16.494 -1.3214  0.6253 -1.0470
   14DOPE  C211 1735   1.521   6.488  16.449  0.3514  0.7820  0.2030
   14DOPE  H11R 1736   1.422   6.450  16.484 -0.5032  1.9726 -0.8153
   14DOPE  H11S 1737   1.584   6.397  16.456  2.3267  2.0941  0.0586
   14DOPE  C212 1738   1.505   6.527  16.301  0.2923  0.2134 -0.1701
   14DOPE  H12R 1739   1.599   6.554  16.248 -0.7885  3.4842 -0.6447
   14DOPE  H12S 1740   1.434   6.612  16.296  0.4705  0.3967  0.4082
   14DOPE  C213 1741   1.441   6.412  16.216  0.6303 -0.4010  0.0615
   14DOPE  H13R 1742   1.346   6.387  16.268  1.0701 -0.3300  0.9279
   14DOPE  H13S 1743   1.512   6.326  16.206  0.7776 -0.1473 -1.1972
   14DOPE  C214 1744   1.414   6.465  16.080  0.3019 -0.6648 -0.1678
   14DOPE  H14R 1745   1.511   6.493  16.033  0.7896 -0.9718  0.6435
   14DOPE  H14S 1746   1.354   6.557  16.100 -1.1882 -1.4803 -0.7131
   14DOPE  C215 1747   1.339   6.367  15.991  0.0448 -0.0252  0.9766
   14DOPE  H15R 1748   1.248   6.343  16.050  0.2188  1.4359  1.8867
   14DOPE  H15S 1749   1.404   6.278  15.976  1.1393  1.1236 -1.7399
   14DOPE  C216 1750   1.302   6.423  15.854 -0.1636 -0.0097  1.0162
   14DOPE  H16R 1751   1.395   6.471  15.814 -0.0768  0.9228  2.2700
   14DOPE  H16S 1752   1.219   6.494  15.871 -0.0888  0.5471 -0.7178
   14DOPE  C217 1753   1.265   6.313  15.757  0.9321 -0.3034  0.0092
   14DOPE  H17R 1754   1.189   6.249  15.805  0.1829  1.4435  1.2475
   14DOPE  H17S 1755   1.355   6.254  15.728  0.3623 -0.4940 -1.4797
   14DOPE  C218 1756   1.195   6.373  15.630  0.1789  0.5218 -0.7524
   14DOPE  H18R 1757   1.171   6.299  15.550  3.2855 -0.0137 -1.3074
   14DOPE  H18S 1758   1.274   6.434  15.582  2.5356 -0.8393  1.1241
   14DOPE  H18T 1759   1.103   6.432  15.648 -0.2553 -0.4113  0.1581
   14DOPE   C33 1760   0.981   6.766  17.493  0.0588 -0.4596  0.0085
   14DOPE   H3X 1761   0.933   6.773  17.393 -0.0488 -1.1072  0.0103
   14DOPE   H3Y 1762   0.913   6.808  17.570 -3.7345 -1.4612 -2.5306
   14DOPE   C34 1763   1.021   6.621  17.515 -0.5901 -0.1051 -0.0263
   14DOPE   H4X 1764   1.093   6.589  17.438  0.6608  2.0528  0.1560
   14DOPE   H4Y 1765   1.061   6.589  17.614 -1.8267  0.1687  0.5800
   14DOPE   C35 1766   0.893   6.534  17.519 -0.3743  0.3959  0.7902
   14DOPE   H5X 1767   0.820   6.566  17.596 -0.8601  1.5962 -0.1404
   14DOPE   H5Y 1768   0.912   6.428  17.545  0.0741  1.0801  3.4718
   14DOPE   C36 1769   0.811   6.520  17.382  0.5210  0.8852  0.5103
   14DOPE   H6X 1770   0.788   6.625  17.353  0.4503  0.8462  0.4235
   14DOPE   H6Y 1771   0.714   6.469  17.403  0.5858  0.2820 -0.5920
   14DOPE   C37 1772   0.883   6.439  17.274 -0.0638  0.0070 -0.3531
   14DOPE   H7X 1773   0.970   6.502  17.245 -0.1364  0.2089 -0.1400
   14DOPE   H7Y 1774   0.910   6.350  17.335 -0.5268 -1.0373 -1.6184
   14DOPE   C38 1775   0.798   6.393  17.164  0.5949  0.1747  0.3865
   14DOPE   H8X 1776   0.712   6.329  17.195  1.1002 -0.5230  0.3689
   14DOPE   H8Y 1777   0.853   6.329  17.092 -2.8899  1.6625 -4.0740
   14DOPE   C39 1778   0.745   6.511  17.081  0.4712  0.1957  0.2593
   14DOPE   H9X 1779   0.739   6.609  17.130 -0.8177 -0.1558  0.8400
   14DOPE  C310 1780   0.715   6.507  16.950 -0.4528 -0.4860  0.5628
   14DOPE  H10X 1781   0.671   6.596  16.903 -0.7483  0.1713  2.0321
   14DOPE  C311 1782   0.719   6.390  16.862  0.1826  0.2018 -0.1129
   14DOPE  H11X 1783   0.821   6.347  16.866 -0.1726 -0.5659  1.2366
   14DOPE  H11Y 1784   0.649   6.315  16.904 -1.3296  1.0153 -1.0905
   14DOPE  C312 1785   0.686   6.408  16.712 -0.4471 -0.0196  0.1471
   14DOPE  H12X 1786   0.696   6.313  16.654 -2.7309 -1.1134  1.4124
   14DOPE  H12Y 1787   0.733   6.497  16.666  0.3818 -1.6251 -2.3486
   14DOPE  C313 1788   0.534   6.428  16.695  0.0586  0.1330  0.2173
   14DOPE  H13X 1789   0.476   6.347  16.744 -1.7900  0.1009 -1.8469
   14DOPE  H13Y 1790   0.508   6.522  16.747 -0.5345  0.2057 -0.2042
   14DOPE  C314 1791   0.495   6.448  16.547 -0.4570  0.5385 -0.6165
   14DOPE  H14X 1792   0.529   6.546  16.508  3.2004  0.1293  1.0599
   14DOPE  H14Y 1793   0.385   6.442  16.539 -0.4823 -1.7012  0.5374
   14DOPE  C315 1794   0.518   6.322  16.455 -0.4659  0.2864 -0.4462
   14DOPE  H15X 1795   0.456   6.244  16.503 -0.7758  2.2422  2.5843
   14DOPE  H15Y 1796   0.626   6.297  16.446 -0.7314 -0.9944 -0.3683
   14DOPE  C316 1797   0.467   6.350  16.319 -0.1969 -0.7955  0.0619
   14DOPE  H16X 1798   0.357   6.364  16.324 -0.3182 -1.9916  2.6476
   14DOPE  H16Y 1799   0.471   6.254  16.262 -0.0121 -0.5509 -0.3337
   14DOPE  C317 1800   0.533   6.464  16.232 -0.2449  0.6787 -0.7085
   14DOPE  H17X 1801   0.515   6.569  16.265  2.5024  0.3049  2.4366
   14DOPE  H17Y 1802   0.643   6.465  16.244 -0.3766 -1.2447  1.1729
   14DOPE  C318 1803   0.498   6.449  16.088  0.3554 -0.3994 -0.4653
   14DOPE  H18X 1804   0.568   6.504  16.022 -0.4349  0.6792 -0.4288
   14DOPE  H18Y 1805   0.509   6.342  16.062 -0.3846 -0.3905 -0.8239
   14DOPE  H18Z 1806   0.393   6.466  16.056 -0.1403 -0.4918  1.0323
   15DOPE     N 1807   4.349   2.903  17.859 -0.3859 -0.4392 -0.1883
   15DOPE   HN1 1808   4.344   2.833  17.783  1.2148  1.3016 -2.0131
   15DOPE   HN2 1809   4.432   2.957  17.828  0.1914 -1.0907  0.1938
   15DOPE   HN3 1810   4.387   2.877  17.953  0.5158 -0.4428 -0.5416
   15DOPE   C12 1811   4.234   3.008  17.862 -0.6884 -0.1987 -0.6788
   15DOPE  H12A 1812   4.277   3.090  17.922  1.1036 -0.8294 -1.0623
   15DOPE  H12B 1813   4.149   2.954  17.910  1.0434 -1.3369  1.2610
   15DOPE   C11 1814   4.191   3.057  17.722  0.6436  0.3053  0.4338
   15DOPE  H11A 1815   4.282   3.096  17.671  0.4997  0.1942  0.0870
   15DOPE  H11B 1816   4.121   3.144  17.728  0.2276  0.0274 -0.2356
   15DOPE     P 1817   3.991   2.947  17.579 -0.2488 -0.3560  0.5237
   15DOPE   O13 1818   3.894   3.020  17.661 -0.2899 -0.5032 -0.2538
   15DOPE   O14 1819   3.959   2.804  17.542 -0.0692 -0.6496 -0.2565
   15DOPE   O11 1820   4.004   3.027  17.444 -0.2837 -0.1330 -0.3164
   15DOPE   O12 1821   4.136   2.950  17.641 -0.0650 -0.4499  0.2017
   15DOPE    C1 1822   4.115   3.117  17.433 -0.0348 -0.2114  0.6569
   15DOPE    HA 1823   4.216   3.070  17.436  0.2714  0.4526  1.1202
   15DOPE    HB 1824   4.118   3.191  17.516  0.5513 -1.6650  1.9902
   15DOPE    C2 1825   4.113   3.196  17.298  0.6496  0.7013  0.2404
   15DOPE    HS 1826   4.007   3.223  17.281 -0.0386 -1.0541  1.4536
   15DOPE   O21 1827   4.167   3.113  17.194 -0.2509 -0.2553  0.1276
   15DOPE   C21 1828   4.076   3.082  17.108 -0.1944 -0.0622 -0.0049
   15DOPE   O22 1829   3.952   3.088  17.119 -0.3657 -0.3052  0.0098
   15DOPE   C22 1830   4.146   3.017  16.986  0.1443 -0.4444  0.6788
   15DOPE   H2R 1831   4.169   2.913  17.017  3.0412 -0.2298 -0.4158
   15DOPE   H2S 1832   4.247   3.063  16.974 -0.2003  0.3893  0.8797
   15DOPE    C3 1833   4.203   3.319  17.306 -0.5319 -0.4776  0.4885
   15DOPE    HX 1834   4.301   3.287  17.349 -0.1307 -0.5451 -0.4425
   15DOPE    HY 1835   4.149   3.397  17.365 -0.8176  0.9116 -1.4995
   15DOPE   O31 1836   4.210   3.369  17.172  0.1997 -0.1471  0.3885
   15DOPE   C31 1837   4.318   3.441  17.142  0.4073 -0.7067 -0.9157
   15DOPE   O32 1838   4.415   3.448  17.213 -0.2657 -0.1937 -0.6218
   15DOPE   C32 1839   4.299   3.512  17.008  0.2509  0.3127  0.2114
   15DOPE   H2X 1840   4.203   3.567  17.018 -1.2614 -2.1402 -0.1059
   15DOPE   H2Y 1841   4.376   3.592  17.001  1.3433 -0.8526 -1.8972
   15DOPE   C23 1842   4.060   3.024  16.856  0.3948  0.5176  0.4143
   15DOPE   H3R 1843   4.036   3.129  16.827 -2.4618  0.2575  1.4693
   15DOPE   H3S 1844   3.957   2.988  16.877 -0.3761  1.7484 -1.0843
   15DOPE   C24 1845   4.124   2.937  16.750 -0.4172  0.3889 -0.2506
   15DOPE   H4R 1846   4.114   2.831  16.782  0.2167  0.2988 -0.3387
   15DOPE   H4S 1847   4.231   2.966  16.760 -0.5486  0.7585  0.1361
   15DOPE   C25 1848   4.088   2.979  16.606  0.5478 -0.5305 -0.5617
   15DOPE   H5R 1849   4.089   3.090  16.608  2.6626 -0.5252  0.8609
   15DOPE   H5S 1850   3.980   2.953  16.592  0.2067  1.5494 -2.2542
   15DOPE   C26 1851   4.169   2.918  16.485  0.7532  0.0737 -1.3557
   15DOPE   H6R 1852   4.176   2.809  16.504 -0.0142  0.3461  0.8030
   15DOPE   H6S 1853   4.274   2.955  16.480  0.2099  1.6815 -1.4913
   15DOPE   C27 1854   4.109   2.950  16.343 -0.3967  0.1035  0.2027
   15DOPE   H7R 1855   4.082   3.058  16.336  0.7692  0.5218  1.5310
   15DOPE   H7S 1856   4.018   2.887  16.332  0.0384 -0.3472 -0.9273
   15DOPE   C28 1857   4.202   2.906  16.230 -0.0796 -0.1877 -0.6443
   15DOPE   H8R 1858   4.295   2.965  16.246 -0.2220 -0.2738  0.6257
   15DOPE   H8S 1859   4.155   2.938  16.135 -0.4148  0.1568 -0.3666
   15DOPE   C29 1860   4.223   2.757  16.228  0.1813 -1.1244  0.0072
   15DOPE   H9R 1861   4.284   2.722  16.312 -0.9548  0.5636  1.6116
   15DOPE  C210 1862   4.184   2.667  16.143 -0.5107  0.4688  0.3842
   15DOPE  H10R 1863   4.230   2.571  16.170 -0.7580  0.0958 -0.4933
   15DOPE  C211 1864   4.101   2.688  16.015 -1.0696 -0.4366  0.4227
   15DOPE  H11R 1865   4.058   2.790  16.009  0.4611  0.3028  1.4514
   15DOPE  H11S 1866   4.019   2.613  16.024 -2.3513  1.0785  1.8082
   15DOPE  C212 1867   4.198   2.658  15.887 -0.0625 -0.5345 -1.8475
   15DOPE  H12R 1868   4.195   2.550  15.861  0.8338 -0.7459 -1.1133
   15DOPE  H12S 1869   4.295   2.707  15.908 -0.3754 -1.3756  2.6617
   15DOPE  C213 1870   4.131   2.718  15.761 -0.4913  0.3518 -0.0158
   15DOPE  H13R 1871   4.130   2.825  15.791 -0.5028 -0.1520  1.8809
   15DOPE  H13S 1872   4.027   2.683  15.742 -0.5940  1.1175 -0.9597
   15DOPE  C214 1873   4.209   2.691  15.635 -0.0072 -0.8490  0.9442
   15DOPE  H14R 1874   4.216   2.582  15.615  2.2852 -0.7204  0.7352
   15DOPE  H14S 1875   4.314   2.726  15.651  0.1086 -0.7968  0.1103
   15DOPE  C215 1876   4.166   2.771  15.508  0.7688 -0.6932 -0.3874
   15DOPE  H15R 1877   4.227   2.732  15.424  0.8933 -1.9962  0.2758
   15DOPE  H15S 1878   4.190   2.877  15.531 -1.8384 -0.0352 -0.3768
   15DOPE  C216 1879   4.015   2.764  15.475  0.1970  0.1756 -0.9722
   15DOPE  H16R 1880   3.945   2.829  15.532  0.4729 -1.4145  1.3353
   15DOPE  H16S 1881   3.986   2.660  15.499 -1.4511  0.4981 -1.4176
   15DOPE  C217 1882   3.993   2.798  15.324  0.5494 -0.3480 -0.1936
   15DOPE  H17R 1883   4.053   2.721  15.271  0.4907 -0.8972  0.5216
   15DOPE  H17S 1884   4.032   2.900  15.306 -1.7128  0.7253  0.5312
   15DOPE  C218 1885   3.846   2.797  15.272 -0.3138 -1.0823  0.3094
   15DOPE  H18R 1886   3.842   2.835  15.168 -0.7294  1.9369  1.3153
   15DOPE  H18S 1887   3.789   2.873  15.330  1.5362 -0.6884  1.7449
   15DOPE  H18T 1888   3.794   2.701  15.293 -2.3303  0.1920  1.5234
   15DOPE   C33 1889   4.299   3.424  16.883  0.5401  0.5486  0.1476
   15DOPE   H3X 1890   4.242   3.332  16.910 -0.5459  0.3385 -2.6249
   15DOPE   H3Y 1891   4.397   3.385  16.847  0.5589 -0.6788  1.4318
   15DOPE   C34 1892   4.237   3.487  16.756  0.2185  0.0721 -0.0696
   15DOPE   H4X 1893   4.130   3.510  16.773 -0.2774 -0.9090 -1.6155
   15DOPE   H4Y 1894   4.303   3.575  16.745  0.1949  0.0188 -0.6777
   15DOPE   C35 1895   4.245   3.390  16.632 -0.0756  0.4267  0.4294
   15DOPE   H5X 1896   4.200   3.295  16.667 -1.7419  1.2899  0.7380
   15DOPE   H5Y 1897   4.353   3.383  16.609  0.1684  2.6979  0.6362
   15DOPE   C36 1898   4.178   3.453  16.508 -0.3931 -0.1510  0.5999
   15DOPE   H6X 1899   4.225   3.553  16.499 -1.8289  0.6183  1.2882
   15DOPE   H6Y 1900   4.072   3.478  16.529 -0.7574  1.7044 -2.7748
   15DOPE   C37 1901   4.194   3.363  16.378 -0.1608 -0.7217  0.2699
   15DOPE   H7X 1902   4.299   3.328  16.378  0.7129  1.7078 -0.2251
   15DOPE   H7Y 1903   4.120   3.280  16.378 -1.4853  0.3741 -1.5653
   15DOPE   C38 1904   4.190   3.435  16.242  0.4407  0.8344  0.4164
   15DOPE   H8X 1905   4.084   3.470  16.236  0.4298  0.7178 -0.0898
   15DOPE   H8Y 1906   4.209   3.353  16.170 -0.2815  0.6431  0.4323
   15DOPE   C39 1907   4.287   3.547  16.223  0.1013 -0.1459  0.1741
   15DOPE   H9X 1908   4.322   3.596  16.315  3.1473  1.5424 -1.7344
   15DOPE  C310 1909   4.348   3.586  16.108  0.6442 -0.0376  0.1966
   15DOPE  H10X 1910   4.418   3.671  16.103  2.5362 -1.5109  0.5841
   15DOPE  C311 1911   4.311   3.517  15.967  0.1352 -0.5907 -0.2416
   15DOPE  H11X 1912   4.360   3.422  15.940 -2.1426 -1.8737 -0.0561
   15DOPE  H11Y 1913   4.202   3.500  15.966 -0.0221  0.3778 -0.4869
   15DOPE  C312 1914   4.335   3.625  15.859  0.4513 -0.0306  0.3849
   15DOPE  H12X 1915   4.444   3.644  15.848 -0.2043  3.3501 -1.6146
   15DOPE  H12Y 1916   4.286   3.722  15.879  2.3786  1.0449  0.1979
   15DOPE  C313 1917   4.282   3.584  15.729  0.4356 -0.1337  0.2333
   15DOPE  H13X 1918   4.351   3.506  15.689  2.5308  1.6317  0.1835
   15DOPE  H13Y 1919   4.181   3.540  15.724 -0.4905  1.9395 -0.2617
   15DOPE  C314 1920   4.304   3.700  15.613  0.6259  0.5200 -0.3397
   15DOPE  H14X 1921   4.353   3.788  15.661 -1.2680  0.9095  0.9808
   15DOPE  H14Y 1922   4.209   3.751  15.586  1.1069  1.0523 -1.0542
   15DOPE  C315 1923   4.391   3.642  15.500  0.6908  0.3027 -0.5832
   15DOPE  H15X 1924   4.344   3.545  15.473 -1.0129  0.6172  1.0350
   15DOPE  H15Y 1925   4.486   3.604  15.543 -0.5913 -1.1097  1.1530
   15DOPE  C316 1926   4.413   3.732  15.377 -0.5640 -0.4690  0.1691
   15DOPE  H16X 1927   4.481   3.811  15.414  1.1260 -1.8869  0.2078
   15DOPE  H16Y 1928   4.326   3.785  15.332  0.1226 -0.5316 -1.2640
   15DOPE  C317 1929   4.491   3.648  15.276 -0.9786  0.6250  0.3105
   15DOPE  H17X 1930   4.577   3.597  15.324 -1.6215  0.0177  0.8444
   15DOPE  H17Y 1931   4.427   3.563  15.245  1.0200 -0.3771 -1.2875
   15DOPE  C318 1932   4.539   3.705  15.147  1.0039  0.1152  0.4246
   15DOPE  H18X 1933   4.458   3.751  15.087 -0.9079 -2.2354  1.0499
   15DOPE  H18Y 1934   4.621   3.779  15.158  0.1681  1.3678 -1.2598
   15DOPE  H18Z 1935   4.578   3.626  15.079  1.8588  1.0852 -0.2461
   16DOPE     N 1936   4.629   5.303  17.581 -0.0954  0.5300 -0.3676
   16DOPE   HN1 1937   4.584   5.224  17.530  0.6299 -0.1212 -0.0221
   16DOPE   HN2 1938   4.664   5.370  17.510  0.5858  0.6172  0.0507
   16DOPE   HN3 1939   4.721   5.265  17.610  0.0404 -0.7261 -2.2777
   16DOPE   C12 1940   4.551   5.372  17.683 -0.0796 -0.3957 -0.5227
   16DOPE  H12A 1941   4.532   5.292  17.758 -2.1079  1.4446  1.0525
   16DOPE  H12B 1942   4.454   5.405  17.640 -0.2306  0.0945  0.1913
   16DOPE   C11 1943   4.612   5.501  17.736  0.3209  0.1750 -0.1769
   16DOPE  H11A 1944   4.702   5.490  17.801  0.1173 -0.0706  0.0632
   16DOPE  H11B 1945   4.529   5.543  17.796 -0.3435 -0.7661 -0.4194
   16DOPE     P 1946   4.588   5.733  17.638  0.6495 -0.1308 -0.2991
   16DOPE   O13 1947   4.626   5.793  17.769 -0.3385 -0.5694  0.6289
   16DOPE   O14 1948   4.442   5.721  17.618  0.3944 -0.0348 -0.4658
   16DOPE   O11 1949   4.651   5.818  17.518 -0.4525  0.5948 -0.0882
   16DOPE   O12 1950   4.654   5.590  17.632  0.7583  0.7047 -0.0233
   16DOPE    C1 1951   4.682   5.745  17.396  0.1758 -0.0305  0.2140
   16DOPE    HA 1952   4.752   5.664  17.425 -0.0385 -0.8429 -1.3765
   16DOPE    HB 1953   4.741   5.813  17.331  1.8926 -1.5200  0.1507
   16DOPE    C2 1954   4.563   5.685  17.319  0.9499 -0.0982 -0.1054
   16DOPE    HS 1955   4.509   5.619  17.391  1.6929 -1.5964 -0.8795
   16DOPE   O21 1956   4.611   5.613  17.208 -1.0770 -0.2910  0.4124
   16DOPE   C21 1957   4.658   5.492  17.226 -0.4365 -0.5423  0.0120
   16DOPE   O22 1958   4.674   5.442  17.340 -0.0089  0.0757  0.2266
   16DOPE   C22 1959   4.706   5.416  17.100 -0.0127  0.2078  0.7346
   16DOPE   H2R 1960   4.746   5.320  17.139  0.0993 -0.5480 -1.1476
   16DOPE   H2S 1961   4.786   5.468  17.044 -0.3418  0.7940  0.7944
   16DOPE    C3 1962   4.477   5.807  17.273  0.2241  1.0635 -0.7205
   16DOPE    HX 1963   4.546   5.887  17.237  0.3141  1.3731  0.1340
   16DOPE    HY 1964   4.421   5.845  17.360 -1.8383 -2.5087 -0.2696
   16DOPE   O31 1965   4.385   5.773  17.165  0.5313 -0.1903 -0.1533
   16DOPE   C31 1966   4.420   5.806  17.042  0.6257 -0.4369  0.1786
   16DOPE   O32 1967   4.517   5.878  17.009 -0.3694  0.3124 -1.3671
   16DOPE   C32 1968   4.314   5.764  16.935  0.6813 -0.1445 -0.5747
   16DOPE   H2X 1969   4.292   5.657  16.958  0.2471 -0.1720 -1.0708
   16DOPE   H2Y 1970   4.216   5.816  16.939 -0.2221 -1.8706  1.4368
   16DOPE   C23 1971   4.599   5.374  16.999  0.4521 -0.6177  0.0749
   16DOPE   H3R 1972   4.539   5.464  16.972 -1.2721 -1.9446 -0.6562
   16DOPE   H3S 1973   4.527   5.303  17.043 -1.6144  1.7516  0.7421
   16DOPE   C24 1974   4.666   5.304  16.883  0.1666 -0.0898 -0.1444
   16DOPE   H4R 1975   4.747   5.236  16.920 -0.3888  0.1721  1.6760
   16DOPE   H4S 1976   4.709   5.382  16.816  0.4819 -0.0887  0.0560
   16DOPE   C25 1977   4.569   5.210  16.804 -0.7924  0.4981  0.1305
   16DOPE   H5R 1978   4.471   5.254  16.777 -1.8150 -1.9192 -0.3816
   16DOPE   H5S 1979   4.542   5.128  16.874  0.7032  0.0461  0.2087
   16DOPE   C26 1980   4.636   5.130  16.687 -0.1382 -0.1166 -0.1479
   16DOPE   H6R 1981   4.570   5.042  16.670 -0.9623  0.1076  1.5918
   16DOPE   H6S 1982   4.741   5.102  16.710  0.6857  1.7996 -1.3324
   16DOPE   C27 1983   4.632   5.218  16.559 -0.1716 -0.1452  0.3657
   16DOPE   H7R 1984   4.696   5.307  16.582  0.0795 -0.2965  0.2544
   16DOPE   H7S 1985   4.530   5.244  16.525  0.7266  1.4520 -1.2955
   16DOPE   C28 1986   4.694   5.146  16.434 -0.5873  0.1552 -0.0222
   16DOPE   H8R 1987   4.802   5.128  16.453 -1.2741 -1.5694  2.6849
   16DOPE   H8S 1988   4.666   5.215  16.351 -2.1506 -0.4843 -0.0406
   16DOPE   C29 1989   4.640   5.012  16.404 -0.1850 -0.3880  0.0272
   16DOPE   H9R 1990   4.636   4.938  16.485 -0.8043 -0.2994  0.0859
   16DOPE  C210 1991   4.615   4.974  16.278  0.2329  0.1507 -0.1858
   16DOPE  H10R 1992   4.573   4.875  16.257 -0.6703  0.3153  0.7817
   16DOPE  C211 1993   4.618   5.042  16.148 -0.8223  0.3694  0.6078
   16DOPE  H11R 1994   4.645   4.979  16.061 -1.0584  2.1928 -0.8418
   16DOPE  H11S 1995   4.693   5.124  16.145 -0.2015 -0.1320 -3.2389
   16DOPE  C212 1996   4.482   5.102  16.113  0.5046 -0.0849 -0.5445
   16DOPE  H12R 1997   4.452   5.184  16.181 -1.5894  0.2514 -1.7980
   16DOPE  H12S 1998   4.404   5.023  16.116  1.1099 -0.7554 -1.3838
   16DOPE  C213 1999   4.464   5.156  15.971  0.1033  0.6807 -0.0321
   16DOPE  H13R 2000   4.556   5.205  15.935  1.3851 -0.9475  0.8838
   16DOPE  H13S 2001   4.379   5.228  15.974 -0.4225  0.1111 -0.7156
   16DOPE  C214 2002   4.416   5.047  15.874  0.7608  0.2699  0.3775
   16DOPE  H14R 2003   4.323   5.000  15.912  1.9843  0.5176  3.9710
   16DOPE  H14S 2004   4.491   4.966  15.870 -0.9351 -1.3928  0.8628
   16DOPE  C215 2005   4.393   5.092  15.729  0.2339 -0.4920 -0.0223
   16DOPE  H15R 2006   4.373   4.995  15.677  1.2858 -0.1973 -1.0319
   16DOPE  H15S 2007   4.475   5.158  15.692 -0.9105  1.1693  0.3217
   16DOPE  C216 2008   4.266   5.175  15.717  0.7838  0.3118  0.6578
   16DOPE  H16R 2009   4.284   5.283  15.737 -0.6927  0.7790 -0.2930
   16DOPE  H16S 2010   4.183   5.145  15.784  0.5548  0.8059  0.6011
   16DOPE  C217 2011   4.203   5.167  15.572  0.4757  0.3947  0.1834
   16DOPE  H17R 2012   4.101   5.211  15.573  0.0739 -0.4946 -0.0399
   16DOPE  H17S 2013   4.166   5.062  15.559 -0.3441  0.7414 -0.4021
   16DOPE  C218 2014   4.295   5.215  15.460  1.4011  0.4509  0.1931
   16DOPE  H18R 2015   4.384   5.149  15.452 -0.1797 -2.0386  1.7656
   16DOPE  H18S 2016   4.319   5.321  15.484 -0.5641  0.5127  2.2466
   16DOPE  H18T 2017   4.237   5.209  15.365 -2.3082 -1.4500  2.3739
   16DOPE   C33 2018   4.378   5.758  16.800  0.0145  0.7338 -0.1235
   16DOPE   H3X 2019   4.460   5.682  16.796  1.5522  2.2468  1.1551
   16DOPE   H3Y 2020   4.422   5.856  16.775 -1.4891  0.9099 -2.3251
   16DOPE   C34 2021   4.272   5.725  16.686  0.1994  0.2656 -0.0505
   16DOPE   H4X 2022   4.227   5.626  16.708  0.5873  0.4370  1.6474
   16DOPE   H4Y 2023   4.204   5.813  16.687  2.2217  1.9087  0.7716
   16DOPE   C35 2024   4.340   5.709  16.547 -0.4717 -0.4847 -0.2133
   16DOPE   H5X 2025   4.416   5.628  16.544 -0.8266 -0.8002 -1.3658
   16DOPE   H5Y 2026   4.387   5.808  16.525 -0.9077  0.6454  3.3887
   16DOPE   C36 2027   4.239   5.676  16.436  0.2572 -0.4958 -0.1024
   16DOPE   H6X 2028   4.147   5.737  16.444 -0.6264 -1.4520 -2.1730
   16DOPE   H6Y 2029   4.194   5.575  16.445 -0.3954 -0.1418  0.7415
   16DOPE   C37 2030   4.304   5.699  16.302  0.3631  0.1464  0.0850
   16DOPE   H7X 2031   4.334   5.806  16.303  1.9175 -0.2591  1.0385
   16DOPE   H7Y 2032   4.402   5.645  16.299  1.4775  2.0912 -1.5039
   16DOPE   C38 2033   4.214   5.663  16.183  0.4056 -0.4220 -0.1121
   16DOPE   H8X 2034   4.237   5.724  16.093 -1.5393 -1.3837 -1.3570
   16DOPE   H8Y 2035   4.105   5.678  16.199  0.0714 -0.1129 -2.3670
   16DOPE   C39 2036   4.203   5.521  16.141 -0.0496 -0.2360  0.9010
   16DOPE   H9X 2037   4.169   5.451  16.219  3.2250 -1.2916  1.5198
   16DOPE  C310 2038   4.230   5.477  16.018 -0.0444  0.1042  0.0596
   16DOPE  H10X 2039   4.219   5.369  15.998 -2.0896  0.2185  0.3108
   16DOPE  C311 2040   4.301   5.545  15.903  0.6212  0.1560 -0.3646
   16DOPE  H11X 2041   4.368   5.630  15.930  0.1332  0.6025 -0.5599
   16DOPE  H11Y 2042   4.363   5.470  15.849 -0.4090 -0.4062 -0.7993
   16DOPE  C312 2043   4.206   5.603  15.801 -0.4211  0.4201 -0.0671
   16DOPE  H12X 2044   4.156   5.697  15.831 -1.8201  0.5802 -2.5813
   16DOPE  H12Y 2045   4.120   5.533  15.794 -1.5593  1.6679  0.9385
   16DOPE  C313 2046   4.267   5.615  15.657 -0.0826 -0.1901 -0.1106
   16DOPE  H13X 2047   4.304   5.513  15.631  1.5982  0.7275 -1.5014
   16DOPE  H13Y 2048   4.185   5.638  15.586 -0.3959  0.2778  0.4057
   16DOPE  C314 2049   4.385   5.707  15.644  0.0850  0.2331  0.1798
   16DOPE  H14X 2050   4.462   5.696  15.724  1.3329  1.0238 -0.8830
   16DOPE  H14Y 2051   4.338   5.807  15.647 -0.5900  0.0567 -2.2156
   16DOPE  C315 2052   4.449   5.696  15.503 -0.2676  0.3034 -0.7697
   16DOPE  H15X 2053   4.374   5.698  15.421 -1.9715  1.0750  0.7363
   16DOPE  H15Y 2054   4.504   5.599  15.511 -2.6118 -1.0399  0.3334
   16DOPE  C316 2055   4.551   5.808  15.473 -0.8332 -0.4066 -0.4144
   16DOPE  H16X 2056   4.577   5.869  15.563  0.0574 -1.7406  0.2694
   16DOPE  H16Y 2057   4.500   5.881  15.406 -0.4382  0.5886  0.3267
   16DOPE  C317 2058   4.679   5.758  15.394 -0.0928  0.1560  0.3800
   16DOPE  H17X 2059   4.735   5.691  15.463 -1.5633 -0.6359  0.8437
   16DOPE  H17Y 2060   4.648   5.692  15.309  0.7217  1.2195 -0.7800
   16DOPE  C318 2061   4.780   5.858  15.337 -0.4477  0.4206 -0.2053
   16DOPE  H18X 2062   4.800   5.943  15.406  0.7568  0.1268 -0.1590
   16DOPE  H18Y 2063   4.878   5.806  15.328 -1.1935 -1.1855  0.5167
   16DOPE  H18Z 2064   4.731   5.900  15.247 -3.5369 -2.3711  0.0077
   17DOPE     N 2065   6.070   1.185  18.140  0.0377 -0.1185 -0.0522
   17DOPE   HN1 2066   6.131   1.255  18.092 -0.1368  0.1647  0.1410
   17DOPE   HN2 2067   6.122   1.136  18.216  0.3615 -0.7823 -0.6872
   17DOPE   HN3 2068   6.043   1.105  18.079  0.1647 -0.5740  0.4740
   17DOPE   C12 2069   5.952   1.255  18.196 -0.3872 -0.4801 -0.4835
   17DOPE  H12A 2070   5.995   1.340  18.253  0.7263 -1.5711  0.3533
   17DOPE  H12B 2071   5.897   1.186  18.263 -0.9232  0.7676  0.3917
   17DOPE   C11 2072   5.850   1.294  18.084  0.2943  0.4941 -0.0562
   17DOPE  H11A 2073   5.896   1.365  18.013  0.5620  0.0174 -0.3682
   17DOPE  H11B 2074   5.762   1.341  18.133  0.1043  1.3481 -1.1703
   17DOPE     P 2075   5.727   1.221  17.865  0.4545 -0.0128  0.0130
   17DOPE   O13 2076   5.679   1.357  17.866  0.1239 -0.3791  0.2299
   17DOPE   O14 2077   5.621   1.119  17.851  0.0985 -0.4220 -0.0601
   17DOPE   O11 2078   5.821   1.197  17.746  0.3570  0.3573 -0.1671
   17DOPE   O12 2079   5.813   1.181  17.999 -0.7460 -0.4625  0.0371
   17DOPE    C1 2080   5.915   1.295  17.706 -1.0273  0.5365 -0.3102
   17DOPE    HA 2081   5.995   1.239  17.653 -0.5677 -1.1910  2.0076
   17DOPE    HB 2082   5.961   1.351  17.790  1.9802 -0.2968 -1.2614
   17DOPE    C2 2083   5.863   1.397  17.597  0.2641 -0.3255 -0.6417
   17DOPE    HS 2084   5.778   1.441  17.653  0.4226 -0.8219  0.0103
   17DOPE   O21 2085   5.810   1.317  17.488 -0.4398 -0.8733 -0.0613
   17DOPE   C21 2086   5.739   1.389  17.405 -0.1385 -0.2045  0.0480
   17DOPE   O22 2087   5.692   1.501  17.429 -0.0616  0.2135  0.2523
   17DOPE   C22 2088   5.719   1.304  17.279  0.4740 -0.0983 -0.4709
   17DOPE   H2R 2089   5.614   1.268  17.277  0.6475 -0.7484  1.0980
   17DOPE   H2S 2090   5.784   1.213  17.277  0.4267 -0.1194 -1.6360
   17DOPE    C3 2091   5.975   1.492  17.565 -0.3519 -0.1046  0.1474
   17DOPE    HX 2092   6.031   1.521  17.656  4.2098  0.3394 -2.5087
   17DOPE    HY 2093   5.932   1.580  17.512  0.2711 -0.6801 -1.3885
   17DOPE   O31 2094   6.078   1.428  17.486 -0.3844 -0.2488 -0.4857
   17DOPE   C31 2095   6.087   1.453  17.354 -0.6652 -0.0425  0.3168
   17DOPE   O32 2096   6.016   1.524  17.287 -0.2022  0.1441 -0.3969
   17DOPE   C32 2097   6.218   1.385  17.304  0.3584  0.2303 -0.4075
   17DOPE   H2X 2098   6.299   1.399  17.379 -0.5427  0.0076  0.6296
   17DOPE   H2Y 2099   6.197   1.276  17.303 -0.2666  0.3372  0.1623
   17DOPE   C23 2100   5.760   1.389  17.154  0.4031  0.3594 -0.4902
   17DOPE   H3R 2101   5.865   1.364  17.128 -0.2767 -0.9718 -2.1680
   17DOPE   H3S 2102   5.750   1.497  17.176  0.7992  0.4742 -0.8672
   17DOPE   C24 2103   5.676   1.349  17.031 -0.0974 -0.2398  0.1661
   17DOPE   H4R 2104   5.569   1.377  17.042  0.3541  0.8663  2.4344
   17DOPE   H4S 2105   5.694   1.242  17.008  0.7713  0.0875 -0.7686
   17DOPE   C25 2106   5.727   1.420  16.900  0.1900 -0.0812  0.2175
   17DOPE   H5R 2107   5.836   1.400  16.893  0.3202  0.8661 -0.7065
   17DOPE   H5S 2108   5.718   1.528  16.923  0.3495 -0.1845  0.7724
   17DOPE   C26 2109   5.655   1.378  16.771 -0.2678  0.4475  0.7239
   17DOPE   H6R 2110   5.547   1.355  16.786 -0.5651 -0.9451 -2.6664
   17DOPE   H6S 2111   5.704   1.283  16.739 -0.8099  0.5920 -0.5954
   17DOPE   C27 2112   5.664   1.481  16.654 -0.1695 -0.2729  1.0048
   17DOPE   H7R 2113   5.773   1.497  16.647  0.1560 -1.3933  2.8152
   17DOPE   H7S 2114   5.610   1.571  16.691 -0.1786  0.1220  0.0598
   17DOPE   C28 2115   5.613   1.446  16.513 -0.4764 -0.1574  0.0845
   17DOPE   H8R 2116   5.611   1.528  16.439  0.6887 -0.6790 -0.5466
   17DOPE   H8S 2117   5.506   1.419  16.525 -0.9976  1.2308 -1.2346
   17DOPE   C29 2118   5.686   1.333  16.452 -0.2467  0.2214  0.7337
   17DOPE   H9R 2119   5.723   1.263  16.529 -1.5935 -0.5232  0.7296
   17DOPE  C210 2120   5.688   1.291  16.325 -0.5777 -0.2761 -0.6839
   17DOPE  H10R 2121   5.756   1.208  16.301 -1.2982 -1.4846  1.2133
   17DOPE  C211 2122   5.630   1.360  16.212  0.0061 -0.6243 -0.1715
   17DOPE  H11R 2123   5.618   1.470  16.213  0.3886 -0.5043 -2.6191
   17DOPE  H11S 2124   5.528   1.323  16.186  0.0868  0.4077 -2.0747
   17DOPE  C212 2125   5.705   1.331  16.081  0.2074  0.2815  0.8022
   17DOPE  H12R 2126   5.708   1.220  16.075 -0.3205  0.2290  1.4336
   17DOPE  H12S 2127   5.806   1.376  16.079  0.0373  0.9026 -3.4992
   17DOPE  C213 2128   5.618   1.372  15.963 -0.2720  0.0040  0.4828
   17DOPE  H13R 2129   5.573   1.469  15.991 -0.8991 -0.0017 -0.4487
   17DOPE  H13S 2130   5.530   1.312  15.932 -0.9256 -0.1587  2.4894
   17DOPE  C214 2131   5.710   1.382  15.833  0.4661  0.1693  0.0900
   17DOPE  H14R 2132   5.762   1.288  15.807 -0.7851 -0.7044  0.6021
   17DOPE  H14S 2133   5.784   1.462  15.850  0.8154 -0.1645  0.1428
   17DOPE  C215 2134   5.618   1.425  15.717  0.2813 -0.7128  0.4645
   17DOPE  H15R 2135   5.536   1.350  15.714  2.3030 -3.0856  1.0804
   17DOPE  H15S 2136   5.669   1.424  15.618 -1.3086  1.1214 -0.4447
   17DOPE  C216 2137   5.571   1.574  15.720  0.1364 -0.6525  0.0256
   17DOPE  H16R 2138   5.662   1.628  15.687 -0.2406 -0.2781 -0.4046
   17DOPE  H16S 2139   5.537   1.593  15.824 -1.4012 -0.8661 -0.4024
   17DOPE  C217 2140   5.447   1.608  15.631 -0.3723 -0.3117 -0.0704
   17DOPE  H17R 2141   5.356   1.552  15.663  0.3783 -1.0284  0.8993
   17DOPE  H17S 2142   5.471   1.587  15.525 -2.4657 -0.6497 -0.5182
   17DOPE  C218 2143   5.422   1.763  15.634  0.7583 -0.1817  0.0281
   17DOPE  H18R 2144   5.515   1.805  15.590  1.4527  1.0018  2.4731
   17DOPE  H18S 2145   5.420   1.794  15.741  2.6677 -0.8299  0.2783
   17DOPE  H18T 2146   5.324   1.797  15.594  1.4253 -0.4050 -1.8627
   17DOPE   C33 2147   6.284   1.422  17.167  0.0817 -0.5737  0.7076
   17DOPE   H3X 2148   6.335   1.520  17.181 -1.3804 -0.0271  2.7726
   17DOPE   H3Y 2149   6.204   1.430  17.091 -1.2909 -2.7409  1.8231
   17DOPE   C34 2150   6.388   1.313  17.126 -0.5526 -0.0616  0.5362
   17DOPE   H4X 2151   6.478   1.345  17.182 -2.1204  2.6527  1.6820
   17DOPE   H4Y 2152   6.345   1.217  17.162  1.8609 -1.1937  0.5587
   17DOPE   C35 2153   6.424   1.309  16.977  0.0683 -0.3836  0.3129
   17DOPE   H5X 2154   6.340   1.297  16.906  1.1860 -0.2157 -1.0918
   17DOPE   H5Y 2155   6.479   1.214  16.959  1.1221  0.3106 -0.2144
   17DOPE   C36 2156   6.524   1.419  16.941  0.3104 -0.0861  0.3515
   17DOPE   H6X 2157   6.604   1.426  17.018  1.6164  0.6593 -1.0188
   17DOPE   H6Y 2158   6.480   1.521  16.942  1.8489  0.6136 -0.1279
   17DOPE   C37 2159   6.573   1.417  16.791  0.5548  0.1931  1.0119
   17DOPE   H7X 2160   6.612   1.519  16.775  0.1795  0.2325  0.2868
   17DOPE   H7Y 2161   6.660   1.349  16.781  0.5457  0.4573 -1.9789
   17DOPE   C38 2162   6.462   1.394  16.690 -0.1527  0.1211  0.1289
   17DOPE   H8X 2163   6.487   1.457  16.603 -0.4013  1.0186  0.6927
   17DOPE   H8Y 2164   6.364   1.421  16.736 -0.1400 -0.9450  0.8165
   17DOPE   C39 2165   6.456   1.246  16.650  0.6163  0.7513 -0.5314
   17DOPE   H9X 2166   6.469   1.186  16.742  1.0767  2.0327  0.2621
   17DOPE  C310 2167   6.427   1.191  16.530 -0.9270  0.6860  0.5544
   17DOPE  H10X 2168   6.408   1.083  16.523 -1.2192  0.7752 -0.1669
   17DOPE  C311 2169   6.422   1.256  16.396 -0.0291  0.0685  0.1258
   17DOPE  H11X 2170   6.372   1.190  16.321 -1.0977  3.1408 -2.0580
   17DOPE  H11Y 2171   6.360   1.348  16.401 -1.9701 -1.2104  1.0403
   17DOPE  C312 2172   6.568   1.288  16.356  0.2697  0.0333 -0.0790
   17DOPE  H12X 2173   6.646   1.224  16.402  0.4659  0.6722  0.4862
   17DOPE  H12Y 2174   6.593   1.386  16.402 -1.7801  0.6523 -0.1746
   17DOPE  C313 2175   6.586   1.311  16.205 -0.4006 -0.3721  0.2667
   17DOPE  H13X 2176   6.516   1.393  16.178  0.5476  0.7560  1.1400
   17DOPE  H13Y 2177   6.694   1.334  16.192 -0.0230  0.1945  3.5014
   17DOPE  C314 2178   6.552   1.194  16.119  0.6277  0.0803  0.6854
   17DOPE  H14X 2179   6.447   1.161  16.135 -0.1652  1.2199 -1.6864
   17DOPE  H14Y 2180   6.617   1.106  16.138  1.4137  0.6950  0.8950
   17DOPE  C315 2181   6.566   1.241  15.966  0.5246  0.2696 -0.3843
   17DOPE  H15X 2182   6.667   1.275  15.935  0.4030 -0.5274 -1.7312
   17DOPE  H15Y 2183   6.500   1.329  15.953  1.8539  1.3702  0.0798
   17DOPE  C316 2184   6.523   1.125  15.868  0.1693 -0.7568  0.8337
   17DOPE  H16X 2185   6.422   1.088  15.893 -0.1349  0.0057  0.7621
   17DOPE  H16Y 2186   6.585   1.034  15.883 -1.3583 -1.9137  0.3739
   17DOPE  C317 2187   6.512   1.171  15.722 -0.5137  0.1947 -0.0132
   17DOPE  H17X 2188   6.433   1.249  15.717  0.4180  1.0628 -2.3170
   17DOPE  H17Y 2189   6.605   1.219  15.685  0.4240 -1.6911 -0.2376
   17DOPE  C318 2190   6.461   1.052  15.635 -0.4589 -0.4804 -0.4664
   17DOPE  H18X 2191   6.452   1.084  15.529 -0.3546  0.9812 -0.0596
   17DOPE  H18Y 2192   6.536   0.972  15.622  1.6573  1.5716 -1.7188
   17DOPE  H18Z 2193   6.361   1.015  15.665  0.3458 -2.1961  0.2070
   18DOPE     N 2194   3.855   5.343  17.796  0.2374 -0.1332 -0.1794
   18DOPE   HN1 2195   3.795   5.323  17.713 -0.3098  1.0713 -0.0970
   18DOPE   HN2 2196   3.890   5.441  17.789 -1.5936  0.6496  0.6697
   18DOPE   HN3 2197   3.914   5.258  17.802  1.0450  0.2199 -2.3682
   18DOPE   C12 2198   3.758   5.335  17.913  0.3990 -0.1174  0.2019
   18DOPE  H12A 2199   3.703   5.431  17.900  5.5167  3.0324 -0.6703
   18DOPE  H12B 2200   3.822   5.335  18.004  0.7257  0.2311 -0.0292
   18DOPE   C11 2201   3.668   5.203  17.895 -0.4166 -0.6735  0.2433
   18DOPE  H11A 2202   3.610   5.188  17.989 -1.3384  0.2722 -0.1490
   18DOPE  H11B 2203   3.741   5.120  17.885 -0.8130 -1.2101  1.5827
   18DOPE     P 2204   3.549   5.079  17.696 -0.2372 -0.0179  0.3662
   18DOPE   O13 2205   3.462   5.111  17.579  0.2536 -0.0621  0.2013
   18DOPE   O14 2206   3.490   4.978  17.793  0.0918 -0.0919  0.0852
   18DOPE   O11 2207   3.694   5.046  17.640 -0.6215 -0.1186 -0.0183
   18DOPE   O12 2208   3.575   5.212  17.785 -0.1373 -0.3292  0.1692
   18DOPE    C1 2209   3.767   5.120  17.539  0.9888 -0.3149 -0.2076
   18DOPE    HA 2210   3.874   5.101  17.560  0.3016 -0.0773  4.5987
   18DOPE    HB 2211   3.745   5.229  17.551 -0.0093 -0.6648  1.4439
   18DOPE    C2 2212   3.724   5.091  17.395 -0.1696  0.0525 -0.4332
   18DOPE    HS 2213   3.616   5.118  17.385 -0.1730  0.8138  1.2753
   18DOPE   O21 2214   3.752   4.952  17.365  1.0069 -0.5637 -0.0209
   18DOPE   C21 2215   3.651   4.881  17.319 -0.0478 -0.0613 -0.5108
   18DOPE   O22 2216   3.544   4.926  17.281 -0.1601 -0.1321  0.0657
   18DOPE   C22 2217   3.690   4.730  17.316 -0.1639 -0.9292  0.0331
   18DOPE   H2R 2218   3.685   4.701  17.424  0.3666 -0.5660  0.1616
   18DOPE   H2S 2219   3.794   4.724  17.279 -0.4799 -1.5721 -0.7692
   18DOPE    C3 2220   3.801   5.177  17.297  0.2714 -0.0999 -0.0528
   18DOPE    HX 2221   3.910   5.155  17.294  0.3362  0.3122 -1.0196
   18DOPE    HY 2222   3.805   5.282  17.332 -3.1176  0.0511  0.2020
   18DOPE   O31 2223   3.759   5.190  17.166 -0.2666  0.2356 -0.3965
   18DOPE   C31 2224   3.641   5.240  17.146 -0.0606 -0.3214 -0.6935
   18DOPE   O32 2225   3.569   5.297  17.229 -0.0430 -0.0766 -0.0755
   18DOPE   C32 2226   3.608   5.218  17.002 -0.0971  0.6509  0.1314
   18DOPE   H2X 2227   3.666   5.278  16.929  0.0326 -0.7298 -0.9664
   18DOPE   H2Y 2228   3.621   5.109  16.982  2.4152  0.9445 -0.2263
   18DOPE   C23 2229   3.596   4.652  17.221  0.0437  0.1871 -0.0299
   18DOPE   H3R 2230   3.488   4.679  17.226 -0.4906 -1.0292 -2.8803
   18DOPE   H3S 2231   3.599   4.543  17.243 -0.6653  0.4423  1.4416
   18DOPE   C24 2232   3.629   4.680  17.073  0.0949  0.2618 -0.1482
   18DOPE   H4R 2233   3.738   4.659  17.062  0.6028  0.9319  2.6747
   18DOPE   H4S 2234   3.632   4.789  17.053  0.7284 -0.2468 -3.3183
   18DOPE   C25 2235   3.537   4.619  16.967  0.1524 -0.3138  0.2061
   18DOPE   H5R 2236   3.543   4.670  16.868  0.4689 -1.6423 -0.4897
   18DOPE   H5S 2237   3.435   4.636  17.007  0.7043 -0.0291  1.5247
   18DOPE   C26 2238   3.539   4.467  16.938 -0.8726  0.0484 -0.5925
   18DOPE   H6R 2239   3.438   4.455  16.893 -1.8635  0.3311  1.4138
   18DOPE   H6S 2240   3.549   4.413  17.035 -1.6245  1.3662  0.2550
   18DOPE   C27 2241   3.634   4.411  16.831 -0.1671 -0.6161 -0.1606
   18DOPE   H7R 2242   3.736   4.453  16.849 -1.0893  1.2626  1.0423
   18DOPE   H7S 2243   3.609   4.441  16.727 -0.0144 -1.2371 -0.3797
   18DOPE   C28 2244   3.655   4.259  16.829  0.5313 -0.0525 -0.4428
   18DOPE   H8R 2245   3.555   4.218  16.802 -0.4724  3.4741 -2.7950
   18DOPE   H8S 2246   3.695   4.224  16.927  2.4105  1.6162 -0.5602
   18DOPE   C29 2247   3.751   4.211  16.729  0.6042  0.0277 -0.4240
   18DOPE   H9R 2248   3.852   4.208  16.773  0.0742 -1.2436  0.7921
   18DOPE  C210 2249   3.730   4.147  16.612 -0.5183  0.3669  0.3602
   18DOPE  H10R 2250   3.815   4.117  16.549  0.0309  2.9373 -0.2771
   18DOPE  C211 2251   3.601   4.112  16.546  0.8715 -0.3072 -0.4488
   18DOPE  H11R 2252   3.521   4.134  16.619  0.9683  0.2850 -0.5147
   18DOPE  H11S 2253   3.596   4.004  16.524  1.5173 -0.4555  0.0736
   18DOPE  C212 2254   3.559   4.200  16.426 -0.6631  0.1668  0.1405
   18DOPE  H12R 2255   3.565   4.301  16.472  0.1081 -0.9368  2.6626
   18DOPE  H12S 2256   3.454   4.169  16.404 -0.8618  1.5508 -1.0515
   18DOPE  C213 2257   3.642   4.202  16.301  0.0240  1.0033 -0.2566
   18DOPE  H13R 2258   3.742   4.244  16.328  1.6097 -1.8771 -1.1855
   18DOPE  H13S 2259   3.605   4.274  16.225  0.6770  1.9035  0.2529
   18DOPE  C214 2260   3.677   4.067  16.243  0.0293 -0.1896  0.2751
   18DOPE  H14R 2261   3.702   3.987  16.316 -1.4050 -1.4731 -0.5705
   18DOPE  H14S 2262   3.768   4.069  16.179  1.4028 -1.1239  2.1080
   18DOPE  C215 2263   3.554   4.005  16.172 -0.3180  0.1845 -0.0560
   18DOPE  H15R 2264   3.474   3.999  16.249 -1.1716  0.1195 -0.9262
   18DOPE  H15S 2265   3.581   3.900  16.152 -0.8672 -0.3913  2.0590
   18DOPE  C216 2266   3.495   4.087  16.065  0.2308  0.4095  0.5043
   18DOPE  H16R 2267   3.576   4.130  16.001 -1.1723 -0.7564 -2.2482
   18DOPE  H16S 2268   3.444   4.173  16.112  0.0993  0.1185  0.8964
   18DOPE  C217 2269   3.411   4.009  15.967 -0.6699  0.8817  0.3026
   18DOPE  H17R 2270   3.342   4.075  15.910 -1.3965  0.2433  0.4246
   18DOPE  H17S 2271   3.347   3.934  16.019  0.7737 -0.9371 -0.4132
   18DOPE  C218 2272   3.495   3.932  15.864  0.1211 -0.1924 -0.2696
   18DOPE  H18R 2273   3.422   3.912  15.782 -2.3875  2.0980  1.2430
   18DOPE  H18S 2274   3.531   3.835  15.905 -1.2512 -0.4602  0.3571
   18DOPE  H18T 2275   3.575   4.001  15.827  0.8688 -1.2296 -0.6398
   18DOPE   C33 2276   3.456   5.231  16.969  0.3279  0.3760 -0.2566
   18DOPE   H3X 2277   3.428   5.338  16.985  0.9366  0.3938  0.7458
   18DOPE   H3Y 2278   3.390   5.166  17.030  0.4798  0.2547 -0.2220
   18DOPE   C34 2279   3.429   5.181  16.832  0.1081  0.4298  0.4988
   18DOPE   H4X 2280   3.335   5.223  16.791 -0.2363 -0.1814  0.6441
   18DOPE   H4Y 2281   3.510   5.227  16.772 -0.0836  0.6303  0.3919
   18DOPE   C35 2282   3.443   5.025  16.819 -0.1876 -0.7878 -0.0749
   18DOPE   H5X 2283   3.421   4.980  16.918 -0.4854 -0.0015  0.2185
   18DOPE   H5Y 2284   3.547   4.994  16.791  0.0997 -1.1503  1.3472
   18DOPE   C36 2285   3.332   4.962  16.728  0.2386  0.3102  0.1218
   18DOPE   H6X 2286   3.323   5.025  16.637  0.4198  0.4726  0.2155
   18DOPE   H6Y 2287   3.234   4.994  16.769 -0.0022  0.7176 -0.7523
   18DOPE   C37 2288   3.353   4.815  16.698 -0.3301 -0.1306 -0.0988
   18DOPE   H7X 2289   3.437   4.799  16.626 -0.9047  0.9519 -1.0524
   18DOPE   H7Y 2290   3.363   4.761  16.794  0.3730  2.0855  1.1413
   18DOPE   C38 2291   3.218   4.753  16.644  0.1365  0.4782 -0.3180
   18DOPE   H8X 2292   3.165   4.801  16.560 -2.6858 -1.4051  0.2551
   18DOPE   H8Y 2293   3.136   4.756  16.719 -1.3510 -3.4921 -1.5096
   18DOPE   C39 2294   3.237   4.605  16.616 -0.0055  0.0281 -0.3902
   18DOPE   H9X 2295   3.275   4.549  16.703 -0.2842  1.5344  0.7440
   18DOPE  C310 2296   3.216   4.546  16.499 -0.4267  0.1149  0.1921
   18DOPE  H10X 2297   3.214   4.436  16.496  1.0588  0.0524  0.6320
   18DOPE  C311 2298   3.160   4.629  16.388  0.3714  0.6010 -0.1978
   18DOPE  H11X 2299   3.069   4.684  16.420 -1.2689 -1.9739 -0.1878
   18DOPE  H11Y 2300   3.228   4.707  16.346 -1.2605  2.1145 -0.1603
   18DOPE  C312 2301   3.103   4.545  16.271  0.7245  0.3640  0.2451
   18DOPE  H12X 2302   3.031   4.604  16.211 -1.6005 -0.9816  1.5531
   18DOPE  H12Y 2303   3.039   4.469  16.322  0.2466  0.2887 -0.4647
   18DOPE  C313 2304   3.197   4.486  16.175 -0.0098  0.0268  0.0512
   18DOPE  H13X 2305   3.270   4.567  16.155 -1.5809  1.4119 -0.1523
   18DOPE  H13Y 2306   3.242   4.394  16.219  0.4236 -1.3119 -2.9418
   18DOPE  C314 2307   3.140   4.452  16.037  0.1436  0.8781 -0.1909
   18DOPE  H14X 2308   3.094   4.546  16.000 -1.1106  1.3096  2.3323
   18DOPE  H14Y 2309   3.071   4.367  16.047 -0.1745  1.3180  1.5513
   18DOPE  C315 2310   3.260   4.414  15.945 -0.0137  0.1914  0.3441
   18DOPE  H15X 2311   3.325   4.342  15.999 -0.1001 -2.0089 -2.2583
   18DOPE  H15Y 2312   3.324   4.504  15.936  2.0174 -0.6177  4.3297
   18DOPE  C316 2313   3.212   4.368  15.799 -0.0510  0.0833 -0.4190
   18DOPE  H16X 2314   3.134   4.290  15.811 -1.8211  1.6894 -1.0409
   18DOPE  H16Y 2315   3.301   4.327  15.746  1.8634  1.2518  1.7354
   18DOPE  C317 2316   3.145   4.483  15.720 -0.2404 -0.7727 -0.1583
   18DOPE  H17X 2317   3.059   4.512  15.784  0.2369 -1.1536  0.6754
   18DOPE  H17Y 2318   3.220   4.564  15.705 -0.4147 -0.0056  2.5508
   18DOPE  C318 2319   3.091   4.432  15.590  0.1118 -0.2640  0.6149
   18DOPE  H18X 2320   3.015   4.504  15.552 -0.6705 -0.8809  0.9736
   18DOPE  H18Y 2321   3.172   4.395  15.524 -2.4863 -2.2882 -1.7175
   18DOPE  H18Z 2322   3.044   4.334  15.613 -1.1969  0.4930  1.2978
   19DOPE     N 2323   4.171   5.949  18.137 -0.4543  0.7733  0.2004
   19DOPE   HN1 2324   4.110   6.033  18.136  0.2573  1.3136 -1.4515
   19DOPE   HN2 2325   4.258   5.971  18.189  1.1029  0.6299 -2.1922
   19DOPE   HN3 2326   4.199   5.937  18.037  2.3368 -0.5004  1.0421
   19DOPE   C12 2327   4.103   5.828  18.196  0.4188  0.2619 -0.4235
   19DOPE  H12A 2328   4.084   5.848  18.304 -0.4663  1.5206 -0.7799
   19DOPE  H12B 2329   4.176   5.747  18.178  2.5887  2.5703 -2.8007
   19DOPE   C11 2330   3.964   5.790  18.146 -0.3391 -0.0591  0.3788
   19DOPE  H11A 2331   3.876   5.849  18.179 -0.6902  0.7418 -1.8241
   19DOPE  H11B 2332   3.951   5.686  18.182  2.3517 -0.4475  0.4335
   19DOPE     P 2333   3.849   5.711  17.922 -0.2586 -0.0668  0.5136
   19DOPE   O13 2334   3.740   5.681  18.013  0.2157 -0.5440  0.2324
   19DOPE   O14 2335   3.909   5.600  17.846  0.0838 -0.0773 -0.0979
   19DOPE   O11 2336   3.796   5.815  17.817 -0.1076  0.8318  0.1530
   19DOPE   O12 2337   3.965   5.788  18.003 -0.1388  0.5712 -0.3708
   19DOPE    C1 2338   3.661   5.829  17.778  0.4002  0.2810 -0.4008
   19DOPE    HA 2339   3.656   5.925  17.721  0.2577 -0.5327 -1.7887
   19DOPE    HB 2340   3.595   5.839  17.867  0.7298 -0.9656 -0.0049
   19DOPE    C2 2341   3.595   5.710  17.695 -0.5027  0.1120  0.6436
   19DOPE    HS 2342   3.602   5.615  17.753 -0.2179  0.2969  0.9194
   19DOPE   O21 2343   3.661   5.690  17.568  0.1210 -0.5003 -0.2914
   19DOPE   C21 2344   3.707   5.571  17.535  0.3436 -0.2620 -0.0078
   19DOPE   O22 2345   3.687   5.466  17.590 -0.1677 -0.4686  0.7895
   19DOPE   C22 2346   3.776   5.576  17.393 -0.0895 -0.0133 -1.0128
   19DOPE   H2R 2347   3.838   5.484  17.396 -0.6390 -0.4738  3.2562
   19DOPE   H2S 2348   3.858   5.650  17.406  0.2427 -0.7124  1.5357
   19DOPE    C3 2349   3.442   5.732  17.673 -0.6837  0.4556 -0.1736
   19DOPE    HX 2350   3.445   5.842  17.666  0.6117  0.6685  2.3544
   19DOPE    HY 2351   3.376   5.720  17.762 -0.9333  0.2475 -0.3863
   19DOPE   O31 2352   3.391   5.661  17.564 -0.0328  0.3600  0.5339
   19DOPE   C31 2353   3.342   5.722  17.462  0.6950  0.2116  0.7334
   19DOPE   O32 2354   3.346   5.841  17.443  0.9415  0.2535 -0.0463
   19DOPE   C32 2355   3.296   5.608  17.376 -0.1478 -0.5449 -0.4027
   19DOPE   H2X 2356   3.373   5.531  17.360 -0.6459 -0.8630 -1.3560
   19DOPE   H2Y 2357   3.207   5.559  17.422 -0.7775 -0.5292 -1.5542
   19DOPE   C23 2358   3.683   5.608  17.277 -0.1947 -0.1823 -0.7008
   19DOPE   H3R 2359   3.637   5.706  17.303  0.4571  0.3217 -1.4259
   19DOPE   H3S 2360   3.602   5.532  17.273  1.9506 -2.9058  2.2211
   19DOPE   C24 2361   3.749   5.607  17.139 -0.1316 -0.9964  0.4777
   19DOPE   H4R 2362   3.806   5.512  17.136  1.1186 -0.2490 -0.9284
   19DOPE   H4S 2363   3.825   5.688  17.137  0.3174 -1.4072  0.8563
   19DOPE   C25 2364   3.647   5.623  17.027 -1.0653  0.3264 -0.4085
   19DOPE   H5R 2365   3.608   5.727  17.022 -0.6367  0.5061 -0.1099
   19DOPE   H5S 2366   3.570   5.546  17.049  2.4428 -2.9352  1.7851
   19DOPE   C26 2367   3.710   5.581  16.894  0.0949  0.5974  0.1078
   19DOPE   H6R 2368   3.744   5.476  16.905 -0.2930  0.3477 -1.0038
   19DOPE   H6S 2369   3.794   5.652  16.872  0.2589  0.8670  1.5223
   19DOPE   C27 2370   3.609   5.584  16.776  1.1281  0.6156  0.0109
   19DOPE   H7R 2371   3.552   5.679  16.777 -0.9800 -0.5732  1.5844
   19DOPE   H7S 2372   3.533   5.504  16.788  0.5748  1.1640  0.2105
   19DOPE   C28 2373   3.671   5.561  16.636 -0.5064 -0.0306  0.1893
   19DOPE   H8R 2374   3.737   5.647  16.613 -1.2307  0.5042  0.0775
   19DOPE   H8S 2375   3.593   5.562  16.557  1.3091 -0.4989 -1.6956
   19DOPE   C29 2376   3.747   5.432  16.637 -0.6772  0.2463  0.6342
   19DOPE   H9R 2377   3.834   5.434  16.705  0.1789 -1.6901 -0.3304
   19DOPE  C210 2378   3.724   5.327  16.552 -1.1941  0.0337  0.1786
   19DOPE  H10R 2379   3.791   5.240  16.564  1.3511  1.6407 -1.3228
   19DOPE  C211 2380   3.610   5.318  16.459 -0.6845 -0.3434  0.0530
   19DOPE  H11R 2381   3.539   5.403  16.473 -2.6978 -1.7803 -1.0170
   19DOPE  H11S 2382   3.547   5.231  16.485  0.0406 -0.1991  2.6748
   19DOPE  C212 2383   3.656   5.312  16.312 -0.1711  0.3769 -0.1522
   19DOPE  H12R 2384   3.571   5.292  16.243  0.9306 -1.1509 -1.1154
   19DOPE  H12S 2385   3.722   5.224  16.305 -0.8339 -0.0369 -1.6159
   19DOPE  C213 2386   3.734   5.437  16.258 -0.1018  0.5805  0.4287
   19DOPE  H13R 2387   3.805   5.469  16.337  2.2011  0.8172 -1.6057
   19DOPE  H13S 2388   3.676   5.530  16.237  0.4155  1.3075  2.0321
   19DOPE  C214 2389   3.819   5.409  16.128  0.5584  0.1422 -0.1874
   19DOPE  H14R 2390   3.894   5.329  16.145  1.9164  1.4031 -0.1119
   19DOPE  H14S 2391   3.879   5.499  16.103  0.2738 -0.2867 -2.6382
   19DOPE  C215 2392   3.736   5.385  16.007 -0.3318  0.5765 -0.4114
   19DOPE  H15R 2393   3.649   5.453  16.012 -2.0275 -1.5597  0.5685
   19DOPE  H15S 2394   3.683   5.288  16.013 -0.3048  0.5501 -0.6040
   19DOPE  C216 2395   3.818   5.370  15.877  0.4038 -0.0458 -0.0656
   19DOPE  H16R 2396   3.896   5.292  15.891  0.5554  0.0789 -0.2185
   19DOPE  H16S 2397   3.869   5.465  15.853 -1.8312  0.9982 -0.9332
   19DOPE  C217 2398   3.734   5.342  15.741 -0.1016 -0.6750 -0.2718
   19DOPE  H17R 2399   3.670   5.429  15.717  0.7053  0.1887  0.6463
   19DOPE  H17S 2400   3.667   5.257  15.764 -0.2825 -1.4436 -3.2162
   19DOPE  C218 2401   3.818   5.316  15.611  0.0004 -1.2188  0.1785
   19DOPE  H18R 2402   3.766   5.238  15.550 -0.7964 -0.3673 -0.2550
   19DOPE  H18S 2403   3.922   5.290  15.637  0.8306  0.3977 -1.3080
   19DOPE  H18T 2404   3.824   5.405  15.546 -0.1902 -0.2906  1.4024
   19DOPE   C33 2405   3.267   5.673  17.240 -0.0559 -0.6645  0.2816
   19DOPE   H3X 2406   3.346   5.744  17.208 -0.0430  0.4839  2.6730
   19DOPE   H3Y 2407   3.168   5.722  17.247  0.2400  0.0725 -0.5438
   19DOPE   C34 2408   3.260   5.567  17.126  1.0428 -0.8586 -0.3654
   19DOPE   H4X 2409   3.356   5.511  17.118  0.5614 -1.5912 -1.3427
   19DOPE   H4Y 2410   3.187   5.486  17.149 -1.4246  1.3579  0.0328
   19DOPE   C35 2411   3.214   5.623  16.997 -0.6704  0.4618  0.1923
   19DOPE   H5X 2412   3.291   5.701  16.977 -2.0031  1.9474  0.5995
   19DOPE   H5Y 2413   3.118   5.678  16.990  0.2629  2.0833 -0.3104
   19DOPE   C36 2414   3.226   5.519  16.885  0.9893  0.3100 -0.3504
   19DOPE   H6X 2415   3.173   5.425  16.910  2.1534 -0.0606  0.8307
   19DOPE   H6Y 2416   3.330   5.480  16.887  0.1775 -2.0645 -0.9121
   19DOPE   C37 2417   3.187   5.584  16.751 -0.0507 -0.2538  0.2288
   19DOPE   H7X 2418   3.077   5.594  16.746 -0.3107 -2.9321 -1.6931
   19DOPE   H7Y 2419   3.228   5.687  16.754 -1.5110  0.3406  0.7926
   19DOPE   C38 2420   3.245   5.507  16.630  0.5408  0.1590  0.0966
   19DOPE   H8X 2421   3.238   5.399  16.655 -1.8608 -0.6873 -3.4702
   19DOPE   H8Y 2422   3.349   5.539  16.611  0.9471  0.0171  1.8998
   19DOPE   C39 2423   3.158   5.522  16.504  0.0135 -0.1707  0.2105
   19DOPE   H9X 2424   3.060   5.472  16.502 -0.1797  0.0738  2.2209
   19DOPE  C310 2425   3.182   5.600  16.399  0.4797  0.0072  0.2080
   19DOPE  H10X 2426   3.119   5.594  16.309  0.1850  1.1356  0.3256
   19DOPE  C311 2427   3.299   5.693  16.384 -0.4681  0.3148  0.0491
   19DOPE  H11X 2428   3.260   5.791  16.348  4.4297  2.7201  0.5148
   19DOPE  H11Y 2429   3.353   5.729  16.474  1.1860  0.5414 -1.0018
   19DOPE  C312 2430   3.417   5.647  16.294 -0.1081 -0.0775  0.4017
   19DOPE  H12X 2431   3.473   5.569  16.349 -0.0221  0.1136  0.5855
   19DOPE  H12Y 2432   3.488   5.732  16.287  0.1604 -0.1934  1.5121
   19DOPE  C313 2433   3.379   5.584  16.161 -0.0004 -0.2082 -0.0285
   19DOPE  H13X 2434   3.477   5.548  16.125  0.0902 -0.0438  0.0565
   19DOPE  H13Y 2435   3.316   5.495  16.183  0.4561 -0.2191  1.2925
   19DOPE  C314 2436   3.323   5.673  16.052  0.9890  0.2314  0.4295
   19DOPE  H14X 2437   3.397   5.754  16.035 -0.6214  1.7097  0.1459
   19DOPE  H14Y 2438   3.226   5.722  16.076 -0.6389 -2.6892  0.3804
   19DOPE  C315 2439   3.309   5.587  15.920 -0.5502  0.1181  0.3569
   19DOPE  H15X 2440   3.252   5.495  15.944 -0.8994  0.2515  0.0519
   19DOPE  H15Y 2441   3.408   5.539  15.903 -0.1159  0.8309  0.8110
   19DOPE  C316 2442   3.265   5.668  15.797 -0.0004 -0.6896 -0.4142
   19DOPE  H16X 2443   3.344   5.744  15.780 -1.2237  0.6827 -0.1692
   19DOPE  H16Y 2444   3.169   5.719  15.822  2.9345  5.3819  0.2659
   19DOPE  C317 2445   3.258   5.572  15.673  0.6689 -0.7389  0.1653
   19DOPE  H17X 2446   3.193   5.483  15.688 -1.9891  0.7692 -1.5640
   19DOPE  H17Y 2447   3.209   5.627  15.590 -0.3554 -1.2472  0.4117
   19DOPE  C318 2448   3.390   5.529  15.623 -0.3240  0.0284 -0.2316
   19DOPE  H18X 2449   3.471   5.604  15.627  1.1758 -1.3701 -2.1828
   19DOPE  H18Y 2450   3.438   5.445  15.678  1.0918  0.5989 -0.5535
   19DOPE  H18Z 2451   3.377   5.497  15.517  0.4491  1.0047 -0.6342
   20DOPE     N 2452   3.230   1.337  17.286 -0.0776  0.1949  0.0982
   20DOPE   HN1 2453   3.201   1.237  17.288  2.1325 -0.5340 -0.6648
   20DOPE   HN2 2454   3.332   1.332  17.268 -0.3101  1.0470 -1.6961
   20DOPE   HN3 2455   3.209   1.384  17.376 -0.0846  1.1824 -0.4002
   20DOPE   C12 2456   3.177   1.426  17.171 -0.1578  0.5857  0.0429
   20DOPE  H12A 2457   3.069   1.400  17.161 -0.0424 -0.4440  1.1915
   20DOPE  H12B 2458   3.219   1.387  17.076 -1.9826 -0.9345 -0.1842
   20DOPE   C11 2459   3.203   1.573  17.196 -0.2222 -0.6422 -0.0767
   20DOPE  H11A 2460   3.152   1.635  17.119  1.9191  0.6795 -0.5006
   20DOPE  H11B 2461   3.307   1.606  17.176  0.0141 -1.8226 -0.9012
   20DOPE     P 2462   3.008   1.615  17.363 -0.0839  0.4404  0.8002
   20DOPE   O13 2463   2.973   1.720  17.459  0.4622 -0.2148 -0.1066
   20DOPE   O14 2464   2.976   1.473  17.396  0.1546 -0.1264 -0.3741
   20DOPE   O11 2465   2.943   1.639  17.226  0.1612 -0.1729  0.3624
   20DOPE   O12 2466   3.162   1.619  17.322 -0.8186 -0.0073 -0.1575
   20DOPE    C1 2467   2.928   1.773  17.182  0.1940  0.1167  0.2723
   20DOPE    HA 2468   3.029   1.820  17.183 -0.2756  1.1716  0.2178
   20DOPE    HB 2469   2.870   1.833  17.256 -0.1241  1.6654 -1.1690
   20DOPE    C2 2470   2.853   1.791  17.042  0.1319  0.4254  0.5652
   20DOPE    HS 2471   2.847   1.900  17.019 -0.3406  0.1460 -0.7307
   20DOPE   O21 2472   2.725   1.722  17.038 -0.3168 -0.0933 -0.4306
   20DOPE   C21 2473   2.629   1.779  17.108  0.7983  0.1401 -0.0713
   20DOPE   O22 2474   2.644   1.882  17.170  0.3081  0.1740 -0.0747
   20DOPE   C22 2475   2.494   1.718  17.090 -0.1910  0.2556 -0.1665
   20DOPE   H2R 2476   2.431   1.712  17.182 -0.9901  1.4274 -0.6192
   20DOPE   H2S 2477   2.497   1.611  17.058 -0.9109 -0.2182  1.2330
   20DOPE    C3 2478   2.953   1.725  16.938 -0.3409 -0.3737 -0.5708
   20DOPE    HX 2479   2.978   1.629  16.989 -2.4725 -1.6467 -1.8072
   20DOPE    HY 2480   3.048   1.782  16.931 -0.6200  0.4028  1.2795
   20DOPE   O31 2481   2.895   1.689  16.810  0.2871 -0.0347  0.1189
   20DOPE   C31 2482   2.858   1.796  16.737  0.7875  0.0540  0.4793
   20DOPE   O32 2483   2.899   1.907  16.756 -0.4915 -0.5266 -0.1595
   20DOPE   C32 2484   2.747   1.753  16.643 -0.0352 -0.4443 -0.1543
   20DOPE   H2X 2485   2.739   1.642  16.635  0.2674 -0.3581 -2.4324
   20DOPE   H2Y 2486   2.655   1.790  16.692  1.0061 -1.2125  2.5527
   20DOPE   C23 2487   2.409   1.803  16.984 -0.1904  0.5829 -0.4386
   20DOPE   H3R 2488   2.454   1.897  16.944  2.4991 -0.7199 -0.6711
   20DOPE   H3S 2489   2.311   1.811  17.035  1.0187  1.1872  1.9483
   20DOPE   C24 2490   2.393   1.715  16.851  0.3952 -0.1592 -0.5641
   20DOPE   H4R 2491   2.331   1.626  16.873  2.6499 -1.7343 -0.1459
   20DOPE   H4S 2492   2.490   1.671  16.819  1.4399 -0.1062  2.2395
   20DOPE   C25 2493   2.329   1.794  16.737 -0.2286 -0.3214 -0.1102
   20DOPE   H5R 2494   2.406   1.865  16.698  0.5624 -1.5713 -0.8682
   20DOPE   H5S 2495   2.241   1.849  16.776 -2.0842 -3.5976  0.6619
   20DOPE   C26 2496   2.294   1.711  16.610 -0.3163  0.0596  0.4439
   20DOPE   H6R 2497   2.210   1.641  16.630 -1.3705  0.6739 -1.5486
   20DOPE   H6S 2498   2.386   1.650  16.598 -1.4863 -2.1947  2.1717
   20DOPE   C27 2499   2.267   1.782  16.478 -0.3644  0.0185 -0.1891
   20DOPE   H7R 2500   2.347   1.857  16.459 -0.4364 -0.6613 -3.6966
   20DOPE   H7S 2501   2.171   1.836  16.486 -0.7308 -0.7264  0.7954
   20DOPE   C28 2502   2.241   1.686  16.361  0.3164 -0.3324  0.3500
   20DOPE   H8R 2503   2.159   1.617  16.391  0.9486 -2.2353 -1.9472
   20DOPE   H8S 2504   2.324   1.616  16.337  0.3775 -0.0955 -0.1364
   20DOPE   C29 2505   2.198   1.762  16.238  0.1045 -0.2839 -0.9157
   20DOPE   H9R 2506   2.172   1.868  16.250 -1.5694 -0.6828 -0.8175
   20DOPE  C210 2507   2.207   1.716  16.114 -0.2006 -0.3217  0.0089
   20DOPE  H10R 2508   2.182   1.780  16.028 -1.8684 -0.2795  0.4864
   20DOPE  C211 2509   2.272   1.586  16.070  0.3528  0.1344 -0.4216
   20DOPE  H11R 2510   2.209   1.504  16.110 -0.6703  0.3943 -1.4460
   20DOPE  H11S 2511   2.364   1.570  16.131 -1.6929  0.9920  3.1939
   20DOPE  C212 2512   2.306   1.572  15.923 -0.4665 -0.6470 -0.5735
   20DOPE  H12R 2513   2.377   1.486  15.922  1.4837  0.8449  0.5198
   20DOPE  H12S 2514   2.368   1.660  15.895  0.0651  0.0283  2.3807
   20DOPE  C213 2515   2.181   1.549  15.836 -0.6710 -0.7099  0.2574
   20DOPE  H13R 2516   2.131   1.647  15.823 -0.5221 -0.7988 -1.1026
   20DOPE  H13S 2517   2.102   1.489  15.888 -2.1798 -0.4691 -1.6360
   20DOPE  C214 2518   2.217   1.485  15.700 -0.6667  0.2702 -0.4357
   20DOPE  H14R 2519   2.128   1.466  15.637  0.7069 -1.2903 -2.0199
   20DOPE  H14S 2520   2.278   1.393  15.714  0.2302  1.0459  0.9199
   20DOPE  C215 2521   2.319   1.579  15.620  0.5825  0.2338 -0.0794
   20DOPE  H15R 2522   2.401   1.608  15.689  0.5279 -1.9592  1.0080
   20DOPE  H15S 2523   2.257   1.665  15.588 -1.7545 -0.8988  1.1778
   20DOPE  C216 2524   2.385   1.509  15.503 -0.5881 -0.2530 -0.0530
   20DOPE  H16R 2525   2.438   1.418  15.537 -2.9045 -1.1799  1.2799
   20DOPE  H16S 2526   2.468   1.576  15.470  1.4886 -2.8138 -0.3377
   20DOPE  C217 2527   2.298   1.475  15.383  0.1018  0.3520  0.0629
   20DOPE  H17R 2528   2.218   1.408  15.420  1.0667 -1.9075 -1.7024
   20DOPE  H17S 2529   2.366   1.414  15.320  2.2102 -0.6011  2.9848
   20DOPE  C218 2530   2.232   1.595  15.311 -0.5583 -0.3556 -0.0573
   20DOPE  H18R 2531   2.317   1.655  15.273 -2.1179  1.5058 -0.7883
   20DOPE  H18S 2532   2.183   1.646  15.397 -0.3940 -1.3958  0.6703
   20DOPE  H18T 2533   2.164   1.563  15.229  0.0523  0.8661 -1.0667
   20DOPE   C33 2534   2.770   1.816  16.500 -0.2574 -0.6636 -0.2479
   20DOPE   H3X 2535   2.854   1.766  16.448 -1.1280 -3.1224  0.5784
   20DOPE   H3Y 2536   2.799   1.923  16.513 -1.0530 -0.3852 -0.6911
   20DOPE   C34 2537   2.643   1.796  16.407 -0.0766  0.0572  0.1863
   20DOPE   H4X 2538   2.596   1.696  16.411 -1.5666  0.7302  0.1364
   20DOPE   H4Y 2539   2.571   1.862  16.460 -0.7433 -1.6443  1.4664
   20DOPE   C35 2540   2.679   1.833  16.260 -0.3249 -0.2674 -0.5819
   20DOPE   H5X 2541   2.742   1.925  16.254  0.8805 -1.1361 -2.7880
   20DOPE   H5Y 2542   2.592   1.849  16.193  0.3839  1.6275 -1.1262
   20DOPE   C36 2543   2.754   1.713  16.197 -0.0042  0.1431 -0.5036
   20DOPE   H6X 2544   2.675   1.636  16.191  1.3024 -1.1942 -1.1858
   20DOPE   H6Y 2545   2.838   1.685  16.263 -1.1730 -0.0581  0.9297
   20DOPE   C37 2546   2.798   1.735  16.049 -0.1137 -0.5088  0.8143
   20DOPE   H7X 2547   2.858   1.828  16.061 -0.5958 -0.2851  1.5435
   20DOPE   H7Y 2548   2.857   1.644  16.024 -1.2913 -1.6496  2.0598
   20DOPE   C38 2549   2.681   1.754  15.948 -0.2693  0.4173 -0.1141
   20DOPE   H8X 2550   2.629   1.844  15.986  0.7973  0.3337  1.6446
   20DOPE   H8Y 2551   2.606   1.671  15.950  0.1103  0.0801  0.4216
   20DOPE   C39 2552   2.714   1.787  15.806  0.5327 -0.2696  0.4774
   20DOPE   H9X 2553   2.727   1.895  15.791  3.3045 -0.1377  2.8157
   20DOPE  C310 2554   2.713   1.707  15.697  0.4721  0.0130 -0.3387
   20DOPE  H10X 2555   2.754   1.743  15.602  0.7631  1.9538  0.4565
   20DOPE  C311 2556   2.691   1.559  15.700  0.3170  0.0995 -0.7355
   20DOPE  H11X 2557   2.691   1.519  15.804 -1.6369 -0.5185 -0.9443
   20DOPE  H11Y 2558   2.588   1.536  15.668 -0.1718 -0.8613  1.3563
   20DOPE  C312 2559   2.799   1.478  15.638  0.1665  0.2470 -0.3358
   20DOPE  H12X 2560   2.783   1.374  15.674  0.5851  0.2555 -0.1199
   20DOPE  H12Y 2561   2.901   1.508  15.671 -0.0464  1.4031 -0.6956
   20DOPE  C313 2562   2.788   1.477  15.485  0.9005  0.0533 -0.5348
   20DOPE  H13X 2563   2.681   1.454  15.468  0.2185  3.4066 -1.5895
   20DOPE  H13Y 2564   2.811   1.578  15.444  2.9282 -0.0576  0.2220
   20DOPE  C314 2565   2.879   1.371  15.418  0.0896  0.2634 -0.4978
   20DOPE  H14X 2566   2.853   1.277  15.471  0.9092 -0.2191 -0.9492
   20DOPE  H14Y 2567   2.984   1.399  15.440  0.0142  0.2925 -0.1743
   20DOPE  C315 2568   2.851   1.356  15.268  0.7721  0.1260  0.4039
   20DOPE  H15X 2569   2.871   1.458  15.227  0.5484 -0.5523 -1.5050
   20DOPE  H15Y 2570   2.743   1.334  15.260  1.0792 -2.9557  2.9653
   20DOPE  C316 2571   2.931   1.246  15.196  0.0511 -0.3884 -0.1867
   20DOPE  H16X 2572   2.902   1.144  15.228 -1.7747  0.3992  0.8014
   20DOPE  H16Y 2573   3.040   1.254  15.219  0.5691 -0.3543 -2.3964
   20DOPE  C317 2574   2.926   1.248  15.042 -0.1458  0.0416  0.3347
   20DOPE  H17X 2575   2.820   1.251  15.007  0.9193 -0.5149 -3.4729
   20DOPE  H17Y 2576   2.977   1.343  15.013 -3.2025  2.3130  1.7739
   20DOPE  C318 2577   2.985   1.125  14.978 -0.3706 -0.2501  0.4193
   20DOPE  H18X 2578   2.927   1.037  15.016 -0.4552 -0.2824  0.2180
   20DOPE  H18Y 2579   2.970   1.135  14.869  0.1188  1.2362  0.4704
   20DOPE  H18Z 2580   3.092   1.114  15.004  0.1871  0.7798 -1.3167
   21DOPE     N 2581   5.977   1.992  17.609 -0.0069 -0.2180  0.0172
   21DOPE   HN1 2582   5.894   2.034  17.563  0.6867 -0.7757 -1.8267
   21DOPE   HN2 2583   5.961   1.893  17.636  0.8553 -0.2883  0.3040
   21DOPE   HN3 2584   6.002   2.053  17.690 -0.0216 -0.1735 -0.0128
   21DOPE   C12 2585   6.095   2.001  17.517 -0.3442 -0.2939  0.1784
   21DOPE  H12A 2586   6.158   2.080  17.563  0.2566 -0.9208  0.4347
   21DOPE  H12B 2587   6.063   2.054  17.424 -0.2280 -0.5652 -0.0148
   21DOPE   C11 2588   6.161   1.863  17.514  0.3380 -0.0463 -0.1019
   21DOPE  H11A 2589   6.257   1.867  17.458  0.0214  2.0871 -0.5922
   21DOPE  H11B 2590   6.094   1.795  17.459  1.7410 -1.4554 -0.1442
   21DOPE     P 2591   6.304   1.835  17.727 -0.2751 -0.0893 -0.4306
   21DOPE   O13 2592   6.296   1.758  17.850  0.1199  0.2111 -0.0651
   21DOPE   O14 2593   6.335   1.976  17.739 -0.1126 -0.1646 -0.1025
   21DOPE   O11 2594   6.411   1.776  17.636 -0.5579  0.0120  0.3886
   21DOPE   O12 2595   6.172   1.808  17.645  0.0669 -0.0241  0.5845
   21DOPE    C1 2596   6.424   1.636  17.610 -0.4748  0.2764 -0.2032
   21DOPE    HA 2597   6.336   1.591  17.559  0.5180 -0.8188 -1.0161
   21DOPE    HB 2598   6.445   1.582  17.705  1.3195  1.0464 -0.1380
   21DOPE    C2 2599   6.546   1.621  17.512 -0.5552 -0.4097 -0.3369
   21DOPE    HS 2600   6.630   1.678  17.555  0.9778 -1.6254 -1.6193
   21DOPE   O21 2601   6.504   1.670  17.382 -0.3562  0.0007  0.1158
   21DOPE   C21 2602   6.592   1.742  17.309  0.9131 -0.3728 -0.2060
   21DOPE   O22 2603   6.698   1.784  17.344 -0.5740 -0.6385  0.4090
   21DOPE   C22 2604   6.532   1.748  17.166  0.8191  0.3815 -0.1208
   21DOPE   H2R 2605   6.435   1.802  17.163  1.0984  0.8362 -1.9564
   21DOPE   H2S 2606   6.523   1.644  17.130  1.2665  0.6011 -0.9052
   21DOPE    C3 2607   6.586   1.469  17.511 -0.1333 -0.4081 -0.2475
   21DOPE    HX 2608   6.490   1.414  17.503  0.7504 -2.5342  2.3316
   21DOPE    HY 2609   6.616   1.459  17.617  0.3290  0.3749 -0.2992
   21DOPE   O31 2610   6.682   1.419  17.414  0.2532 -0.1212 -0.0095
   21DOPE   C31 2611   6.802   1.463  17.435 -0.2743  0.0975 -0.1419
   21DOPE   O32 2612   6.833   1.537  17.528  0.2425  0.1251  0.4253
   21DOPE   C32 2613   6.902   1.420  17.325  0.7101  0.0378 -0.0026
   21DOPE   H2X 2614   7.005   1.451  17.352 -0.0132  3.0936 -0.4494
   21DOPE   H2Y 2615   6.879   1.311  17.332 -1.8901  0.4811 -0.5611
   21DOPE   C23 2616   6.630   1.820  17.073  0.0488 -0.1961  0.3079
   21DOPE   H3R 2617   6.729   1.771  17.064  0.1353  0.1723 -0.9782
   21DOPE   H3S 2618   6.640   1.923  17.115  1.6073  1.0465 -2.7433
   21DOPE   C24 2619   6.566   1.828  16.934 -0.0081 -0.3893  0.2169
   21DOPE   H4R 2620   6.471   1.885  16.946 -0.1114 -0.4539 -0.2529
   21DOPE   H4S 2621   6.526   1.729  16.901 -0.8831 -0.5627  1.7024
   21DOPE   C25 2622   6.654   1.879  16.823  0.9635  0.8906 -0.4578
   21DOPE   H5R 2623   6.751   1.827  16.841  0.4499 -0.9358 -2.5796
   21DOPE   H5S 2624   6.657   1.990  16.828 -1.5020  0.9717  0.0040
   21DOPE   C26 2625   6.590   1.844  16.693  0.0555 -0.4425  0.3844
   21DOPE   H6R 2626   6.491   1.895  16.692 -0.1845 -0.9058 -0.6078
   21DOPE   H6S 2627   6.564   1.736  16.699 -2.3357  0.1349  2.2479
   21DOPE   C27 2628   6.686   1.882  16.576  0.0729 -0.8400  0.3000
   21DOPE   H7R 2629   6.775   1.817  16.588  0.4073 -0.0401  2.6439
   21DOPE   H7S 2630   6.725   1.983  16.600 -1.6099  0.5801 -2.3288
   21DOPE   C28 2631   6.627   1.880  16.433  0.6770 -0.3612 -0.2932
   21DOPE   H8R 2632   6.702   1.892  16.352 -0.0170 -1.8491 -1.2118
   21DOPE   H8S 2633   6.559   1.966  16.414  1.2114 -0.3714 -2.6201
   21DOPE   C29 2634   6.552   1.756  16.400  0.2251 -0.3062 -0.0101
   21DOPE   H9R 2635   6.472   1.738  16.473 -0.7331 -0.4662 -1.0620
   21DOPE  C210 2636   6.575   1.674  16.299 -0.2765  0.7058 -0.6854
   21DOPE  H10R 2637   6.504   1.590  16.293 -1.2793  1.6294 -2.9585
   21DOPE  C211 2638   6.688   1.683  16.204  0.3082 -0.1225  1.0319
   21DOPE  H11R 2639   6.761   1.600  16.220 -1.8735 -2.3465  0.0763
   21DOPE  H11S 2640   6.733   1.784  16.195  0.7487 -0.4398 -0.6930
   21DOPE  C212 2641   6.635   1.646  16.064 -0.8605  0.1456  0.3141
   21DOPE  H12R 2642   6.551   1.713  16.038 -1.2366 -0.8577 -1.1696
   21DOPE  H12S 2643   6.590   1.544  16.059 -1.5670  0.4894 -0.4135
   21DOPE  C213 2644   6.736   1.674  15.951 -0.5747 -0.4378  0.4685
   21DOPE  H13R 2645   6.826   1.618  15.982 -1.6206 -1.8946  0.9532
   21DOPE  H13S 2646   6.773   1.778  15.939  1.2942 -1.0529  0.5471
   21DOPE  C214 2647   6.687   1.639  15.810  0.2363  0.8128  0.0825
   21DOPE  H14R 2648   6.589   1.686  15.785 -0.9803 -1.4899  0.2751
   21DOPE  H14S 2649   6.668   1.530  15.816  0.2255  0.6419 -2.1788
   21DOPE  C215 2650   6.786   1.662  15.704 -0.0726 -0.0075  0.5527
   21DOPE  H15R 2651   6.870   1.591  15.714  1.2479  1.6064  1.3664
   21DOPE  H15S 2652   6.835   1.761  15.712  0.5363 -0.1374 -1.2779
   21DOPE  C216 2653   6.718   1.641  15.568  0.3557 -0.9654 -0.5425
   21DOPE  H16R 2654   6.630   1.579  15.596 -0.0305  0.1376  0.7796
   21DOPE  H16S 2655   6.782   1.579  15.501 -0.9083 -1.5546 -1.2550
   21DOPE  C217 2656   6.687   1.782  15.506 -0.2869  0.2060  0.2662
   21DOPE  H17R 2657   6.782   1.834  15.482 -1.7160  2.8078 -0.0602
   21DOPE  H17S 2658   6.636   1.845  15.582  1.6424 -0.5726  2.3360
   21DOPE  C218 2659   6.602   1.765  15.380  0.2106  0.3741  0.6244
   21DOPE  H18R 2660   6.496   1.742  15.402  0.3236 -1.3190 -0.4560
   21DOPE  H18S 2661   6.638   1.681  15.318 -2.0223  0.9598 -1.6253
   21DOPE  H18T 2662   6.603   1.862  15.326  2.3346  0.9446  1.5978
   21DOPE   C33 2663   6.873   1.472  17.177  0.7272  0.3101 -0.2039
   21DOPE   H3X 2664   6.891   1.581  17.175  2.4052  0.0497 -0.6983
   21DOPE   H3Y 2665   6.766   1.453  17.155  0.8827  0.7930 -1.4080
   21DOPE   C34 2666   6.961   1.406  17.067 -0.5003  0.6385  0.1005
   21DOPE   H4X 2667   7.068   1.429  17.088 -0.3654  1.9891 -1.8698
   21DOPE   H4Y 2668   6.950   1.296  17.053  0.3982  0.3933  1.1406
   21DOPE   C35 2669   6.926   1.467  16.931 -0.0174 -0.0594  0.5443
   21DOPE   H5X 2670   6.946   1.576  16.921 -1.6290  0.0727 -2.1598
   21DOPE   H5Y 2671   6.816   1.456  16.933 -0.0234 -0.9778  4.7615
   21DOPE   C36 2672   6.999   1.408  16.811 -0.8428 -0.2279 -0.0150
   21DOPE   H6X 2673   6.979   1.299  16.808 -1.3853 -0.1338  0.1688
   21DOPE   H6Y 2674   7.108   1.426  16.820 -0.9209 -0.0592  0.6175
   21DOPE   C37 2675   6.953   1.472  16.684  0.4602 -0.5472 -0.0586
   21DOPE   H7X 2676   6.872   1.402  16.654  0.5155 -0.5600 -0.1770
   21DOPE   H7Y 2677   6.907   1.572  16.694 -0.0675 -0.7020 -0.8462
   21DOPE   C38 2678   7.048   1.482  16.567 -0.3972 -0.1637 -0.3425
   21DOPE   H8X 2679   7.140   1.533  16.604 -0.0811 -0.7182 -0.3619
   21DOPE   H8Y 2680   7.013   1.539  16.478  0.2518 -0.8689 -1.0555
   21DOPE   C39 2681   7.070   1.336  16.535  0.3170  0.5385 -0.1475
   21DOPE   H9X 2682   7.139   1.288  16.607  0.6702 -3.2787 -2.7297
   21DOPE  C310 2683   7.034   1.260  16.430  0.2679  0.5305  0.0989
   21DOPE  H10X 2684   7.062   1.154  16.428  0.5026  0.5960 -1.2265
   21DOPE  C311 2685   6.946   1.294  16.308 -0.2063 -0.9526  0.6803
   21DOPE  H11X 2686   6.849   1.242  16.307 -1.1904  0.7959 -0.3210
   21DOPE  H11Y 2687   6.926   1.402  16.291 -1.9886 -1.5112 -1.1603
   21DOPE  C312 2688   7.020   1.259  16.178  0.9703  0.3834  0.5601
   21DOPE  H12X 2689   7.014   1.149  16.166 -0.0920  0.6097 -1.1942
   21DOPE  H12Y 2690   7.128   1.284  16.174  1.4124 -1.4881 -1.0727
   21DOPE  C313 2691   6.946   1.313  16.058 -0.2385  1.0182 -0.3834
   21DOPE  H13X 2692   6.851   1.256  16.067  0.5486 -0.2796 -0.2173
   21DOPE  H13Y 2693   6.929   1.423  16.068 -1.2530  0.7898  0.7030
   21DOPE  C314 2694   7.020   1.273  15.925  0.0200 -0.4761  0.3262
   21DOPE  H14X 2695   7.073   1.175  15.932  2.4199  0.7926  1.0289
   21DOPE  H14Y 2696   7.095   1.353  15.907  1.8307 -2.4729 -1.6509
   21DOPE  C315 2697   6.929   1.274  15.802  0.3507  0.0623  0.1409
   21DOPE  H15X 2698   6.892   1.378  15.790  0.9441  0.4312  1.3628
   21DOPE  H15Y 2699   6.843   1.205  15.814  0.3395  0.0912  0.2226
   21DOPE  C316 2700   7.008   1.244  15.678 -0.2948  0.0828  0.6171
   21DOPE  H16X 2701   7.053   1.146  15.705 -0.3027  0.0493  0.5102
   21DOPE  H16Y 2702   7.095   1.311  15.663  1.3646 -1.8707  1.1859
   21DOPE  C317 2703   6.921   1.240  15.547 -0.6925 -0.4966 -0.9334
   21DOPE  H17X 2704   6.832   1.173  15.551 -1.7424  0.8365  2.5192
   21DOPE  H17Y 2705   6.877   1.342  15.548  1.2503  0.3809 -0.3760
   21DOPE  C318 2706   7.009   1.211  15.426 -0.0779  0.3377  0.5487
   21DOPE  H18X 2707   7.024   1.101  15.427 -1.6126  0.0591 -1.4281
   21DOPE  H18Y 2708   6.949   1.237  15.336 -1.4295 -1.1080  0.9921
   21DOPE  H18Z 2709   7.107   1.265  15.425  0.2489 -0.2279 -1.1463
   22DOPE     N 2710   3.251   6.318  18.047  0.4287  0.3280  0.3814
   22DOPE   HN1 2711   3.195   6.232  18.065  0.3133  0.5017  0.8663
   22DOPE   HN2 2712   3.226   6.379  18.128  1.0293  0.4358  0.4870
   22DOPE   HN3 2713   3.221   6.364  17.960 -0.4175  1.4036  1.2098
   22DOPE   C12 2714   3.400   6.294  18.038  0.2927 -0.2981  0.4447
   22DOPE  H12A 2715   3.417   6.212  17.965  3.9483 -0.7489  1.5708
   22DOPE  H12B 2716   3.436   6.248  18.133 -0.7341 -0.1985  0.8940
   22DOPE   C11 2717   3.471   6.424  17.998  0.0676  0.9413  0.1412
   22DOPE  H11A 2718   3.580   6.403  17.992 -0.3129 -1.0071 -0.5972
   22DOPE  H11B 2719   3.455   6.485  18.090 -0.7733 -1.1235  1.4414
   22DOPE     P 2720   3.462   6.637  17.837 -0.3891  0.1607 -0.0225
   22DOPE   O13 2721   3.526   6.703  17.954  0.3919 -0.5054  0.0129
   22DOPE   O14 2722   3.345   6.710  17.778  0.1605  0.1709 -0.3746
   22DOPE   O11 2723   3.573   6.616  17.727  0.5379  0.3145 -0.1768
   22DOPE   O12 2724   3.424   6.489  17.876  0.5788 -0.4058  0.4368
   22DOPE    C1 2725   3.580   6.504  17.639  0.3493 -0.0552 -0.8973
   22DOPE    HA 2726   3.536   6.410  17.680  0.0813  0.2747 -0.4211
   22DOPE    HB 2727   3.686   6.480  17.616  1.3352  2.5506  0.4579
   22DOPE    C2 2728   3.507   6.534  17.504  0.0618  0.3124 -0.5931
   22DOPE    HS 2729   3.398   6.533  17.522  0.1803  0.9776  0.2668
   22DOPE   O21 2730   3.556   6.435  17.411 -0.0822  0.3936 -0.5087
   22DOPE   C21 2731   3.494   6.318  17.411  0.0261  0.0627  0.5280
   22DOPE   O22 2732   3.409   6.289  17.495  0.2500 -0.1948 -0.2151
   22DOPE   C22 2733   3.528   6.232  17.287  0.0784 -0.4476 -0.6223
   22DOPE   H2R 2734   3.638   6.236  17.273  0.1262  3.6919 -0.2900
   22DOPE   H2S 2735   3.487   6.282  17.197 -0.7637 -0.9381 -0.5121
   22DOPE    C3 2736   3.544   6.685  17.462 -0.6630 -0.1156  0.2763
   22DOPE    HX 2737   3.655   6.690  17.469 -0.6666  1.0541 -0.2979
   22DOPE    HY 2738   3.502   6.752  17.540  0.1882  0.2637  0.4220
   22DOPE   O31 2739   3.509   6.727  17.328 -0.0983  0.5133 -0.0718
   22DOPE   C31 2740   3.382   6.774  17.313 -0.2641 -0.3776 -0.0477
   22DOPE   O32 2741   3.296   6.768  17.399 -0.0831 -0.2200  0.2920
   22DOPE   C32 2742   3.361   6.809  17.166 -0.3428 -0.1621  0.6228
   22DOPE   H2X 2743   3.335   6.713  17.118  1.3189 -0.5190  0.3876
   22DOPE   H2Y 2744   3.276   6.882  17.167 -0.2073  0.0151 -0.0461
   22DOPE   C23 2745   3.478   6.088  17.311 -0.5926  0.1653 -0.1255
   22DOPE   H3R 2746   3.373   6.084  17.347 -0.4474 -0.4004  0.2640
   22DOPE   H3S 2747   3.542   6.033  17.384 -0.2289 -1.0333 -1.3033
   22DOPE   C24 2748   3.479   6.013  17.181  0.3873  0.8999  0.3252
   22DOPE   H4R 2749   3.469   5.902  17.188 -1.2305  1.0049  0.0732
   22DOPE   H4S 2750   3.578   6.024  17.131  0.0014  0.5762 -0.5296
   22DOPE   C25 2751   3.382   6.049  17.071 -0.5693 -0.4793  0.7195
   22DOPE   H5R 2752   3.337   6.145  17.104  0.2588  0.3925 -0.5890
   22DOPE   H5S 2753   3.308   5.967  17.071 -1.8334  0.5997  2.1439
   22DOPE   C26 2754   3.455   6.061  16.938 -0.1711 -0.0437  0.0399
   22DOPE   H6R 2755   3.510   5.966  16.923 -1.9492 -1.5082  2.0625
   22DOPE   H6S 2756   3.521   6.150  16.943 -1.2417  0.8777 -1.4375
   22DOPE   C27 2757   3.355   6.084  16.824 -0.0315  0.1551  0.2864
   22DOPE   H7R 2758   3.290   6.164  16.865 -0.2251 -0.3263  0.9308
   22DOPE   H7S 2759   3.292   5.994  16.804  0.6575 -0.1102 -0.7486
   22DOPE   C28 2760   3.420   6.136  16.694  0.1143 -0.3194 -0.4865
   22DOPE   H8R 2761   3.510   6.072  16.679  0.1929 -0.1356 -0.8029
   22DOPE   H8S 2762   3.461   6.239  16.706  0.7260 -0.6228  0.1516
   22DOPE   C29 2763   3.317   6.133  16.585 -0.4831 -0.4606 -0.1502
   22DOPE   H9R 2764   3.214   6.148  16.623 -0.0442 -0.3434  1.0512
   22DOPE  C210 2765   3.344   6.120  16.456  0.0230  0.1657 -0.4239
   22DOPE  H10R 2766   3.260   6.123  16.385  1.1798  2.9456 -1.8408
   22DOPE  C211 2767   3.482   6.112  16.391  0.2916  0.8885  0.3836
   22DOPE  H11R 2768   3.502   6.003  16.384  0.3830  0.9986 -1.5248
   22DOPE  H11S 2769   3.561   6.158  16.454 -1.4363  0.6920  2.8276
   22DOPE  C212 2770   3.495   6.162  16.242  0.1670 -0.0921 -0.3540
   22DOPE  H12R 2771   3.599   6.133  16.213  0.8271  0.3661  1.3816
   22DOPE  H12S 2772   3.480   6.272  16.246  1.2533  0.0796 -0.5969
   22DOPE  C213 2773   3.397   6.090  16.154  0.0041  0.5488  0.0240
   22DOPE  H13R 2774   3.291   6.120  16.168 -0.6259 -1.7593  0.8003
   22DOPE  H13S 2775   3.394   5.979  16.168 -1.0255  0.6017  0.3241
   22DOPE  C214 2776   3.447   6.092  16.007 -0.2512 -0.7027 -0.5779
   22DOPE  H14R 2777   3.548   6.047  15.997 -0.1861 -1.2412  1.7942
   22DOPE  H14S 2778   3.467   6.199  15.986  2.1069 -0.8628  0.5088
   22DOPE  C215 2779   3.342   6.038  15.908  0.3181  0.1078  0.1619
   22DOPE  H15R 2780   3.253   6.105  15.907 -0.6683 -1.1804 -0.2255
   22DOPE  H15S 2781   3.306   5.939  15.943  1.6426  0.0778  1.5375
   22DOPE  C216 2782   3.388   6.037  15.763 -0.1032  0.2627 -0.5795
   22DOPE  H16R 2783   3.464   5.956  15.764 -0.1204  0.1595  2.5852
   22DOPE  H16S 2784   3.445   6.131  15.746  0.6594  0.1518  1.0642
   22DOPE  C217 2785   3.280   6.025  15.660  0.3641 -0.1594  0.3373
   22DOPE  H17R 2786   3.203   6.100  15.689  0.9748 -0.4733  2.9399
   22DOPE  H17S 2787   3.242   5.921  15.673 -0.5159  0.3498  2.1135
   22DOPE  C218 2788   3.328   6.037  15.516 -1.0456 -0.1166  0.1309
   22DOPE  H18R 2789   3.397   6.123  15.505  0.3486 -1.2993 -0.7954
   22DOPE  H18S 2790   3.250   6.045  15.437 -0.4639  0.3570 -0.4041
   22DOPE  H18T 2791   3.398   5.951  15.502 -0.0489  0.5866  0.6523
   22DOPE   C33 2792   3.485   6.868  17.097  0.5678  0.4192 -0.1726
   22DOPE   H3X 2793   3.569   6.795  17.096  0.3845  0.1925  0.4405
   22DOPE   H3Y 2794   3.515   6.957  17.157 -0.6986 -0.5285  1.9844
   22DOPE   C34 2795   3.449   6.906  16.949  0.4580  0.1555  0.2498
   22DOPE   H4X 2796   3.344   6.876  16.927  0.6447 -0.5515  0.2834
   22DOPE   H4Y 2797   3.455   7.017  16.946 -1.8446  0.3628  1.5175
   22DOPE   C35 2798   3.550   6.835  16.845  0.1610 -0.0113  0.5211
   22DOPE   H5X 2799   3.556   6.733  16.890  1.9761  0.8790  2.4677
   22DOPE   H5Y 2800   3.654   6.870  16.834  0.5528 -1.4247 -0.6012
   22DOPE   C36 2801   3.482   6.841  16.703  0.3002 -0.2902 -0.3729
   22DOPE   H6X 2802   3.435   6.942  16.698 -0.0184 -0.4252 -0.1230
   22DOPE   H6Y 2803   3.400   6.767  16.690 -1.3561  1.4265 -0.2521
   22DOPE   C37 2804   3.583   6.825  16.590  0.5653 -0.3595 -0.0194
   22DOPE   H7X 2805   3.666   6.898  16.600  0.5146 -0.3331  0.2236
   22DOPE   H7Y 2806   3.620   6.721  16.597 -0.0558 -0.6947 -1.3600
   22DOPE   C38 2807   3.523   6.839  16.445 -0.0220  0.0220 -0.2435
   22DOPE   H8X 2808   3.484   6.943  16.432 -1.9890 -0.5328  0.8223
   22DOPE   H8Y 2809   3.441   6.765  16.437  0.3242 -0.5965  1.5824
   22DOPE   C39 2810   3.618   6.801  16.341 -0.1151  0.6545 -0.0939
   22DOPE   H9X 2811   3.723   6.818  16.369  0.5827  0.8476 -2.5780
   22DOPE  C310 2812   3.595   6.740  16.222  0.1608 -0.7340  0.2105
   22DOPE  H10X 2813   3.683   6.723  16.159 -0.0787  1.4695 -0.8109
   22DOPE  C311 2814   3.457   6.701  16.170 -0.0782  0.0348  1.2600
   22DOPE  H11X 2815   3.383   6.678  16.250 -0.5638 -2.8066  0.0980
   22DOPE  H11Y 2816   3.417   6.783  16.106  1.6266  2.0802  2.6501
   22DOPE  C312 2817   3.471   6.570  16.083  0.2569 -0.1649 -0.3911
   22DOPE  H12X 2818   3.368   6.530  16.066  0.2775 -0.2354 -0.3510
   22DOPE  H12Y 2819   3.520   6.497  16.150  0.3543  1.6818  1.6497
   22DOPE  C313 2820   3.532   6.589  15.941  0.1893  0.3937 -0.1927
   22DOPE  H13X 2821   3.629   6.643  15.940 -0.3073  1.4758  2.1808
   22DOPE  H13Y 2822   3.550   6.486  15.904  0.2155  0.1216  0.5613
   22DOPE  C314 2823   3.435   6.664  15.848 -0.1789 -0.4039 -0.0344
   22DOPE  H14X 2824   3.407   6.753  15.909  1.6903  0.0977  0.1809
   22DOPE  H14Y 2825   3.345   6.600  15.840 -0.6353  0.2121  0.1527
   22DOPE  C315 2826   3.494   6.701  15.709  0.5049  0.3686  1.2118
   22DOPE  H15X 2827   3.409   6.711  15.639  1.7771  1.5136 -0.2321
   22DOPE  H15Y 2828   3.564   6.619  15.680  1.0765  1.2349  0.0748
   22DOPE  C316 2829   3.573   6.837  15.711  0.3258  0.0443  0.1622
   22DOPE  H16X 2830   3.632   6.854  15.618  0.4084 -0.2103  0.1675
   22DOPE  H16Y 2831   3.648   6.833  15.793 -1.5005  1.2659  1.9916
   22DOPE  C317 2832   3.484   6.962  15.728  0.9823 -0.2595  0.0893
   22DOPE  H17X 2833   3.432   6.960  15.826  1.8684  0.6950  0.5973
   22DOPE  H17Y 2834   3.554   7.048  15.722  0.0281  0.4464 -3.9091
   22DOPE  C318 2835   3.379   6.987  15.616  0.0560  0.1237  0.4196
   22DOPE  H18X 2836   3.439   6.979  15.523  0.5461  3.2391  0.3415
   22DOPE  H18Y 2837   3.292   6.920  15.604  1.2599 -1.7958  1.8088
   22DOPE  H18Z 2838   3.327   7.085  15.628 -1.4765 -0.5317 -0.6526
   23DOPE     N 2839   0.990   2.362  17.538 -0.0092 -0.5305 -0.1036
   23DOPE   HN1 2840   1.080   2.325  17.573  0.0669 -0.7004 -0.4692
   23DOPE   HN2 2841   0.981   2.331  17.439  1.2027 -0.2044 -0.3280
   23DOPE   HN3 2842   0.972   2.464  17.547 -1.2922 -0.5533 -1.8064
   23DOPE   C12 2843   0.882   2.301  17.617 -0.5525 -0.0938  0.4701
   23DOPE  H12A 2844   0.790   2.278  17.559 -0.2905 -1.8051  0.6781
   23DOPE  H12B 2845   0.837   2.372  17.690 -0.5127  1.2013 -0.7215
   23DOPE   C11 2846   0.928   2.163  17.660  0.4682  0.0959 -0.5418
   23DOPE  H11A 2847   0.842   2.100  17.693  1.8308 -1.1797  0.6893
   23DOPE  H11B 2848   0.993   2.172  17.749 -0.5336  0.1570  0.2037
   23DOPE     P 2849   1.090   1.972  17.580  0.5406 -0.1581 -0.5028
   23DOPE   O13 2850   0.992   1.863  17.604  0.9888  0.2070  0.1998
   23DOPE   O14 2851   1.192   1.994  17.685 -0.5942 -0.0864 -0.3712
   23DOPE   O11 2852   1.166   1.944  17.443  0.3864 -0.1309  0.0319
   23DOPE   O12 2853   0.998   2.095  17.559 -0.7760  0.1538 -0.3953
   23DOPE    C1 2854   1.078   1.904  17.333 -0.0039  0.0294  0.6509
   23DOPE    HA 2855   0.983   1.851  17.354 -2.0598  0.6224 -5.3193
   23DOPE    HB 2856   1.139   1.839  17.268  0.0788  0.2212  0.5365
   23DOPE    C2 2857   1.044   2.026  17.240  0.1215 -0.1558  0.2334
   23DOPE    HS 2858   0.957   2.084  17.278  0.8874  0.6164  0.8353
   23DOPE   O21 2859   1.008   1.961  17.118 -0.5720  0.4666  0.5222
   23DOPE   C21 2860   0.878   1.910  17.105  0.3251 -0.1433 -0.0405
   23DOPE   O22 2861   0.802   1.894  17.194  0.2532  0.2766  0.1876
   23DOPE   C22 2862   0.860   1.864  16.962  1.0870 -0.2772  0.0299
   23DOPE   H2R 2863   0.751   1.877  16.944  0.7037 -0.3271  2.1235
   23DOPE   H2S 2864   0.892   1.759  16.948 -0.8076 -0.8076 -0.7237
   23DOPE    C3 2865   1.164   2.125  17.229 -0.6930 -0.0121 -0.1784
   23DOPE    HX 2866   1.257   2.072  17.199 -0.9504 -0.3250 -0.4347
   23DOPE    HY 2867   1.190   2.167  17.328 -1.0750 -2.7333  1.1508
   23DOPE   O31 2868   1.150   2.222  17.127 -0.0906 -0.2085  0.3792
   23DOPE   C31 2869   1.063   2.318  17.143 -0.2890 -0.3569 -0.4845
   23DOPE   O32 2870   1.012   2.342  17.252  0.0410  0.0093  0.7228
   23DOPE   C32 2871   1.055   2.406  17.018 -0.0036  0.1596  0.4154
   23DOPE   H2X 2872   0.946   2.401  17.000  0.1199 -0.9638 -0.1668
   23DOPE   H2Y 2873   1.086   2.507  17.053 -1.4984  0.3950  1.1336
   23DOPE   C23 2874   0.938   1.941  16.860  0.2863 -0.8914  0.0885
   23DOPE   H3R 2875   1.048   1.935  16.876  0.0451 -3.1290  1.2233
   23DOPE   H3S 2876   0.913   2.049  16.873 -0.6583 -1.1498  0.5729
   23DOPE   C24 2877   0.896   1.904  16.721  0.2034  0.1026  0.1295
   23DOPE   H4R 2878   0.786   1.917  16.710  0.2650 -0.5993 -1.5029
   23DOPE   H4S 2879   0.917   1.799  16.693  1.1858  1.0082 -2.8516
   23DOPE   C25 2880   0.965   1.979  16.605 -0.2208  0.6399 -0.0417
   23DOPE   H5R 2881   1.075   1.963  16.615 -0.3019  0.9039  1.5716
   23DOPE   H5S 2882   0.948   2.088  16.615 -0.9741  0.3680  2.3274
   23DOPE   C26 2883   0.925   1.919  16.469  0.0409 -0.3483 -0.2080
   23DOPE   H6R 2884   0.818   1.948  16.464  0.8876  4.1974  2.3935
   23DOPE   H6S 2885   0.931   1.808  16.469 -3.1312 -0.6823  2.4678
   23DOPE   C27 2886   1.005   1.973  16.360  0.1644  0.4407  0.0719
   23DOPE   H7R 2887   1.111   1.947  16.380 -0.4697 -2.2237  0.3697
   23DOPE   H7S 2888   1.002   2.084  16.361 -0.3439  0.4365  1.6833
   23DOPE   C28 2889   0.962   1.909  16.223 -0.1092  0.2763 -0.8032
   23DOPE   H8R 2890   0.973   1.799  16.228  2.0079  0.4824  0.2833
   23DOPE   H8S 2891   1.042   1.936  16.151  1.6173 -0.4623  0.7364
   23DOPE   C29 2892   0.826   1.933  16.175  0.3844 -0.1723 -0.3078
   23DOPE   H9R 2893   0.757   1.874  16.237  1.4371  0.1806  1.2422
   23DOPE  C210 2894   0.776   1.993  16.064 -0.4904 -0.1368 -0.3713
   23DOPE  H10R 2895   0.669   1.991  16.039 -0.3854  1.0988 -1.0062
   23DOPE  C211 2896   0.859   2.054  15.955  0.2721 -1.2117  0.6818
   23DOPE  H11R 2897   0.964   2.018  15.960  0.4433 -0.6495  1.1391
   23DOPE  H11S 2898   0.856   2.164  15.964 -1.7036 -1.1659 -0.1295
   23DOPE  C212 2899   0.809   2.022  15.812 -0.6362 -0.4134  0.1430
   23DOPE  H12R 2900   0.702   2.044  15.792 -1.1835 -2.1025  1.0064
   23DOPE  H12S 2901   0.824   1.916  15.781  0.5134 -0.1195 -0.3514
   23DOPE  C213 2902   0.891   2.105  15.711 -0.6909 -0.2610 -0.1257
   23DOPE  H13R 2903   0.988   2.051  15.706 -0.9342 -1.1743  2.8358
   23DOPE  H13S 2904   0.908   2.209  15.746 -0.7244  0.2247 -1.5047
   23DOPE  C214 2905   0.817   2.122  15.578 -0.7953 -0.3820  0.1078
   23DOPE  H14R 2906   0.716   2.161  15.602 -0.5295  0.1572  0.3728
   23DOPE  H14S 2907   0.798   2.023  15.530  0.5901 -1.5406  1.8246
   23DOPE  C215 2908   0.889   2.205  15.474 -0.7630  0.6198  0.4461
   23DOPE  H15R 2909   0.979   2.145  15.448 -0.4075  2.5873 -3.7545
   23DOPE  H15S 2910   0.922   2.301  15.519 -0.6662  1.2267 -0.8558
   23DOPE  C216 2911   0.800   2.227  15.348  0.3338  0.5368  0.0914
   23DOPE  H16R 2912   0.714   2.294  15.368 -0.0620 -0.0455  0.3838
   23DOPE  H16S 2913   0.760   2.129  15.312  1.4306 -0.2899  1.0363
   23DOPE  C217 2914   0.882   2.300  15.238  0.2716  0.7699  0.6955
   23DOPE  H17R 2915   0.931   2.388  15.286 -1.8060  3.0116 -1.0737
   23DOPE  H17S 2916   0.812   2.347  15.166  0.3350  2.0131  1.4145
   23DOPE  C218 2917   0.973   2.207  15.165  0.4820  0.6062 -0.1351
   23DOPE  H18R 2918   0.928   2.129  15.100  0.5011  0.3833  0.1158
   23DOPE  H18S 2919   1.054   2.177  15.235 -0.9925 -1.3558  0.8502
   23DOPE  H18T 2920   1.019   2.274  15.090 -1.0794  0.9666 -0.8153
   23DOPE   C33 2921   1.143   2.358  16.894  0.1345  0.1056  0.4982
   23DOPE   H3X 2922   1.135   2.247  16.887  1.8908 -0.1115  1.4970
   23DOPE   H3Y 2923   1.250   2.374  16.917  0.5898 -0.6435 -0.9866
   23DOPE   C34 2924   1.108   2.428  16.763 -0.6138 -0.0235  0.6463
   23DOPE   H4X 2925   1.000   2.415  16.742  0.0965 -0.9186 -3.2651
   23DOPE   H4Y 2926   1.124   2.536  16.780 -1.4946 -0.0924  2.0792
   23DOPE   C35 2927   1.194   2.386  16.641  0.0178 -0.2992  0.1794
   23DOPE   H5X 2928   1.181   2.277  16.624  0.2231 -0.3037  0.0503
   23DOPE   H5Y 2929   1.299   2.402  16.672  0.1523 -0.6219 -0.1059
   23DOPE   C36 2930   1.164   2.458  16.508  0.9261  0.4800 -0.0419
   23DOPE   H6X 2931   1.227   2.549  16.495 -0.7750  1.3641 -2.7825
   23DOPE   H6Y 2932   1.055   2.478  16.510  0.8187 -0.0418 -0.6392
   23DOPE   C37 2933   1.195   2.372  16.389 -0.2269 -0.0297 -0.1542
   23DOPE   H7X 2934   1.299   2.331  16.385 -1.1047 -2.4809  0.2907
   23DOPE   H7Y 2935   1.130   2.282  16.390  1.0083 -0.9502  1.1259
   23DOPE   C38 2936   1.178   2.465  16.267  0.2997 -0.0780 -0.2424
   23DOPE   H8X 2937   1.264   2.535  16.264  0.9257 -0.8168 -0.0231
   23DOPE   H8Y 2938   1.079   2.514  16.262 -0.0635 -0.7148  0.4693
   23DOPE   C39 2939   1.199   2.388  16.138 -0.2166 -0.6142  0.1177
   23DOPE   H9X 2940   1.217   2.280  16.149 -1.4217 -0.6288  2.5152
   23DOPE  C310 2941   1.192   2.446  16.012  1.0140 -0.0599 -0.1972
   23DOPE  H10X 2942   1.214   2.386  15.922 -0.5349  0.1430 -0.7550
   23DOPE  C311 2943   1.145   2.586  16.000 -0.0229 -0.4285  0.4546
   23DOPE  H11X 2944   1.044   2.603  16.043 -0.1262  0.2215 -0.0283
   23DOPE  H11Y 2945   1.208   2.662  16.050 -0.7144  0.1789  0.4070
   23DOPE  C312 2946   1.131   2.618  15.849  0.0407 -0.2174  0.5040
   23DOPE  H12X 2947   1.231   2.619  15.802  0.1462 -0.0730  0.7260
   23DOPE  H12Y 2948   1.087   2.719  15.837 -0.0077 -0.3345 -0.3211
   23DOPE  C313 2949   1.046   2.517  15.771 -0.1620  0.2037  0.1228
   23DOPE  H13X 2950   1.102   2.426  15.743  0.1237 -0.5952  2.9650
   23DOPE  H13Y 2951   0.960   2.492  15.838 -0.8205  2.5328  0.2648
   23DOPE  C314 2952   0.980   2.583  15.641  0.4707  0.5866  0.4820
   23DOPE  H14X 2953   0.927   2.675  15.674 -0.6851  0.4624 -0.9291
   23DOPE  H14Y 2954   0.909   2.505  15.607  0.4312 -0.0163  1.8949
   23DOPE  C315 2955   1.079   2.598  15.527  0.3537  0.7897 -0.0906
   23DOPE  H15X 2956   1.115   2.500  15.490  1.0993  0.9197  0.2867
   23DOPE  H15Y 2957   1.176   2.644  15.553  0.1750  1.7073 -0.9861
   23DOPE  C316 2958   1.018   2.664  15.400 -1.0349  1.0038  0.0143
   23DOPE  H16X 2959   0.972   2.764  15.413  0.5730  1.6924  0.6019
   23DOPE  H16Y 2960   0.949   2.594  15.348  1.8199 -1.7451 -0.3661
   23DOPE  C317 2961   1.121   2.680  15.288 -0.3917  0.0850  0.5527
   23DOPE  H17X 2962   1.202   2.748  15.321  0.4101 -0.2074 -0.7121
   23DOPE  H17Y 2963   1.177   2.585  15.273 -1.8535 -0.8023  0.5379
   23DOPE  C318 2964   1.067   2.736  15.151  0.0689  0.0333 -0.2864
   23DOPE  H18X 2965   1.155   2.757  15.087  0.7919 -4.7326 -1.2510
   23DOPE  H18Y 2966   1.003   2.665  15.094  1.9086 -1.5328 -0.5147
   23DOPE  H18Z 2967   1.008   2.829  15.164 -1.4590 -0.6509 -1.8870
   24DOPE     N 2968   2.851   1.232  17.540 -0.3382  0.4689 -0.0632
   24DOPE   HN1 2969   2.762   1.284  17.553  0.3039  1.8139 -0.7812
   24DOPE   HN2 2970   2.902   1.217  17.629  0.3697  0.1552 -0.5101
   24DOPE   HN3 2971   2.913   1.286  17.476 -1.7883 -0.1653 -2.0994
   24DOPE   C12 2972   2.809   1.097  17.489 -1.1068 -0.0601 -0.0315
   24DOPE  H12A 2973   2.718   1.108  17.425 -0.8168  1.0422 -0.2727
   24DOPE  H12B 2974   2.789   1.037  17.580 -2.5981  1.8814  1.0054
   24DOPE   C11 2975   2.927   1.039  17.406 -0.5387  0.2653 -0.7238
   24DOPE  H11A 2976   2.960   1.103  17.321  1.4486  0.1381 -0.1069
   24DOPE  H11B 2977   2.883   0.943  17.370 -1.4289  0.9913 -1.6196
   24DOPE     P 2978   3.168   1.086  17.508  0.2945 -0.2887  0.2565
   24DOPE   O13 2979   3.260   1.003  17.588 -0.4421 -0.5408 -0.1940
   24DOPE   O14 2980   3.142   1.230  17.547  0.2525  0.3092 -0.1829
   24DOPE   O11 2981   3.217   1.085  17.363  0.2222  0.4199  0.4932
   24DOPE   O12 2982   3.035   1.005  17.501 -0.2157 -0.1633  0.4274
   24DOPE    C1 2983   3.289   0.973  17.307 -0.6017  0.3436 -0.2398
   24DOPE    HA 2984   3.257   0.873  17.345 -0.3777  0.9830  1.7901
   24DOPE    HB 2985   3.396   0.983  17.332  0.3485 -1.1900 -3.2515
   24DOPE    C2 2986   3.287   0.970  17.149 -0.3963 -0.6475  0.0876
   24DOPE    HS 2987   3.319   1.068  17.107 -0.1129 -0.6410  0.3193
   24DOPE   O21 2988   3.154   0.937  17.109 -0.0295  0.1127  0.0923
   24DOPE   C21 2989   3.069   1.033  17.092 -0.4378  0.2221 -0.3803
   24DOPE   O22 2990   3.090   1.151  17.116  0.5578  0.0376  0.3342
   24DOPE   C22 2991   2.932   0.977  17.048 -0.1016 -0.2614 -0.2708
   24DOPE   H2R 2992   2.856   1.029  17.109 -1.3996 -1.4228 -0.8245
   24DOPE   H2S 2993   2.914   0.871  17.075 -2.6886 -0.0093 -0.7874
   24DOPE    C3 2994   3.383   0.851  17.114 -0.0463 -0.1370  0.1924
   24DOPE    HX 2995   3.348   0.761  17.168  1.1630 -0.8118 -0.1257
   24DOPE    HY 2996   3.485   0.868  17.155  0.3769  0.8472 -1.1969
   24DOPE   O31 2997   3.376   0.834  16.970  0.4059 -0.2620  0.1957
   24DOPE   C31 2998   3.467   0.896  16.900  0.1919 -0.7062  0.3246
   24DOPE   O32 2999   3.554   0.967  16.949 -1.0507 -0.5190  0.4400
   24DOPE   C32 3000   3.449   0.858  16.754  0.4344 -0.3367  0.2727
   24DOPE   H2X 3001   3.447   0.747  16.745 -0.6344 -0.3246  0.1567
   24DOPE   H2Y 3002   3.352   0.906  16.727  0.2453 -0.9190 -0.1001
   24DOPE   C23 3003   2.909   1.007  16.895  0.0060 -0.2842 -0.6702
   24DOPE   H3R 3004   2.970   1.096  16.870 -1.3124  0.3449 -1.7677
   24DOPE   H3S 3005   2.801   1.027  16.877  0.1981  0.6854 -0.7931
   24DOPE   C24 3006   2.945   0.890  16.801  0.4261  0.4049  0.1436
   24DOPE   H4R 3007   2.890   0.794  16.814 -0.3602  0.7698 -0.3871
   24DOPE   H4S 3008   3.051   0.857  16.799 -0.2463 -2.0556  1.1661
   24DOPE   C25 3009   2.912   0.941  16.665  0.1308 -0.0235  0.3467
   24DOPE   H5R 3010   2.979   1.023  16.632  1.7359 -2.6156 -3.5954
   24DOPE   H5S 3011   2.807   0.971  16.645  0.1855 -0.1987 -0.2161
   24DOPE   C26 3012   2.940   0.826  16.557  0.7006  0.6109  0.0543
   24DOPE   H6R 3013   2.900   0.726  16.586  0.9681 -0.0374 -1.6979
   24DOPE   H6S 3014   3.049   0.807  16.545  0.4700 -0.8193  0.0270
   24DOPE   C27 3015   2.874   0.860  16.424 -0.3428 -0.0204 -0.1172
   24DOPE   H7R 3016   2.902   0.959  16.383 -1.5732 -0.0342 -1.0414
   24DOPE   H7S 3017   2.766   0.880  16.440 -0.3496 -0.5663  0.5655
   24DOPE   C28 3018   2.908   0.759  16.309  0.0208  0.5102  0.2704
   24DOPE   H8R 3019   3.012   0.722  16.317 -0.5863 -1.1929  0.6237
   24DOPE   H8S 3020   2.903   0.819  16.215 -1.9710  0.2577  0.1593
   24DOPE   C29 3021   2.817   0.637  16.318  0.1110 -0.5778  0.3702
   24DOPE   H9R 3022   2.769   0.614  16.414  1.6896 -0.7601  1.1380
   24DOPE  C210 3023   2.790   0.572  16.209 -0.0785 -0.5800 -0.2285
   24DOPE  H10R 3024   2.711   0.496  16.215  0.6893 -1.4192 -0.4414
   24DOPE  C211 3025   2.867   0.585  16.082  0.3417 -0.1390  0.0045
   24DOPE  H11R 3026   2.906   0.483  16.058  2.6167 -0.4609  4.0434
   24DOPE  H11S 3027   2.969   0.622  16.106  1.2121 -0.6061 -2.6330
   24DOPE  C212 3028   2.804   0.663  15.964  0.3611  0.9177  0.7676
   24DOPE  H12R 3029   2.885   0.704  15.900  0.9319 -0.7708  0.3455
   24DOPE  H12S 3030   2.737   0.741  16.005  0.2152  1.6516 -0.8265
   24DOPE  C213 3031   2.726   0.570  15.868 -0.8047 -0.5078  0.1263
   24DOPE  H13R 3032   2.651   0.520  15.933  0.0687 -1.5745  0.3302
   24DOPE  H13S 3033   2.793   0.487  15.836 -1.0156 -0.6015 -0.0717
   24DOPE  C214 3034   2.667   0.640  15.746  0.0865  0.2913 -0.4275
   24DOPE  H14R 3035   2.751   0.694  15.696  0.2303  0.1014 -0.3918
   24DOPE  H14S 3036   2.615   0.728  15.789  2.6310  1.4706  0.4693
   24DOPE  C215 3037   2.586   0.546  15.660 -0.1398  0.5923  0.2806
   24DOPE  H15R 3038   2.499   0.516  15.722  1.2719  0.9009  2.5099
   24DOPE  H15S 3039   2.655   0.460  15.643 -1.8478 -0.8394  0.3108
   24DOPE  C216 3040   2.530   0.614  15.537 -0.1005  0.5480 -0.1824
   24DOPE  H16R 3041   2.589   0.706  15.517  1.7142 -0.6206 -0.4400
   24DOPE  H16S 3042   2.431   0.650  15.571  0.4478  1.2677  0.7061
   24DOPE  C217 3043   2.523   0.535  15.405  0.4916  0.3828 -0.0640
   24DOPE  H17R 3044   2.626   0.506  15.374  0.5360  0.6759 -0.1868
   24DOPE  H17S 3045   2.480   0.604  15.330 -1.1834 -0.5950 -0.0508
   24DOPE  C218 3046   2.445   0.405  15.413 -0.2319  0.1444  0.3705
   24DOPE  H18R 3047   2.459   0.348  15.318  0.9257 -1.0778  1.2379
   24DOPE  H18S 3048   2.340   0.436  15.427  0.4229  3.2471 -0.7309
   24DOPE  H18T 3049   2.487   0.332  15.486  1.1614 -1.1419 -1.5858
   24DOPE   C33 3050   3.562   0.909  16.662  0.4926  0.0579  1.1030
   24DOPE   H3X 3051   3.657   0.854  16.680  2.6021  3.2062  0.3656
   24DOPE   H3Y 3052   3.577   1.018  16.677  1.7351 -0.2782  2.5409
   24DOPE   C34 3053   3.533   0.882  16.512 -0.3239  0.1058 -0.1887
   24DOPE   H4X 3054   3.622   0.923  16.458 -0.0219 -0.3720 -0.0570
   24DOPE   H4Y 3055   3.536   0.772  16.495 -0.7684  0.2144 -1.0203
   24DOPE   C35 3056   3.391   0.942  16.453 -1.1859  0.3791  0.0069
   24DOPE   H5X 3057   3.410   1.051  16.441  1.2074  0.1317  0.9412
   24DOPE   H5Y 3058   3.318   0.912  16.532 -0.4512  0.2482  0.6462
   24DOPE   C36 3059   3.349   0.888  16.316  0.1788  0.6885  0.0906
   24DOPE   H6X 3060   3.342   0.777  16.320  2.1231  0.4874 -0.7103
   24DOPE   H6Y 3061   3.429   0.905  16.240 -1.8928 -1.0429 -2.6452
   24DOPE   C37 3062   3.216   0.943  16.266  0.0966  0.3585 -0.0255
   24DOPE   H7X 3063   3.182   0.886  16.177 -0.3419  1.8564 -0.8635
   24DOPE   H7Y 3064   3.134   0.933  16.340  0.1497 -1.6671 -0.1925
   24DOPE   C38 3065   3.221   1.091  16.231 -0.1048  0.0096 -0.0656
   24DOPE   H8X 3066   3.303   1.094  16.156  1.9590  1.2293  2.1016
   24DOPE   H8Y 3067   3.253   1.162  16.310 -0.7295 -0.4600  0.6120
   24DOPE   C39 3068   3.090   1.130  16.170  0.3831  0.0399 -0.3589
   24DOPE   H9X 3069   3.078   1.099  16.065  0.3463  0.7732 -0.5759
   24DOPE  C310 3070   2.994   1.182  16.241  0.1516 -0.2515 -0.1971
   24DOPE  H10X 3071   2.892   1.178  16.199  1.1591  1.3477 -3.0496
   24DOPE  C311 3072   2.996   1.205  16.390  0.4469  0.1650  0.0112
   24DOPE  H11X 3073   2.901   1.181  16.443  0.5866 -1.5021 -0.4443
   24DOPE  H11Y 3074   3.072   1.133  16.427 -0.2201 -1.7973 -2.1822
   24DOPE  C312 3075   3.031   1.347  16.436  0.4895  0.8338  0.3448
   24DOPE  H12X 3076   2.943   1.410  16.410  0.6732  0.5851 -0.9528
   24DOPE  H12Y 3077   3.115   1.369  16.366 -0.0244  1.1288 -0.1806
   24DOPE  C313 3078   3.070   1.355  16.581  0.8298  0.1990  0.4841
   24DOPE  H13X 3079   3.055   1.453  16.631  1.0305  1.5224 -1.8559
   24DOPE  H13Y 3080   2.990   1.296  16.629 -0.0494  1.7894  1.0508
   24DOPE  C314 3081   3.220   1.317  16.608  0.3666  0.2476  0.1342
   24DOPE  H14X 3082   3.287   1.403  16.588  0.2579  0.7247  1.6903
   24DOPE  H14Y 3083   3.251   1.236  16.538  1.3921 -1.5768  2.5468
   24DOPE  C315 3084   3.244   1.273  16.748 -0.1657  0.2523 -0.6657
   24DOPE  H15X 3085   3.186   1.185  16.781  1.7250 -0.7653  0.1059
   24DOPE  H15Y 3086   3.219   1.360  16.811 -1.1440 -0.2958 -0.2754
   24DOPE  C316 3087   3.392   1.245  16.769  0.8383 -0.5809 -0.4580
   24DOPE  H16X 3088   3.451   1.305  16.697  0.1521 -0.0471 -0.5831
   24DOPE  H16Y 3089   3.414   1.138  16.744  0.7632 -1.1569  1.7430
   24DOPE  C317 3090   3.446   1.289  16.907 -0.3317 -0.1406 -0.4738
   24DOPE  H17X 3091   3.375   1.251  16.984 -0.2959 -0.2259 -0.4823
   24DOPE  H17Y 3092   3.538   1.233  16.933  0.3097  0.6555 -0.9773
   24DOPE  C318 3093   3.473   1.438  16.907 -0.3557  0.4332 -0.7173
   24DOPE  H18X 3094   3.565   1.457  16.847  0.5376 -2.0526 -0.2867
   24DOPE  H18Y 3095   3.390   1.498  16.864 -0.3303  0.0583 -1.2965
   24DOPE  H18Z 3096   3.487   1.484  17.008 -4.7927  0.8011 -0.0746
   25DOPE     N 3097   3.409   0.795  17.624 -0.4902 -0.3390 -0.1762
   25DOPE   HN1 3098   3.439   0.737  17.543  0.4559  0.5900 -0.5184
   25DOPE   HN2 3099   3.338   0.743  17.678 -1.1640 -0.4709 -1.1576
   25DOPE   HN3 3100   3.358   0.880  17.592  0.7892  0.7988  0.6804
   25DOPE   C12 3101   3.520   0.834  17.712  0.0030  0.0223 -0.1888
   25DOPE  H12A 3102   3.580   0.741  17.720  2.0706  1.3872  0.9066
   25DOPE  H12B 3103   3.491   0.861  17.815  1.1786 -1.2328  0.4988
   25DOPE   C11 3104   3.588   0.964  17.667 -0.8557  0.1855 -0.0604
   25DOPE  H11A 3105   3.674   0.984  17.735  1.0586 -1.9290 -1.6838
   25DOPE  H11B 3106   3.522   1.052  17.656 -1.4919 -0.6039 -3.6942
   25DOPE     P 3107   3.791   0.943  17.503  0.3422 -0.2807  0.0972
   25DOPE   O13 3108   3.855   0.867  17.607 -0.4126 -0.4145 -0.3159
   25DOPE   O14 3109   3.832   1.084  17.482  0.1702  0.4268 -0.2051
   25DOPE   O11 3110   3.798   0.869  17.361  0.1410  0.2115  0.4590
   25DOPE   O12 3111   3.634   0.934  17.539  0.0409 -0.3093  0.3308
   25DOPE    C1 3112   3.728   0.743  17.338  0.8744 -0.3932  0.4291
   25DOPE    HA 3113   3.619   0.765  17.337  1.1917  1.2972 -1.1304
   25DOPE    HB 3114   3.747   0.669  17.419  2.0543  0.9131  1.3790
   25DOPE    C2 3115   3.776   0.674  17.204  0.1989 -0.4289  0.4385
   25DOPE    HS 3116   3.873   0.621  17.214  0.6378 -0.2470 -2.2768
   25DOPE   O21 3117   3.773   0.774  17.096  0.1224  0.4426 -0.3062
   25DOPE   C21 3118   3.893   0.809  17.055  0.3409  0.2432 -0.4264
   25DOPE   O22 3119   4.001   0.782  17.105  0.2731 -0.1326 -0.3654
   25DOPE   C22 3120   3.881   0.891  16.924  0.4937 -0.3014 -0.1202
   25DOPE   H2R 3121   3.845   0.993  16.949 -0.5956 -0.7875  0.3721
   25DOPE   H2S 3122   3.805   0.830  16.871 -1.0017 -0.9458  2.5633
   25DOPE    C3 3123   3.669   0.560  17.168 -0.1758  0.0980  0.3232
   25DOPE    HX 3124   3.563   0.593  17.163 -0.1621  0.0550 -0.4284
   25DOPE    HY 3125   3.677   0.481  17.245  0.5706 -2.4625 -2.2016
   25DOPE   O31 3126   3.710   0.489  17.042 -0.1348  0.4381 -1.0759
   25DOPE   C31 3127   3.660   0.527  16.932  0.4928 -0.2450  0.3126
   25DOPE   O32 3128   3.566   0.608  16.919 -0.4132  0.0522  0.7509
   25DOPE   C32 3129   3.752   0.478  16.821  1.0062  0.2709  0.0898
   25DOPE   H2X 3130   3.853   0.525  16.827  0.6333  0.9930  0.9550
   25DOPE   H2Y 3131   3.764   0.368  16.824  0.4166  0.2118  0.6282
   25DOPE   C23 3132   4.001   0.884  16.827 -0.1898  0.0304  0.3017
   25DOPE   H3R 3133   4.059   0.793  16.855  0.1238  0.3056  0.5613
   25DOPE   H3S 3134   4.066   0.972  16.845 -1.2251  0.8278  0.1918
   25DOPE   C24 3135   3.963   0.883  16.682  0.0783  0.4683  0.8169
   25DOPE   H4R 3136   3.907   0.972  16.643 -0.3310 -0.1334  0.0038
   25DOPE   H4S 3137   3.899   0.795  16.663  1.3541 -0.5766  1.2595
   25DOPE   C25 3138   4.094   0.878  16.599 -0.1088  0.2140 -0.4751
   25DOPE   H5R 3139   4.132   0.774  16.607  0.0824  0.3636  0.8840
   25DOPE   H5S 3140   4.154   0.961  16.641  1.2968 -1.8583  1.9113
   25DOPE   C26 3141   4.075   0.904  16.451  0.0868  0.7258 -0.1151
   25DOPE   H6R 3142   4.173   0.929  16.405  0.0745 -1.1978 -1.2746
   25DOPE   H6S 3143   4.017   0.998  16.443 -1.5094 -0.2045  0.0627
   25DOPE   C27 3144   4.021   0.773  16.368  0.6056 -0.1292 -0.4897
   25DOPE   H7R 3145   3.927   0.747  16.421  0.6114  0.6554 -0.0825
   25DOPE   H7S 3146   4.101   0.697  16.384 -1.1527 -1.7255  1.2357
   25DOPE   C28 3147   3.979   0.805  16.228 -0.0536  0.4457  0.3239
   25DOPE   H8R 3148   3.954   0.706  16.184 -0.5869 -0.3923  2.4153
   25DOPE   H8S 3149   4.077   0.829  16.182  0.9924 -0.4256  1.9979
   25DOPE   C29 3150   3.874   0.918  16.209  0.7094 -0.2610  0.0593
   25DOPE   H9R 3151   3.892   1.013  16.260 -1.6644  0.7513 -0.8823
   25DOPE  C210 3152   3.774   0.924  16.120 -0.3072  0.3622  0.1418
   25DOPE  H10R 3153   3.695   1.001  16.127 -0.6364 -0.0178  0.6328
   25DOPE  C211 3154   3.748   0.804  16.027 -0.2826  0.5049 -0.2320
   25DOPE  H11R 3155   3.677   0.736  16.079 -3.4117  1.2937 -3.0756
   25DOPE  H11S 3156   3.838   0.750  15.991  0.5739  1.2997  0.6565
   25DOPE  C212 3157   3.665   0.833  15.899 -0.4808  0.4124  0.2656
   25DOPE  H12R 3158   3.579   0.894  15.934 -1.4596 -0.6378 -0.2815
   25DOPE  H12S 3159   3.635   0.737  15.852  0.8880 -0.0304  0.2490
   25DOPE  C213 3160   3.748   0.920  15.798  0.3399  0.3566  0.1785
   25DOPE  H13R 3161   3.841   0.861  15.783 -0.2153 -0.1531 -1.5208
   25DOPE  H13S 3162   3.767   1.024  15.834 -1.7013  0.2846  1.6456
   25DOPE  C214 3163   3.669   0.926  15.669  0.1698 -0.6781 -0.1960
   25DOPE  H14R 3164   3.642   0.821  15.646 -0.1415 -0.6453  0.0227
   25DOPE  H14S 3165   3.720   0.970  15.581  1.9144  2.9461  2.3584
   25DOPE  C215 3166   3.532   1.006  15.677  0.0956  0.2397 -0.3335
   25DOPE  H15R 3167   3.458   0.953  15.739 -0.8086 -1.2680 -2.5684
   25DOPE  H15S 3168   3.497   1.005  15.571  0.7363 -0.3602 -0.5496
   25DOPE  C216 3169   3.530   1.157  15.715  0.0960 -0.7075  0.0669
   25DOPE  H16R 3170   3.605   1.163  15.797  1.4583 -3.2315 -0.8852
   25DOPE  H16S 3171   3.433   1.184  15.761  0.1448  1.5920 -1.0453
   25DOPE  C217 3172   3.580   1.245  15.596  0.4374  0.5033 -0.5358
   25DOPE  H17R 3173   3.525   1.218  15.504  1.0810 -1.7586 -0.3057
   25DOPE  H17S 3174   3.684   1.221  15.565 -0.2287 -1.8065 -1.1356
   25DOPE  C218 3175   3.568   1.394  15.619  0.5735 -0.2955  0.4065
   25DOPE  H18R 3176   3.461   1.424  15.626  0.6925  0.1485  0.3045
   25DOPE  H18S 3177   3.616   1.441  15.531 -0.4270 -0.5911 -0.3216
   25DOPE  H18T 3178   3.625   1.412  15.712  0.1956  0.5119  0.4886
   25DOPE   C33 3179   3.690   0.514  16.682  0.4145  0.4483 -0.0941
   25DOPE   H3X 3180   3.678   0.624  16.672  1.3169  0.6407  0.7761
   25DOPE   H3Y 3181   3.589   0.472  16.663  1.3534 -1.0038 -2.3257
   25DOPE   C34 3182   3.781   0.466  16.564 -0.2387  0.0136  0.4328
   25DOPE   H4X 3183   3.873   0.526  16.579 -1.1884  1.9754 -1.0842
   25DOPE   H4Y 3184   3.810   0.359  16.560 -0.3019  0.0328 -1.0138
   25DOPE   C35 3185   3.718   0.489  16.421  0.5325  0.0456 -0.2321
   25DOPE   H5X 3186   3.689   0.595  16.405  1.8082  0.2810 -1.1266
   25DOPE   H5Y 3187   3.622   0.433  16.424 -0.8005  2.2564  1.3301
   25DOPE   C36 3188   3.803   0.433  16.301 -0.1688  0.1398 -0.6365
   25DOPE   H6X 3189   3.829   0.327  16.323 -0.0024  0.1577 -0.7505
   25DOPE   H6Y 3190   3.892   0.498  16.305  0.5931 -0.9273  2.1676
   25DOPE   C37 3191   3.729   0.421  16.168  0.8301  0.3760  0.2237
   25DOPE   H7X 3192   3.639   0.357  16.182  0.8456 -0.3320 -2.4174
   25DOPE   H7Y 3193   3.693   0.521  16.136  1.5746  0.9302  1.0560
   25DOPE   C38 3194   3.813   0.365  16.056 -0.3465  0.7755  0.6004
   25DOPE   H8X 3195   3.744   0.328  15.977 -1.1023 -0.1916  1.6815
   25DOPE   H8Y 3196   3.869   0.274  16.088  1.6049  0.8708 -2.1799
   25DOPE   C39 3197   3.923   0.456  16.009  0.6812 -0.3193  0.6961
   25DOPE   H9X 3198   3.983   0.514  16.080  0.4478 -0.6832  1.1982
   25DOPE  C310 3199   3.955   0.470  15.879 -0.2276 -0.6923 -0.1666
   25DOPE  H10X 3200   4.054   0.510  15.855 -0.0028 -0.9065  0.3659
   25DOPE  C311 3201   3.879   0.422  15.756  0.1170  0.2549 -0.1362
   25DOPE  H11X 3202   3.933   0.343  15.701 -0.0668  0.1959 -0.2342
   25DOPE  H11Y 3203   3.778   0.382  15.783 -0.5993  1.2630 -1.2065
   25DOPE  C312 3204   3.839   0.538  15.664  0.4927 -0.4359  0.5388
   25DOPE  H12X 3205   3.934   0.588  15.634  0.9114 -1.8451 -0.6038
   25DOPE  H12Y 3206   3.763   0.597  15.718  2.1131  0.7203  1.6605
   25DOPE  C313 3207   3.771   0.491  15.529 -0.2227 -0.8914  0.2516
   25DOPE  H13X 3208   3.843   0.439  15.462 -0.1427  1.5521 -1.7372
   25DOPE  H13Y 3209   3.682   0.429  15.553 -2.4113  2.0941  0.5186
   25DOPE  C314 3210   3.702   0.614  15.463 -0.2417 -0.3561 -0.3620
   25DOPE  H14X 3211   3.788   0.683  15.453 -1.0858  0.7577 -0.1064
   25DOPE  H14Y 3212   3.619   0.653  15.526 -1.4312 -1.0467 -1.4626
   25DOPE  C315 3213   3.648   0.574  15.328  0.1237  0.5988 -0.2395
   25DOPE  H15X 3214   3.729   0.519  15.275  0.4318  0.6043  0.2162
   25DOPE  H15Y 3215   3.627   0.669  15.275  1.0063  1.2306  0.4948
   25DOPE  C316 3216   3.519   0.487  15.326  0.2502 -0.1270 -0.2060
   25DOPE  H16X 3217   3.439   0.536  15.385 -1.5307 -0.1318 -2.4694
   25DOPE  H16Y 3218   3.527   0.388  15.377 -1.5982  0.0810  0.5639
   25DOPE  C317 3219   3.475   0.465  15.181  0.3818  0.5978  0.2281
   25DOPE  H17X 3220   3.471   0.562  15.128 -0.2574  0.3671 -0.1584
   25DOPE  H17Y 3221   3.550   0.397  15.134  1.6372  0.3276  2.4788
   25DOPE  C318 3222   3.333   0.392  15.165 -0.5136 -0.0700  0.7570
   25DOPE  H18X 3223   3.265   0.478  15.185 -0.0086  0.4612  0.2658
   25DOPE  H18Y 3224   3.318   0.362  15.059 -1.6156  0.2585  0.8088
   25DOPE  H18Z 3225   3.313   0.310  15.237  0.2196 -1.1583 -0.2402
   26DOPE     N 3226   4.153   0.601  17.609 -0.0581 -0.0207  0.4262
   26DOPE   HN1 3227   4.204   0.657  17.680 -1.3280  0.7455  0.7542
   26DOPE   HN2 3228   4.052   0.621  17.612  0.1488  1.3824 -0.8531
   26DOPE   HN3 3229   4.167   0.500  17.634 -1.1521  0.0170  1.2221
   26DOPE   C12 3230   4.214   0.626  17.470 -0.2727 -0.1081 -0.9910
   26DOPE  H12A 3231   4.207   0.533  17.409  1.2066 -1.3143  0.5690
   26DOPE  H12B 3232   4.321   0.645  17.491 -0.6255  2.0861 -0.9317
   26DOPE   C11 3233   4.148   0.753  17.402  0.0963  0.3931 -0.5571
   26DOPE  H11A 3234   4.043   0.730  17.377 -0.0860  0.3952  0.1711
   26DOPE  H11B 3235   4.202   0.777  17.308  0.9380  0.9279  0.0400
   26DOPE     P 3236   4.262   0.978  17.484  0.0227  0.5757 -0.2537
   26DOPE   O13 3237   4.392   0.909  17.507  0.0140 -0.6209  0.0766
   26DOPE   O14 3238   4.234   1.093  17.577  0.2742  0.1726 -0.2263
   26DOPE   O11 3239   4.251   1.024  17.331 -0.2050 -0.1323 -0.5366
   26DOPE   O12 3240   4.142   0.869  17.488  0.1609  0.1406  0.3029
   26DOPE    C1 3241   4.130   1.078  17.276 -0.0909  0.1916  0.4097
   26DOPE    HA 3242   4.082   1.142  17.354  0.5796  0.2290  0.8078
   26DOPE    HB 3243   4.063   0.995  17.246 -2.4688  1.7822  1.0661
   26DOPE    C2 3244   4.156   1.164  17.152 -0.1226 -0.0922  0.6939
   26DOPE    HS 3245   4.193   1.263  17.186 -0.5050 -0.3929  2.0433
   26DOPE   O21 3246   4.025   1.168  17.081 -0.4229  0.1299 -0.1229
   26DOPE   C21 3247   3.991   1.295  17.053  0.4838  0.3135 -0.2895
   26DOPE   O22 3248   4.054   1.394  17.078 -0.5507 -0.2018  0.1381
   26DOPE   C22 3249   3.863   1.294  16.975 -0.1066 -0.4806  0.5639
   26DOPE   H2R 3250   3.814   1.394  16.984  0.3959 -0.2332  0.6119
   26DOPE   H2S 3251   3.796   1.215  17.014  0.4061 -2.1604 -1.7570
   26DOPE    C3 3252   4.253   1.091  17.056 -0.0986  0.0243 -0.2282
   26DOPE    HX 3253   4.214   0.988  17.043  1.8700 -0.6661 -1.0798
   26DOPE    HY 3254   4.356   1.075  17.096 -0.7627 -1.3305  1.0793
   26DOPE   O31 3255   4.253   1.145  16.921 -0.2671 -0.0841  0.3233
   26DOPE   C31 3256   4.324   1.257  16.909 -0.9385  0.5794 -0.6110
   26DOPE   O32 3257   4.393   1.299  17.005  0.1824 -0.2424  0.7632
   26DOPE   C32 3258   4.314   1.307  16.767 -0.5099 -0.1967  0.0142
   26DOPE   H2X 3259   4.416   1.320  16.725 -1.2411  0.3961 -1.6687
   26DOPE   H2Y 3260   4.273   1.230  16.697 -0.5844  0.2015 -0.3854
   26DOPE   C23 3261   3.895   1.261  16.823  0.4417 -0.2577 -0.2558
   26DOPE   H3R 3262   3.923   1.154  16.815 -0.3332 -0.4372 -0.6858
   26DOPE   H3S 3263   3.971   1.332  16.785  0.3441 -1.1160 -2.1620
   26DOPE   C24 3264   3.772   1.287  16.733 -0.4851  0.1940  0.2671
   26DOPE   H4R 3265   3.720   1.383  16.756  1.0179  1.8750 -2.7500
   26DOPE   H4S 3266   3.696   1.213  16.769  0.5093 -0.1124  1.8300
   26DOPE   C25 3267   3.797   1.258  16.587 -0.7069 -0.1315  0.6446
   26DOPE   H5R 3268   3.851   1.162  16.572 -1.0585 -0.2201 -0.0643
   26DOPE   H5S 3269   3.871   1.331  16.547  0.4403 -0.6099  1.7973
   26DOPE   C26 3270   3.683   1.261  16.487  0.0456 -0.3321 -0.7074
   26DOPE   H6R 3271   3.636   1.359  16.510  1.9635  0.3444  0.5701
   26DOPE   H6S 3272   3.603   1.188  16.510  1.3079 -2.2089 -2.0016
   26DOPE   C27 3273   3.719   1.266  16.338 -0.3037  0.3104 -0.1304
   26DOPE   H7R 3274   3.754   1.167  16.303 -1.3201 -0.0100 -0.2814
   26DOPE   H7S 3275   3.812   1.326  16.332  0.3988 -0.4270  2.4099
   26DOPE   C28 3276   3.603   1.309  16.257  0.5081 -0.1062 -0.0728
   26DOPE   H8R 3277   3.555   1.397  16.304 -2.6307 -1.2186 -0.9213
   26DOPE   H8S 3278   3.530   1.225  16.258 -0.1524  0.4543  0.8773
   26DOPE   C29 3279   3.637   1.341  16.115 -0.1472 -0.2439  0.0746
   26DOPE   H9R 3280   3.722   1.290  16.068 -1.7700 -1.4043 -1.7680
   26DOPE  C210 3281   3.577   1.442  16.048  0.2228  0.4658 -0.4118
   26DOPE  H10R 3282   3.592   1.465  15.942 -3.1847  2.3847 -0.6372
   26DOPE  C211 3283   3.463   1.528  16.094  0.2722 -0.2144 -0.3026
   26DOPE  H11R 3284   3.510   1.627  16.111  0.4784  0.0802 -2.3282
   26DOPE  H11S 3285   3.418   1.486  16.186 -0.3133 -2.2107 -1.4526
   26DOPE  C212 3286   3.357   1.539  15.985  0.5171  0.3595  1.0475
   26DOPE  H12R 3287   3.410   1.565  15.891 -0.7772 -2.1181 -0.4753
   26DOPE  H12S 3288   3.280   1.618  16.003 -1.3786 -0.6324 -2.0467
   26DOPE  C213 3289   3.277   1.412  15.946  0.0198  0.3280 -0.3300
   26DOPE  H13R 3290   3.224   1.373  16.036  0.2853  1.9845  0.5863
   26DOPE  H13S 3291   3.348   1.339  15.901 -1.0858  0.0952 -1.7904
   26DOPE  C214 3292   3.178   1.444  15.832 -0.2440  0.2583  0.5389
   26DOPE  H14R 3293   3.224   1.524  15.770  1.3482  0.2980  1.7145
   26DOPE  H14S 3294   3.084   1.474  15.882  0.2799  0.8517  1.2088
   26DOPE  C215 3295   3.145   1.323  15.739  0.3843 -0.5583 -0.0215
   26DOPE  H15R 3296   3.240   1.285  15.696  0.0545 -0.3012 -1.0012
   26DOPE  H15S 3297   3.076   1.353  15.657  0.1469 -0.4924  0.2027
   26DOPE  C216 3298   3.073   1.212  15.813  0.3124 -0.2745 -1.2405
   26DOPE  H16R 3299   2.993   1.255  15.877 -2.0083 -2.1506 -2.7203
   26DOPE  H16S 3300   3.143   1.146  15.868  0.5906 -0.6054 -1.9706
   26DOPE  C217 3301   3.008   1.118  15.713 -0.4544 -0.6099 -0.1386
   26DOPE  H17R 3302   3.081   1.074  15.642  0.5146 -0.9667  1.0439
   26DOPE  H17S 3303   2.939   1.178  15.650  0.4340 -0.2773 -0.7978
   26DOPE  C218 3304   2.921   1.007  15.783 -0.7779 -0.3254 -0.5001
   26DOPE  H18R 3305   2.978   0.914  15.802  1.9428  0.5440 -3.5507
   26DOPE  H18S 3306   2.834   0.984  15.718  0.5325 -0.3439 -2.2963
   26DOPE  H18T 3307   2.866   1.041  15.874 -4.6803  0.5978 -2.9328
   26DOPE   C33 3308   4.239   1.444  16.769 -0.0542  0.6175 -0.3099
   26DOPE   H3X 3309   4.287   1.509  16.846 -1.7906  1.5309  0.0551
   26DOPE   H3Y 3310   4.136   1.453  16.810  0.0937 -1.7874  0.7088
   26DOPE   C34 3311   4.245   1.520  16.636  0.3814 -0.4134 -0.4556
   26DOPE   H4X 3312   4.215   1.625  16.658 -0.2404 -0.6602 -0.0915
   26DOPE   H4Y 3313   4.344   1.536  16.588  0.5691  0.0443  0.0735
   26DOPE   C35 3314   4.157   1.466  16.524 -0.5291 -0.2499  0.2688
   26DOPE   H5X 3315   4.108   1.556  16.482  0.3218  0.1592  0.1132
   26DOPE   H5Y 3316   4.078   1.396  16.558 -1.1474 -0.6954 -1.9651
   26DOPE   C36 3317   4.228   1.378  16.416  0.1701 -0.2896 -0.0827
   26DOPE   H6X 3318   4.283   1.290  16.455  2.1071  0.2509 -1.4394
   26DOPE   H6Y 3319   4.310   1.432  16.364 -0.2313  0.6988  0.2788
   26DOPE   C37 3320   4.127   1.327  16.321 -0.1171  0.2365 -0.5200
   26DOPE   H7X 3321   4.042   1.289  16.383 -0.0718  2.0694  0.7434
   26DOPE   H7Y 3322   4.073   1.401  16.259 -0.5203  0.5356  0.1762
   26DOPE   C38 3323   4.166   1.205  16.234 -0.8121  0.7660  0.2684
   26DOPE   H8X 3324   4.079   1.171  16.173  1.1747  0.1660 -2.4231
   26DOPE   H8Y 3325   4.184   1.123  16.307  1.6803  2.5089  1.7791
   26DOPE   C39 3326   4.290   1.222  16.142 -0.2447 -1.1055  0.5931
   26DOPE   H9X 3327   4.382   1.269  16.181 -0.9964  1.5737 -0.6450
   26DOPE  C310 3328   4.308   1.153  16.029 -0.2096 -0.7705  0.3787
   26DOPE  H10X 3329   4.393   1.175  15.963  0.2042 -0.5909  0.9641
   26DOPE  C311 3330   4.206   1.067  15.961  0.1872  0.4286  0.4181
   26DOPE  H11X 3331   4.103   1.075  16.003  0.4164 -3.4271  2.0898
   26DOPE  H11Y 3332   4.212   1.092  15.853  0.8954 -1.7697 -0.1091
   26DOPE  C312 3333   4.249   0.917  15.967 -0.2194 -0.1500 -0.4198
   26DOPE  H12X 3334   4.240   0.887  16.074 -0.3397 -0.1770 -0.4380
   26DOPE  H12Y 3335   4.355   0.899  15.939 -0.7430 -0.9239 -2.0250
   26DOPE  C313 3336   4.161   0.808  15.902  0.0272  0.1468 -0.1196
   26DOPE  H13X 3337   4.220   0.714  15.914 -0.1509  0.1531  0.8504
   26DOPE  H13Y 3338   4.055   0.793  15.932  0.4278 -0.6125  0.9940
   26DOPE  C314 3339   4.134   0.832  15.745  0.6023  0.1867  0.8111
   26DOPE  H14X 3340   4.085   0.931  15.736 -2.9816 -1.3080  2.0117
   26DOPE  H14Y 3341   4.053   0.761  15.719 -0.9036  1.6156  1.4467
   26DOPE  C315 3342   4.258   0.829  15.646 -0.2134 -0.9683  0.6302
   26DOPE  H15X 3343   4.312   0.734  15.670  1.4131 -0.2422  0.0212
   26DOPE  H15Y 3344   4.327   0.912  15.672 -2.2316  1.0424 -0.0712
   26DOPE  C316 3345   4.205   0.845  15.497 -0.2849  0.6613 -0.7075
   26DOPE  H16X 3346   4.155   0.944  15.497  0.7844  1.2601  1.3009
   26DOPE  H16Y 3347   4.123   0.773  15.474 -0.9412  1.3581 -0.5826
   26DOPE  C317 3348   4.311   0.839  15.384  0.0901 -0.4233  0.0223
   26DOPE  H17X 3349   4.397   0.904  15.411  0.7141 -1.1535 -0.1730
   26DOPE  H17Y 3350   4.355   0.737  15.392 -0.8357 -0.6932  2.4853
   26DOPE  C318 3351   4.273   0.878  15.244 -0.5304 -1.1812 -0.0515
   26DOPE  H18X 3352   4.242   0.984  15.235  1.4546 -0.5447  0.1555
   26DOPE  H18Y 3353   4.362   0.866  15.179  0.6445 -0.4992  1.4020
   26DOPE  H18Z 3354   4.202   0.805  15.199  0.0320 -1.2187 -0.8969
   27DOPE     N 3355   0.990   3.772  17.946 -0.5641  0.6269  0.2222
   27DOPE   HN1 3356   0.925   3.732  18.016 -1.9944 -0.5870 -1.7063
   27DOPE   HN2 3357   1.065   3.837  17.978 -0.0147  0.9785 -1.6662
   27DOPE   HN3 3358   0.940   3.819  17.868  1.3443 -0.6467 -1.8749
   27DOPE   C12 3359   1.058   3.654  17.873  0.3080 -0.0478 -0.2969
   27DOPE  H12A 3360   0.971   3.595  17.837  0.7470 -1.1612  0.4148
   27DOPE  H12B 3361   1.115   3.593  17.945  0.9054  2.2642  1.2881
   27DOPE   C11 3362   1.143   3.708  17.753  0.8469 -0.2360 -0.2300
   27DOPE  H11A 3363   1.074   3.757  17.681  1.9273 -0.7288 -1.6466
   27DOPE  H11B 3364   1.184   3.619  17.700  2.6344 -0.4712  1.4327
   27DOPE     P 3365   1.336   3.885  17.697  0.3209 -0.4249 -0.4544
   27DOPE   O13 3366   1.451   3.799  17.661  0.2537  0.2266  0.5370
   27DOPE   O14 3367   1.361   4.020  17.746  0.1088 -0.2090  0.2329
   27DOPE   O11 3368   1.242   3.897  17.571 -0.3777 -0.1375 -0.8528
   27DOPE   O12 3369   1.244   3.800  17.797  0.2847 -0.7153 -0.3805
   27DOPE    C1 3370   1.132   3.997  17.565  0.3654 -0.5933  0.6943
   27DOPE    HA 3371   1.126   4.069  17.648  0.2257  0.7034 -0.4028
   27DOPE    HB 3372   1.036   3.941  17.564  0.4401 -0.8320  2.8326
   27DOPE    C2 3373   1.146   4.081  17.434  0.4369  0.1936 -0.1332
   27DOPE    HS 3374   1.066   4.155  17.412 -1.4932 -1.3594  1.2375
   27DOPE   O21 3375   1.169   3.993  17.320 -0.4382  0.3567  0.0528
   27DOPE   C21 3376   1.058   3.945  17.261 -0.5447 -0.2055 -0.7224
   27DOPE   O22 3377   0.950   3.982  17.295 -0.1922 -1.0429 -0.3942
   27DOPE   C22 3378   1.087   3.848  17.147  0.5001 -0.2104  0.2568
   27DOPE   H2R 3379   1.013   3.766  17.155 -0.9046  1.0354  0.6874
   27DOPE   H2S 3380   1.182   3.797  17.176 -0.0596 -1.1155  0.5222
   27DOPE    C3 3381   1.275   4.169  17.445  0.4659  0.0553  0.6653
   27DOPE    HX 3382   1.361   4.099  17.451  1.7146  1.2890 -1.5745
   27DOPE    HY 3383   1.267   4.238  17.531  0.6894 -1.4301  1.9318
   27DOPE   O31 3384   1.302   4.238  17.319  0.1196  0.0762 -0.9524
   27DOPE   C31 3385   1.264   4.363  17.310 -0.1647 -0.0811  0.1602
   27DOPE   O32 3386   1.207   4.429  17.393 -0.1823  0.6226 -0.4394
   27DOPE   C32 3387   1.322   4.420  17.176  0.3497  0.3971  0.2130
   27DOPE   H2X 3388   1.265   4.513  17.155  0.9148  0.6794 -0.0955
   27DOPE   H2Y 3389   1.428   4.448  17.193  0.7341 -0.4609 -0.6712
   27DOPE   C23 3390   1.105   3.916  17.013  0.0140 -0.1631 -0.2095
   27DOPE   H3R 3391   1.190   3.988  17.010  1.0068 -1.3001 -0.3643
   27DOPE   H3S 3392   1.013   3.972  16.985  1.3502  1.6825 -1.1355
   27DOPE   C24 3393   1.134   3.828  16.884  0.2040  0.2130 -1.1721
   27DOPE   H4R 3394   1.051   3.758  16.860  0.2416 -0.6270  0.9421
   27DOPE   H4S 3395   1.230   3.774  16.902  0.3688  0.5421 -1.0516
   27DOPE   C25 3396   1.163   3.916  16.764 -0.2293  0.1777  0.1727
   27DOPE   H5R 3397   1.224   4.007  16.784 -0.4064  0.5988 -1.1198
   27DOPE   H5S 3398   1.076   3.977  16.731 -0.1601 -0.1905 -0.7305
   27DOPE   C26 3399   1.215   3.842  16.647  0.1547  0.3723  0.7848
   27DOPE   H6R 3400   1.140   3.762  16.628  0.8555 -0.2382  0.5054
   27DOPE   H6S 3401   1.306   3.787  16.682 -0.7472 -0.8545  1.2732
   27DOPE   C27 3402   1.254   3.914  16.518  0.5739 -0.4599  0.0497
   27DOPE   H7R 3403   1.339   3.985  16.529  1.7246 -2.0046  2.0173
   27DOPE   H7S 3404   1.174   3.985  16.489  0.2981 -0.7358  0.1252
   27DOPE   C28 3405   1.291   3.815  16.401  0.6084 -0.2091  0.0196
   27DOPE   H8R 3406   1.199   3.764  16.364  0.8512 -0.4073 -0.3172
   27DOPE   H8S 3407   1.358   3.735  16.440  0.5321 -0.7906 -1.0204
   27DOPE   C29 3408   1.349   3.892  16.286  0.1366 -0.5003 -0.3148
   27DOPE   H9R 3409   1.444   3.948  16.294  0.6317 -1.4940  1.2664
   27DOPE  C210 3410   1.304   3.905  16.162 -0.0516 -0.5674  0.2746
   27DOPE  H10R 3411   1.359   3.968  16.090 -1.5908  1.5437  0.8227
   27DOPE  C211 3412   1.165   3.868  16.113 -0.1418  0.0884  0.5070
   27DOPE  H11R 3413   1.116   3.966  16.091  0.5689  0.3104 -0.1582
   27DOPE  H11S 3414   1.118   3.816  16.199  0.6461  0.1968  1.0093
   27DOPE  C212 3415   1.150   3.786  15.981 -0.4196  0.1968  0.7616
   27DOPE  H12R 3416   1.043   3.759  15.978 -0.3718  0.0048  0.7519
   27DOPE  H12S 3417   1.211   3.695  16.002  0.9788  1.1351  0.9135
   27DOPE  C213 3418   1.200   3.869  15.857  0.1798 -0.0985 -0.2468
   27DOPE  H13R 3419   1.310   3.882  15.860  0.0756  0.6122  2.0892
   27DOPE  H13S 3420   1.154   3.967  15.881 -1.6350 -1.5427  2.6701
   27DOPE  C214 3421   1.159   3.817  15.719  0.5162  0.2444 -0.1359
   27DOPE  H14R 3422   1.049   3.808  15.705  0.6107 -1.0292 -0.2125
   27DOPE  H14S 3423   1.205   3.721  15.686  0.4923  0.8307 -1.9344
   27DOPE  C215 3424   1.192   3.922  15.605 -0.8899 -0.0484 -0.2690
   27DOPE  H15R 3425   1.303   3.926  15.598 -0.6889 -3.2106 -0.7582
   27DOPE  H15S 3426   1.153   4.019  15.642 -2.4628 -0.8545  0.3345
   27DOPE  C216 3427   1.130   3.900  15.468  0.5110 -0.4230 -0.4029
   27DOPE  H16R 3428   1.022   3.924  15.452  0.2657  0.7306  2.3715
   27DOPE  H16S 3429   1.137   3.794  15.435  0.5157 -0.7041  0.4622
   27DOPE  C217 3430   1.209   3.983  15.366  0.4107 -0.0867 -0.0174
   27DOPE  H17R 3431   1.177   3.945  15.267 -1.0094 -1.0656  0.7814
   27DOPE  H17S 3432   1.319   3.971  15.379  0.5141  1.9239  1.3521
   27DOPE  C218 3433   1.176   4.130  15.381  0.3917  0.4900  0.1915
   27DOPE  H18R 3434   1.235   4.181  15.302 -1.3806  2.7206  0.1735
   27DOPE  H18S 3435   1.212   4.172  15.477 -0.9363  1.9967  0.0932
   27DOPE  H18T 3436   1.065   4.140  15.375  0.5080  1.1262 -1.5157
   27DOPE   C33 3437   1.323   4.331  17.045  0.2132 -0.5436 -0.0595
   27DOPE   H3X 3438   1.233   4.265  17.047  1.5473 -2.4613  1.3222
   27DOPE   H3Y 3439   1.418   4.273  17.043  0.2178 -0.5411 -1.9081
   27DOPE   C34 3440   1.323   4.412  16.924  0.5865  0.4791  0.3517
   27DOPE   H4X 3441   1.227   4.464  16.906 -0.4735 -1.5077 -0.0321
   27DOPE   H4Y 3442   1.405   4.486  16.937 -0.5481  1.4636  2.3172
   27DOPE   C35 3443   1.347   4.319  16.803  0.6164  0.4317  1.1668
   27DOPE   H5X 3444   1.273   4.237  16.800  0.6375  0.4341  0.6489
   27DOPE   H5Y 3445   1.451   4.281  16.798  0.2083 -0.7021  1.1378
   27DOPE   C36 3446   1.323   4.391  16.676 -0.7746 -0.3140 -0.3567
   27DOPE   H6X 3447   1.384   4.484  16.670 -0.4146 -0.6354 -2.2529
   27DOPE   H6Y 3448   1.215   4.418  16.685 -0.2835  0.8991  3.4979
   27DOPE   C37 3449   1.361   4.303  16.546  0.3496 -0.0498  0.1332
   27DOPE   H7X 3450   1.458   4.249  16.556  1.4407  1.3731 -1.8639
   27DOPE   H7Y 3451   1.285   4.223  16.556 -0.5031  0.8664  1.1082
   27DOPE   C38 3452   1.360   4.382  16.413  0.4371  0.2458  0.2177
   27DOPE   H8X 3453   1.411   4.478  16.433  0.5496  0.3506 -0.5179
   27DOPE   H8Y 3454   1.256   4.408  16.381 -0.3275 -0.8028  1.7368
   27DOPE   C39 3455   1.435   4.310  16.309 -0.6623  0.5933  0.0263
   27DOPE   H9X 3456   1.520   4.246  16.339 -1.2595 -0.4967 -0.5294
   27DOPE  C310 3457   1.406   4.312  16.175 -0.3330  0.4069  0.5217
   27DOPE  H10X 3458   1.477   4.258  16.111 -0.1762  2.7616 -1.4595
   27DOPE  C311 3459   1.291   4.384  16.104 -0.3143 -0.0433  0.1874
   27DOPE  H11X 3460   1.262   4.483  16.145 -0.3289  0.0586 -0.0667
   27DOPE  H11Y 3461   1.319   4.403  15.998  0.0696 -2.1167 -0.1455
   27DOPE  C312 3462   1.160   4.297  16.097  0.6164 -0.1077 -0.2707
   27DOPE  H12X 3463   1.103   4.288  16.192  0.7210 -1.4868 -0.3200
   27DOPE  H12Y 3464   1.178   4.189  16.076 -0.7101 -0.5151  0.5119
   27DOPE  C313 3465   1.057   4.338  15.992  0.2149  0.0041 -0.5091
   27DOPE  H13X 3466   0.962   4.286  16.018 -0.2018  1.8033  1.8581
   27DOPE  H13Y 3467   1.051   4.448  16.003  0.0986 -0.2160  2.2310
   27DOPE  C314 3468   1.109   4.297  15.847 -0.3925 -0.0743 -0.0234
   27DOPE  H14X 3469   1.142   4.191  15.846  0.8506  0.3011 -0.7368
   27DOPE  H14Y 3470   1.200   4.353  15.815 -0.1521  0.3480  1.3325
   27DOPE  C315 3471   1.001   4.307  15.744  0.0478 -0.1844  0.1703
   27DOPE  H15X 3472   1.051   4.332  15.647  1.0131 -1.6752  0.2557
   27DOPE  H15Y 3473   0.931   4.388  15.774  1.0458  0.8000 -0.0957
   27DOPE  C316 3474   0.907   4.184  15.718  0.1724  0.0836  0.6829
   27DOPE  H16X 3475   0.844   4.168  15.807 -2.9825  1.4460 -1.1331
   27DOPE  H16Y 3476   0.968   4.093  15.703 -0.4215 -0.1378 -0.5495
   27DOPE  C317 3477   0.828   4.206  15.589  0.3329 -0.3870  0.0513
   27DOPE  H17X 3478   0.893   4.250  15.511 -0.5366  2.3060  0.7110
   27DOPE  H17Y 3479   0.783   4.109  15.561 -1.5705 -0.1208  1.8879
   27DOPE  C318 3480   0.715   4.299  15.611 -0.8497 -0.1519 -0.3579
   27DOPE  H18X 3481   0.765   4.396  15.632  0.3426 -0.8525  0.1600
   27DOPE  H18Y 3482   0.658   4.315  15.517 -0.2150  1.5228 -0.4969
   27DOPE  H18Z 3483   0.633   4.279  15.684 -0.7458  2.3339  0.5546
   28DOPE     N 3484   4.021   2.586  17.379 -0.6170 -0.2463 -0.3304
   28DOPE   HN1 3485   4.098   2.528  17.419 -0.0696  0.2329 -0.6783
   28DOPE   HN2 3486   4.061   2.621  17.289 -0.7230  0.3702 -0.1363
   28DOPE   HN3 3487   3.993   2.659  17.447  2.6933 -2.5524  4.0332
   28DOPE   C12 3488   3.912   2.501  17.336  0.0912 -0.0784 -0.6391
   28DOPE  H12A 3489   3.823   2.567  17.332  1.4620  1.8200 -1.5089
   28DOPE  H12B 3490   3.893   2.437  17.424 -1.1809  0.1773 -0.7078
   28DOPE   C11 3491   3.945   2.398  17.229 -0.8888 -0.4921  0.8621
   28DOPE  H11A 3492   3.933   2.460  17.137  2.8719 -0.3027  0.3606
   28DOPE  H11B 3493   3.875   2.312  17.221 -0.7449 -0.5336 -0.1661
   28DOPE     P 3494   4.142   2.234  17.303  0.1088  0.3224  0.0271
   28DOPE   O13 3495   4.052   2.210  17.416  0.3418 -0.0678 -0.0195
   28DOPE   O14 3496   4.286   2.252  17.338 -0.2394  0.0025 -0.4501
   28DOPE   O11 3497   4.135   2.121  17.194 -0.4479  0.2018 -0.1834
   28DOPE   O12 3498   4.085   2.360  17.230 -0.0746 -0.5059 -0.0280
   28DOPE    C1 3499   4.016   2.096  17.121  0.7595  0.5054 -0.0002
   28DOPE    HA 3500   3.921   2.123  17.171  0.5351 -0.1854 -0.0441
   28DOPE    HB 3501   3.996   1.987  17.114  0.4241  0.4563  1.4343
   28DOPE    C2 3502   4.041   2.141  16.978 -0.0725 -0.4472  0.6813
   28DOPE    HS 3503   4.044   2.252  16.971 -0.3392 -0.3985  1.3401
   28DOPE   O21 3504   3.942   2.101  16.889 -0.3762  0.1979  0.0355
   28DOPE   C21 3505   3.830   2.163  16.891  0.3546 -0.3503  0.3989
   28DOPE   O22 3506   3.789   2.244  16.971  0.2733  0.6792 -0.2833
   28DOPE   C22 3507   3.744   2.103  16.777 -0.7495  0.7816  0.1097
   28DOPE   H2R 3508   3.710   2.006  16.819 -3.9291  1.4620 -0.6272
   28DOPE   H2S 3509   3.803   2.087  16.684 -0.7515 -2.0477  0.5122
   28DOPE    C3 3510   4.181   2.092  16.920 -0.6709  0.7508 -0.5879
   28DOPE    HX 3511   4.198   1.988  16.953  0.5786  0.6390 -1.5271
   28DOPE    HY 3512   4.259   2.149  16.975 -1.2144  0.8809  0.0729
   28DOPE   O31 3513   4.187   2.117  16.783  0.2982  0.5657 -0.5651
   28DOPE   C31 3514   4.199   2.003  16.709 -0.3507 -0.2038 -0.5588
   28DOPE   O32 3515   4.241   1.896  16.751 -0.3935 -0.6168 -0.4690
   28DOPE   C32 3516   4.175   2.031  16.567  0.6266 -0.3782  0.2689
   28DOPE   H2X 3517   4.083   2.094  16.561  1.1605  0.6963  2.2895
   28DOPE   H2Y 3518   4.270   2.081  16.539  0.6219 -0.3830  0.2446
   28DOPE   C23 3519   3.615   2.189  16.743 -0.5903  0.6355 -0.4704
   28DOPE   H3R 3520   3.584   2.232  16.840  0.8523 -0.6273  0.5988
   28DOPE   H3S 3521   3.538   2.115  16.712  1.6904 -1.0004 -2.6634
   28DOPE   C24 3522   3.635   2.304  16.643  0.4997 -0.2256  0.1635
   28DOPE   H4R 3523   3.703   2.277  16.559 -0.8923  0.8927 -1.3986
   28DOPE   H4S 3524   3.687   2.383  16.702  0.2474  0.4547 -0.5076
   28DOPE   C25 3525   3.506   2.348  16.582  0.8326 -0.3937  0.1575
   28DOPE   H5R 3526   3.518   2.452  16.545 -0.1349 -0.3580 -0.1065
   28DOPE   H5S 3527   3.428   2.366  16.659  0.2445 -0.7609 -0.3408
   28DOPE   C26 3528   3.460   2.241  16.471 -0.4538 -0.4193 -0.1433
   28DOPE   H6R 3529   3.357   2.259  16.434  0.3754 -1.7680 -3.4338
   28DOPE   H6S 3530   3.454   2.142  16.520 -1.6240 -0.3836 -0.1870
   28DOPE   C27 3531   3.554   2.225  16.348  0.3783  0.7433  0.4114
   28DOPE   H7R 3532   3.645   2.167  16.376 -0.3192 -0.1838  0.7934
   28DOPE   H7S 3533   3.569   2.329  16.311 -4.0494  0.1800 -4.0408
   28DOPE   C28 3534   3.475   2.165  16.231  0.0214  1.0148  0.5004
   28DOPE   H8R 3535   3.387   2.229  16.208 -0.0595  1.3382  1.6441
   28DOPE   H8S 3536   3.432   2.074  16.279 -0.5090  1.0078  0.0219
   28DOPE   C29 3537   3.549   2.117  16.110 -0.9130  0.0402  0.5074
   28DOPE   H9R 3538   3.603   2.022  16.124 -1.2966 -0.2593  0.0131
   28DOPE  C210 3539   3.565   2.178  15.991 -0.9246 -0.0790 -0.4363
   28DOPE  H10R 3540   3.628   2.119  15.923  0.3431  0.3793  0.2985
   28DOPE  C211 3541   3.505   2.308  15.949  0.2669 -0.4033 -0.1116
   28DOPE  H11R 3542   3.419   2.343  16.011  0.0827  1.3188 -1.2551
   28DOPE  H11S 3543   3.452   2.291  15.852 -4.8771 -0.1639  2.3454
   28DOPE  C212 3544   3.604   2.419  15.931  0.4027  0.4357  0.3601
   28DOPE  H12R 3545   3.612   2.489  16.016  0.1236  0.1890  0.5928
   28DOPE  H12S 3546   3.576   2.483  15.844 -2.2395  0.4704  1.1465
   28DOPE  C213 3547   3.750   2.378  15.898  0.3698  0.3343  0.0111
   28DOPE  H13R 3548   3.774   2.310  15.983  0.7875 -0.0997 -0.4504
   28DOPE  H13S 3549   3.818   2.466  15.901 -1.8576  2.1363  2.2764
   28DOPE  C214 3550   3.775   2.303  15.770 -0.1974 -0.0801  0.1672
   28DOPE  H14R 3551   3.690   2.235  15.746  0.1489  0.0126 -1.4076
   28DOPE  H14S 3552   3.869   2.246  15.787  1.8145  2.7543 -0.7702
   28DOPE  C215 3553   3.798   2.393  15.647 -0.2692 -0.0877 -0.7383
   28DOPE  H15R 3554   3.882   2.463  15.667 -0.1982 -0.2553 -0.4358
   28DOPE  H15S 3555   3.713   2.463  15.634 -0.3018 -0.3795 -2.3082
   28DOPE  C216 3556   3.819   2.304  15.523  0.0115 -0.3511  0.0766
   28DOPE  H16R 3557   3.716   2.279  15.490 -0.0909  0.4202 -0.2168
   28DOPE  H16S 3558   3.865   2.204  15.534 -1.8892 -1.3442 -0.6500
   28DOPE  C217 3559   3.886   2.398  15.423 -0.2024  0.1428 -0.4257
   28DOPE  H17R 3560   3.986   2.419  15.466 -0.1081 -0.4825 -0.3322
   28DOPE  H17S 3561   3.824   2.490  15.411  0.1022  0.4737  0.4906
   28DOPE  C218 3562   3.910   2.327  15.291 -0.2176 -0.3947 -0.6295
   28DOPE  H18R 3563   3.977   2.392  15.231 -0.7524  2.2201  1.4195
   28DOPE  H18S 3564   3.813   2.318  15.237 -0.9622  3.5945 -0.2250
   28DOPE  H18T 3565   3.960   2.229  15.305 -2.8988 -1.6126  1.3000
   28DOPE   C33 3566   4.154   1.908  16.481  0.0104 -0.1740 -0.3539
   28DOPE   H3X 3567   4.108   1.942  16.386  1.4871  0.0494 -1.0180
   28DOPE   H3Y 3568   4.082   1.836  16.526  1.1266 -1.4816 -0.5993
   28DOPE   C34 3569   4.287   1.846  16.455 -0.0992 -0.5466 -0.2130
   28DOPE   H4X 3570   4.351   1.929  16.419 -0.3844  0.3075  1.1715
   28DOPE   H4Y 3571   4.339   1.804  16.544 -0.1476  0.5972  0.3625
   28DOPE   C35 3572   4.293   1.748  16.337 -0.0292  0.1995  0.5114
   28DOPE   H5X 3573   4.212   1.673  16.348 -1.0022  1.0199 -0.8685
   28DOPE   H5Y 3574   4.394   1.702  16.343  1.3203  2.8676 -0.3146
   28DOPE   C36 3575   4.293   1.811  16.202  0.4051  0.5419 -0.0583
   28DOPE   H6X 3576   4.374   1.886  16.213  1.4334 -0.2514 -1.7812
   28DOPE   H6Y 3577   4.200   1.862  16.170 -0.8397 -1.2681  0.4813
   28DOPE   C37 3578   4.329   1.719  16.089  0.0879 -0.2857  0.6714
   28DOPE   H7X 3579   4.338   1.788  16.003  1.8272 -1.0445  0.2053
   28DOPE   H7Y 3580   4.426   1.665  16.099 -0.4235 -1.0749  1.6227
   28DOPE   C38 3581   4.221   1.614  16.051  0.5150  0.8397 -0.2884
   28DOPE   H8X 3582   4.138   1.686  16.036  1.8038  2.2346 -0.9758
   28DOPE   H8Y 3583   4.202   1.546  16.137  2.0485 -2.0989 -2.1386
   28DOPE   C39 3584   4.237   1.529  15.927 -0.0516  0.1536 -0.1036
   28DOPE   H9X 3585   4.289   1.433  15.943  0.1768  0.6852  2.7862
   28DOPE  C310 3586   4.202   1.563  15.800 -0.6079  0.1806 -0.5572
   28DOPE  H10X 3587   4.221   1.488  15.722 -1.0058  0.2617 -0.7320
   28DOPE  C311 3588   4.145   1.690  15.745  0.3671 -0.5501  0.6942
   28DOPE  H11X 3589   4.035   1.681  15.747  0.3236 -0.5354 -0.7960
   28DOPE  H11Y 3590   4.177   1.782  15.799 -0.3233  0.2359 -0.2288
   28DOPE  C312 3591   4.202   1.732  15.600 -0.3700  0.1893 -0.7816
   28DOPE  H12X 3592   4.190   1.648  15.528  0.1344  0.4974 -1.2288
   28DOPE  H12Y 3593   4.312   1.742  15.606 -0.4052  0.6987 -0.8990
   28DOPE  C313 3594   4.150   1.865  15.536 -0.0525 -0.0323  0.5975
   28DOPE  H13X 3595   4.040   1.851  15.540  0.0721 -1.4329 -0.0616
   28DOPE  H13Y 3596   4.181   1.940  15.611  1.8198 -1.1790  1.0460
   28DOPE  C314 3597   4.220   1.887  15.397 -0.0465 -0.2562 -0.2951
   28DOPE  H14X 3598   4.321   1.921  15.427 -0.3014 -0.0244  0.3105
   28DOPE  H14Y 3599   4.186   1.973  15.336  3.8071  0.9270 -1.0570
   28DOPE  C315 3600   4.234   1.772  15.302 -0.1788 -0.0102 -0.8537
   28DOPE  H15X 3601   4.240   1.669  15.342  0.0521  0.8644  1.5213
   28DOPE  H15Y 3602   4.332   1.796  15.254 -0.1853 -0.2450 -0.9889
   28DOPE  C316 3603   4.138   1.784  15.184  0.0459  0.1460  0.2430
   28DOPE  H16X 3604   4.139   1.886  15.141 -0.7702 -0.3404 -0.9844
   28DOPE  H16Y 3605   4.035   1.757  15.214 -0.0746  1.3278  0.9492
   28DOPE  C317 3606   4.178   1.682  15.069  1.0652  1.0116 -0.6786
   28DOPE  H17X 3607   4.171   1.576  15.101 -4.4219  0.1609 -3.4179
   28DOPE  H17Y 3608   4.102   1.680  14.988 -0.7249 -2.6440  0.8879
   28DOPE  C318 3609   4.315   1.703  15.007  0.0755  0.5051  0.2658
   28DOPE  H18X 3610   4.396   1.700  15.083  1.3399 -4.4383 -0.9570
   28DOPE  H18Y 3611   4.335   1.617  14.940  1.7292  0.8067  0.3265
   28DOPE  H18Z 3612   4.319   1.792  14.941 -5.1355  0.8719 -0.0030
   29DOPE     N 3613   2.540   4.498  17.799  0.0124 -0.0789  0.3647
   29DOPE   HN1 3614   2.632   4.484  17.753  0.2274 -1.0843  1.0700
   29DOPE   HN2 3615   2.457   4.461  17.748  0.3098  0.4019 -0.4885
   29DOPE   HN3 3616   2.524   4.600  17.792  4.0021  0.6052 -2.1177
   29DOPE   C12 3617   2.542   4.453  17.934  1.1565  0.2550 -0.1365
   29DOPE  H12A 3618   2.439   4.441  17.973  1.4976 -0.1062  0.6907
   29DOPE  H12B 3619   2.604   4.515  18.002  0.7830  0.0448  0.4012
   29DOPE   C11 3620   2.595   4.305  17.947  0.2688 -0.5218 -0.0717
   29DOPE  H11A 3621   2.563   4.264  18.045 -0.3126 -1.9552 -0.8243
   29DOPE  H11B 3622   2.706   4.311  17.938  0.4046 -1.4864  0.7734
   29DOPE     P 3623   2.633   4.112  17.773  0.4493  0.4530  0.4033
   29DOPE   O13 3624   2.697   4.029  17.879 -0.0337  0.0258  0.3333
   29DOPE   O14 3625   2.728   4.174  17.677 -0.3845  0.6609  0.1912
   29DOPE   O11 3626   2.525   4.011  17.707  0.4606  0.2017  0.3874
   29DOPE   O12 3627   2.537   4.222  17.844 -0.5909  0.0512  0.5098
   29DOPE    C1 3628   2.404   4.067  17.655  0.2195  0.1814 -0.1742
   29DOPE    HA 3629   2.402   4.178  17.658  1.1364  0.2158  2.8526
   29DOPE    HB 3630   2.317   4.026  17.711  0.8191  1.8243  2.0979
   29DOPE    C2 3631   2.388   4.039  17.504  0.0074  0.7240 -0.9743
   29DOPE    HS 3632   2.404   3.931  17.488 -1.6344  0.2592  0.3101
   29DOPE   O21 3633   2.475   4.128  17.424 -0.1062  0.1567  0.1637
   29DOPE   C21 3634   2.580   4.066  17.394 -0.6324 -0.5537  0.2598
   29DOPE   O22 3635   2.614   3.956  17.431 -0.2616  0.4710 -0.7604
   29DOPE   C22 3636   2.656   4.146  17.286 -0.6040 -0.7489  0.6035
   29DOPE   H2R 3637   2.749   4.097  17.248  1.6797  4.4270 -1.4447
   29DOPE   H2S 3638   2.680   4.240  17.341 -0.4552 -0.9220  0.8358
   29DOPE    C3 3639   2.238   4.055  17.455 -0.5593 -0.6517  0.3392
   29DOPE    HX 3640   2.202   4.158  17.477  0.9161 -0.3800  1.6483
   29DOPE    HY 3641   2.178   3.984  17.517  0.5510 -0.4199  1.7371
   29DOPE   O31 3642   2.219   4.023  17.315  0.2429 -0.2041  0.0084
   29DOPE   C31 3643   2.199   4.119  17.228  0.1030 -0.7442  0.7599
   29DOPE   O32 3644   2.198   4.237  17.253  0.3151 -0.1524  0.3972
   29DOPE   C32 3645   2.169   4.064  17.091 -0.9970 -0.0252  0.0850
   29DOPE   H2X 3646   2.250   3.990  17.071  0.9401  2.1515 -0.4586
   29DOPE   H2Y 3647   2.072   4.013  17.106 -0.9492  0.1244  0.9459
   29DOPE   C23 3648   2.577   4.166  17.154 -0.0475  0.1709 -0.6470
   29DOPE   H3R 3649   2.494   4.237  17.170 -0.5102 -0.5293  0.1267
   29DOPE   H3S 3650   2.525   4.075  17.117  1.1444 -0.1390 -1.6433
   29DOPE   C24 3651   2.669   4.203  17.029  0.6837 -0.4849  0.3198
   29DOPE   H4R 3652   2.748   4.130  17.003  1.2354 -0.9082  2.8592
   29DOPE   H4S 3653   2.709   4.303  17.057 -0.9511 -0.2386  1.9416
   29DOPE   C25 3654   2.580   4.216  16.905  0.8430  0.1171  0.4232
   29DOPE   H5R 3655   2.511   4.302  16.915 -0.6412 -0.7143 -1.6506
   29DOPE   H5S 3656   2.507   4.133  16.894  1.4160 -0.3279 -0.1263
   29DOPE   C26 3657   2.654   4.210  16.772 -0.2290 -0.0615  0.3066
   29DOPE   H6R 3658   2.716   4.118  16.761  0.4224  0.4999 -0.9730
   29DOPE   H6S 3659   2.737   4.284  16.768 -0.9198  0.7111 -0.0414
   29DOPE   C27 3660   2.569   4.224  16.642 -0.1365  0.3946 -0.4041
   29DOPE   H7R 3661   2.508   4.317  16.641 -0.1179  0.4170  0.4345
   29DOPE   H7S 3662   2.498   4.138  16.637  1.2987 -0.7961 -0.8565
   29DOPE   C28 3663   2.646   4.222  16.506  0.6878  0.5073 -0.3675
   29DOPE   H8R 3664   2.584   4.209  16.415  1.0239  0.4949 -0.5947
   29DOPE   H8S 3665   2.704   4.128  16.514  1.3833  1.0794  2.1982
   29DOPE   C29 3666   2.744   4.339  16.478 -0.0576  0.3964 -0.2651
   29DOPE   H9R 3667   2.809   4.359  16.565 -0.4769 -0.1990  0.1951
   29DOPE  C210 3668   2.768   4.411  16.367 -0.2302  0.4154  1.1896
   29DOPE  H10R 3669   2.840   4.495  16.365  0.4394 -0.1623 -0.6308
   29DOPE  C211 3670   2.681   4.413  16.240 -0.1926 -0.5176 -0.7268
   29DOPE  H11R 3671   2.642   4.516  16.227  0.7254 -0.1621 -0.7411
   29DOPE  H11S 3672   2.589   4.353  16.255  0.6893 -1.4958  0.9924
   29DOPE  C212 3673   2.768   4.376  16.114  0.5557  0.4636  0.2988
   29DOPE  H12R 3674   2.830   4.285  16.127  1.8837  1.4627  1.2355
   29DOPE  H12S 3675   2.836   4.460  16.089 -0.4942  1.0935 -0.5666
   29DOPE  C213 3676   2.683   4.357  15.982  0.0411 -0.0586 -0.6798
   29DOPE  H13R 3677   2.629   4.452  15.961  1.9476  0.6264 -2.8738
   29DOPE  H13S 3678   2.606   4.280  16.001  0.2905 -0.4256 -1.1600
   29DOPE  C214 3679   2.760   4.331  15.847 -0.0243  0.6353 -0.6744
   29DOPE  H14R 3680   2.821   4.238  15.850  1.1620  1.3695 -1.3757
   29DOPE  H14S 3681   2.831   4.413  15.823  2.3150 -0.5012  1.8742
   29DOPE  C215 3682   2.658   4.319  15.729  0.1559  0.1051 -0.0963
   29DOPE  H15R 3683   2.585   4.403  15.730  0.3443  0.2875  1.1779
   29DOPE  H15S 3684   2.592   4.230  15.740  1.4288 -0.7557  0.8923
   29DOPE  C216 3685   2.739   4.318  15.603 -0.0279  0.0618 -0.2444
   29DOPE  H16R 3686   2.799   4.224  15.611 -1.9066 -1.3252 -1.6186
   29DOPE  H16S 3687   2.810   4.401  15.585 -0.3422  0.6976  1.2705
   29DOPE  C217 3688   2.660   4.308  15.471  0.7812 -0.0145 -0.1521
   29DOPE  H17R 3689   2.719   4.291  15.379 -0.2209 -0.9035 -0.6513
   29DOPE  H17S 3690   2.596   4.397  15.455 -1.0208 -1.6450 -2.8108
   29DOPE  C218 3691   2.550   4.191  15.474  0.0742  0.0073 -0.2517
   29DOPE  H18R 3692   2.606   4.096  15.487 -0.7356 -0.4712 -0.2418
   29DOPE  H18S 3693   2.508   4.175  15.373  2.0327 -1.5985 -0.8768
   29DOPE  H18T 3694   2.470   4.210  15.549 -0.9498  0.1010 -1.3456
   29DOPE   C33 3695   2.169   4.165  16.976 -0.4368  0.5972  0.0822
   29DOPE   H3X 3696   2.264   4.222  16.963  0.0026 -0.6033 -2.7037
   29DOPE   H3Y 3697   2.093   4.243  16.996 -0.0098  1.5726 -1.8684
   29DOPE   C34 3698   2.144   4.101  16.840 -0.4129  0.1119  0.0629
   29DOPE   H4X 3699   2.233   4.041  16.813 -0.4149 -1.2486  2.7541
   29DOPE   H4Y 3700   2.060   4.029  16.832  0.2490 -0.6044 -0.7480
   29DOPE   C35 3701   2.126   4.212  16.731 -0.4967  0.5101 -0.5201
   29DOPE   H5X 3702   2.194   4.296  16.758  0.1634 -0.5574  1.3658
   29DOPE   H5Y 3703   2.023   4.251  16.737 -0.1691  1.2534  0.7266
   29DOPE   C36 3704   2.152   4.152  16.591  0.0921  0.2565  0.1873
   29DOPE   H6X 3705   2.086   4.063  16.581 -0.4395  0.6940 -0.1938
   29DOPE   H6Y 3706   2.251   4.104  16.575  0.0448 -0.5134  1.8883
   29DOPE   C37 3707   2.124   4.252  16.477 -0.3304  0.0808 -0.0888
   29DOPE   H7X 3708   2.014   4.268  16.473 -0.5943 -1.1927 -4.8141
   29DOPE   H7Y 3709   2.172   4.347  16.506 -0.0619  0.1437 -0.7203
   29DOPE   C38 3710   2.177   4.204  16.337 -0.5317  0.4201  0.1747
   29DOPE   H8X 3711   2.131   4.104  16.324  0.3972 -0.1449  1.0215
   29DOPE   H8Y 3712   2.286   4.193  16.356 -0.3257  1.3087 -0.4106
   29DOPE   C39 3713   2.149   4.301  16.228 -0.4402  0.2066 -0.2809
   29DOPE   H9X 3714   2.080   4.383  16.254 -0.5332  0.3845 -1.0809
   29DOPE  C310 3715   2.201   4.281  16.103 -0.0979 -0.9919 -0.9842
   29DOPE  H10X 3716   2.190   4.367  16.036  1.5368 -1.1372 -1.5002
   29DOPE  C311 3717   2.288   4.169  16.052  0.5303 -0.4003 -0.5009
   29DOPE  H11X 3718   2.381   4.219  16.017 -0.1866  1.0802 -0.3715
   29DOPE  H11Y 3719   2.324   4.108  16.138  0.7636  1.4120  0.7360
   29DOPE  C312 3720   2.224   4.080  15.942  0.1346 -0.6520 -0.3623
   29DOPE  H12X 3721   2.121   4.049  15.970  0.4893  0.2353  2.2285
   29DOPE  H12Y 3722   2.278   3.984  15.930  0.0543 -0.6393 -0.8314
   29DOPE  C313 3723   2.216   4.146  15.807 -0.2474  0.1598  0.4174
   29DOPE  H13X 3724   2.180   4.251  15.814 -2.3544 -0.5540  0.9780
   29DOPE  H13Y 3725   2.323   4.149  15.777  0.5261  3.8172  2.8936
   29DOPE  C314 3726   2.141   4.058  15.706  0.7403  0.3928  0.3278
   29DOPE  H14X 3727   2.037   4.058  15.747  0.2614  2.9428 -0.6983
   29DOPE  H14Y 3728   2.178   3.954  15.697 -1.7410 -0.4094 -2.2362
   29DOPE  C315 3729   2.128   4.135  15.572 -0.5413  0.0798  0.9320
   29DOPE  H15X 3730   2.230   4.155  15.532 -0.4016 -0.3988  1.0367
   29DOPE  H15Y 3731   2.085   4.237  15.586  1.1409  0.6306  2.4722
   29DOPE  C316 3732   2.037   4.061  15.465  0.2339  0.2325  0.4207
   29DOPE  H16X 3733   1.934   4.060  15.505  1.0800 -0.0558  2.7910
   29DOPE  H16Y 3734   2.070   3.955  15.452  1.8881  0.5474  1.6015
   29DOPE  C317 3735   2.021   4.127  15.324  0.3117 -0.0093  0.4557
   29DOPE  H17X 3736   1.932   4.101  15.263 -1.3958 -1.2774  3.2511
   29DOPE  H17Y 3737   2.041   4.236  15.331  0.5877 -0.0847  0.9176
   29DOPE  C318 3738   2.131   4.082  15.228 -0.5043 -0.5327 -0.4115
   29DOPE  H18X 3739   2.114   3.979  15.190  1.2553 -1.0502  0.1243
   29DOPE  H18Y 3740   2.124   4.149  15.140  1.4148 -0.7447 -0.7614
   29DOPE  H18Z 3741   2.221   4.087  15.293 -1.7112  1.1879  1.2513
   30DOPE     N 3742   3.020   3.255  17.862 -0.0245  0.3686 -0.1303
   30DOPE   HN1 3743   3.038   3.171  17.921 -0.9622  0.7935  0.7956
   30DOPE   HN2 3744   3.013   3.215  17.766 -1.1686  3.1041 -1.2801
   30DOPE   HN3 3745   3.097   3.325  17.863 -0.1923  0.5545 -0.2007
   30DOPE   C12 3746   2.896   3.314  17.920 -0.7097  0.2670 -0.3160
   30DOPE  H12A 3747   2.926   3.372  18.010 -2.4112  3.3598 -1.5825
   30DOPE  H12B 3748   2.817   3.239  17.943 -0.0800 -0.3387 -0.1156
   30DOPE   C11 3749   2.847   3.429  17.829  0.1287  0.5278 -0.1454
   30DOPE  H11A 3750   2.927   3.506  17.817  0.0786  0.5405 -0.4058
   30DOPE  H11B 3751   2.766   3.478  17.887  0.1312 -0.2966  0.5689
   30DOPE     P 3752   2.649   3.344  17.660 -0.2452 -0.4542  0.2009
   30DOPE   O13 3753   2.576   3.285  17.773  0.1738  0.0954  0.2312
   30DOPE   O14 3754   2.659   3.268  17.533  0.1056  0.2127  0.0624
   30DOPE   O11 3755   2.588   3.483  17.644  0.5298  0.0748  0.4263
   30DOPE   O12 3756   2.796   3.382  17.704  0.0223  0.1583 -0.2247
   30DOPE    C1 3757   2.460   3.508  17.585 -0.4579  1.0791  0.3939
   30DOPE    HA 3758   2.405   3.598  17.622 -1.5594  1.1486 -1.2952
   30DOPE    HB 3759   2.383   3.430  17.602 -1.0914  2.0721  2.5036
   30DOPE    C2 3760   2.462   3.534  17.426  0.2497 -0.3642 -0.0982
   30DOPE    HS 3761   2.463   3.433  17.380  0.3789  1.0417 -3.4530
   30DOPE   O21 3762   2.585   3.609  17.383  0.5945 -0.0177 -0.3479
   30DOPE   C21 3763   2.627   3.586  17.253  0.5223 -0.1160 -0.4553
   30DOPE   O22 3764   2.575   3.499  17.187 -0.1730  0.1198 -0.0193
   30DOPE   C22 3765   2.729   3.692  17.211  0.3996  0.6938  0.8301
   30DOPE   H2R 3766   2.803   3.645  17.143  0.5367  0.8969  0.8382
   30DOPE   H2S 3767   2.781   3.734  17.300  2.8443 -1.7714  0.7130
   30DOPE    C3 3768   2.328   3.597  17.368  0.5487 -0.8071 -0.3088
   30DOPE    HX 3769   2.328   3.701  17.405 -0.9471 -0.6101 -0.7927
   30DOPE    HY 3770   2.249   3.535  17.416  0.4018 -0.3637  0.0211
   30DOPE   O31 3771   2.322   3.602  17.222 -0.4207  0.1407 -0.4059
   30DOPE   C31 3772   2.283   3.493  17.155  0.5435 -0.1316 -0.1035
   30DOPE   O32 3773   2.247   3.389  17.205  0.0524 -0.3438 -0.3941
   30DOPE   C32 3774   2.284   3.529  17.004  0.7541 -0.3792 -0.0401
   30DOPE   H2X 3775   2.177   3.547  16.978  1.3704  0.9192 -1.8421
   30DOPE   H2Y 3776   2.347   3.618  16.986  0.2578 -0.1171 -0.5256
   30DOPE   C23 3777   2.664   3.806  17.127 -0.0848  0.2768 -0.3709
   30DOPE   H3R 3778   2.741   3.885  17.118  0.6953 -0.4750 -0.3736
   30DOPE   H3S 3779   2.585   3.848  17.193  1.6924  1.5327  1.0606
   30DOPE   C24 3780   2.625   3.763  16.990 -0.3040 -0.6688 -0.4163
   30DOPE   H4R 3781   2.542   3.690  17.003 -1.1622 -0.3178 -3.1825
   30DOPE   H4S 3782   2.708   3.716  16.932 -0.0791  1.8113 -2.2605
   30DOPE   C25 3783   2.556   3.873  16.907 -0.9464 -0.2443  0.0054
   30DOPE   H5R 3784   2.631   3.948  16.876  0.5424 -0.6039  2.4606
   30DOPE   H5S 3785   2.491   3.930  16.977  1.1808  1.8300  0.4063
   30DOPE   C26 3786   2.476   3.833  16.783  0.2219 -0.0432 -0.6297
   30DOPE   H6R 3787   2.439   3.929  16.741 -3.1342 -0.1464  1.6745
   30DOPE   H6S 3788   2.387   3.775  16.815  0.3219  1.6336  3.2821
   30DOPE   C27 3789   2.567   3.765  16.685 -0.4996 -0.0847  0.3911
   30DOPE   H7R 3790   2.609   3.669  16.722  1.0741  1.3933  2.6455
   30DOPE   H7S 3791   2.649   3.839  16.680 -1.5743  1.4457  3.1554
   30DOPE   C28 3792   2.506   3.758  16.541 -0.2036 -0.5393 -0.6331
   30DOPE   H8R 3793   2.479   3.863  16.513 -0.8015 -0.5951 -0.2899
   30DOPE   H8S 3794   2.411   3.703  16.556 -0.5239  0.4968  1.5251
   30DOPE   C29 3795   2.603   3.694  16.443 -0.5924 -0.4497  0.0653
   30DOPE   H9R 3796   2.652   3.600  16.474  2.5572  1.2285  0.5997
   30DOPE  C210 3797   2.644   3.759  16.328 -0.0086  0.0244 -0.1838
   30DOPE  H10R 3798   2.702   3.711  16.248  1.5639  0.1344  0.8431
   30DOPE  C211 3799   2.597   3.897  16.298  0.1855  0.3336  0.2519
   30DOPE  H11R 3800   2.668   3.959  16.357  0.5964 -0.6161  0.7840
   30DOPE  H11S 3801   2.489   3.913  16.321 -0.0518 -0.1725 -0.4764
   30DOPE  C212 3802   2.608   3.933  16.145 -0.0488  0.7123 -0.1039
   30DOPE  H12R 3803   2.712   3.938  16.106 -0.1367  2.1413 -0.2102
   30DOPE  H12S 3804   2.558   4.031  16.130  0.8370  1.1873 -0.0260
   30DOPE  C213 3805   2.533   3.836  16.050 -0.0296  0.1968  0.0361
   30DOPE  H13R 3806   2.424   3.832  16.073 -0.3106 -1.0302 -1.3782
   30DOPE  H13S 3807   2.566   3.732  16.070  0.4213  0.2685 -0.3117
   30DOPE  C214 3808   2.541   3.893  15.901 -0.8341 -0.4000 -0.5216
   30DOPE  H14R 3809   2.648   3.897  15.873 -0.5037 -0.6639  0.6461
   30DOPE  H14S 3810   2.497   3.995  15.905  0.9806  0.3919 -0.1321
   30DOPE  C215 3811   2.467   3.808  15.796  0.8109  0.0261  0.2321
   30DOPE  H15R 3812   2.357   3.817  15.809  0.6994  0.8395 -1.0832
   30DOPE  H15S 3813   2.498   3.702  15.807 -1.0617 -1.0495 -3.2192
   30DOPE  C216 3814   2.489   3.845  15.651  0.2882 -0.3511  0.4043
   30DOPE  H16R 3815   2.599   3.853  15.635  0.5803  0.3493  2.5043
   30DOPE  H16S 3816   2.447   3.947  15.636 -1.4980 -1.3193 -1.8098
   30DOPE  C217 3817   2.414   3.765  15.549  0.2820  0.5096  0.0791
   30DOPE  H17R 3818   2.303   3.769  15.557  0.2462  0.0525 -0.1812
   30DOPE  H17S 3819   2.423   3.656  15.566 -0.7128  0.6461  1.7227
   30DOPE  C218 3820   2.436   3.797  15.400 -0.5562 -0.1671 -0.1835
   30DOPE  H18R 3821   2.545   3.804  15.377 -0.5603 -2.4562 -1.1390
   30DOPE  H18S 3822   2.396   3.896  15.372  1.8978  0.5245 -1.5902
   30DOPE  H18T 3823   2.404   3.720  15.327 -0.4848  0.5602 -0.9924
   30DOPE   C33 3824   2.343   3.415  16.916  0.1036 -0.0622  0.3326
   30DOPE   H3X 3825   2.293   3.317  16.934 -0.6581  0.3509  0.5320
   30DOPE   H3Y 3826   2.451   3.411  16.943  0.0737  0.9413  0.6470
   30DOPE   C34 3827   2.329   3.430  16.765 -0.1967  0.1475  0.5717
   30DOPE   H4X 3828   2.225   3.458  16.740  0.0300  0.5889  0.0881
   30DOPE   H4Y 3829   2.386   3.517  16.724 -1.3604 -0.1810 -1.8520
   30DOPE   C35 3830   2.382   3.309  16.694 -0.0469 -0.5553  0.7685
   30DOPE   H5X 3831   2.309   3.227  16.716 -0.4279 -0.5141 -0.3069
   30DOPE   H5Y 3832   2.487   3.287  16.720  0.6943  2.1060  0.2502
   30DOPE   C36 3833   2.387   3.331  16.545 -0.3061 -0.0365 -0.6111
   30DOPE   H6X 3834   2.457   3.416  16.530 -0.9277  0.7772  0.9136
   30DOPE   H6Y 3835   2.288   3.364  16.505 -1.1927 -0.1589  1.3852
   30DOPE   C37 3836   2.429   3.196  16.490  0.6665 -0.0562 -0.0341
   30DOPE   H7X 3837   2.531   3.173  16.530  0.9882  0.7223 -0.3941
   30DOPE   H7Y 3838   2.354   3.120  16.521  0.0906 -0.0121 -1.2812
   30DOPE   C38 3839   2.436   3.196  16.336  0.1859  0.6407  0.9323
   30DOPE   H8X 3840   2.337   3.206  16.288  0.3824  0.8972  0.5722
   30DOPE   H8Y 3841   2.472   3.096  16.304  0.3124  1.1714 -0.6619
   30DOPE   C39 3842   2.540   3.294  16.277  0.4331 -0.1233 -0.7287
   30DOPE   H9X 3843   2.640   3.299  16.322 -0.1395 -0.1375  0.5753
   30DOPE  C310 3844   2.524   3.368  16.167  0.2133 -0.1056  0.4275
   30DOPE  H10X 3845   2.608   3.427  16.128 -0.4047  0.1479 -0.5579
   30DOPE  C311 3846   2.400   3.391  16.090  0.0597  0.6099  0.0268
   30DOPE  H11X 3847   2.313   3.397  16.159  1.0612  1.2840  1.2820
   30DOPE  H11Y 3848   2.405   3.480  16.024  2.4047  0.1865 -0.4765
   30DOPE  C312 3849   2.359   3.287  15.988 -0.4976  0.7647 -0.0717
   30DOPE  H12X 3850   2.252   3.307  15.967 -1.1064  0.4927  2.5256
   30DOPE  H12Y 3851   2.369   3.190  16.040 -0.8006  0.2792 -0.8929
   30DOPE  C313 3852   2.426   3.294  15.848  0.3675 -0.2905  0.5664
   30DOPE  H13X 3853   2.395   3.396  15.820  1.5436  0.8912  3.2184
   30DOPE  H13Y 3854   2.537   3.292  15.852  0.5780 -0.3138 -2.7361
   30DOPE  C314 3855   2.379   3.186  15.749  1.0309 -1.0724  0.6655
   30DOPE  H14X 3856   2.269   3.199  15.757  0.6472 -0.5116 -3.4724
   30DOPE  H14Y 3857   2.413   3.096  15.805 -0.2103 -0.4455  2.5245
   30DOPE  C315 3858   2.410   3.200  15.597  0.3719 -0.2525 -0.3831
   30DOPE  H15X 3859   2.519   3.191  15.584  0.3907  1.0577 -1.3799
   30DOPE  H15Y 3860   2.386   3.301  15.556 -2.7597 -0.7677 -0.0905
   30DOPE  C316 3861   2.344   3.094  15.506 -0.9715  0.5482 -0.5424
   30DOPE  H16X 3862   2.243   3.139  15.496 -1.1948  0.2917  0.5201
   30DOPE  H16Y 3863   2.351   2.993  15.551 -1.0389 -0.0311 -1.7658
   30DOPE  C317 3864   2.398   3.087  15.362  0.6285 -0.1775 -0.3835
   30DOPE  H17X 3865   2.436   3.188  15.334  0.2342  0.2712  0.6638
   30DOPE  H17Y 3866   2.482   3.014  15.368  0.5702 -0.2044  0.0661
   30DOPE  C318 3867   2.282   3.034  15.270 -0.0066  0.4145 -0.0338
   30DOPE  H18X 3868   2.243   2.936  15.303 -1.2626  0.5071 -1.1999
   30DOPE  H18Y 3869   2.191   3.098  15.266 -0.7442 -0.5365  0.9138
   30DOPE  H18Z 3870   2.325   3.014  15.170 -0.7840 -0.8758 -0.1304
   31DOPE     N 3871   5.580   6.331  13.134 -0.7047 -0.4828 -0.4336
   31DOPE   HN1 3872   5.488   6.304  13.094 -0.7096  1.2729 -1.7439
   31DOPE   HN2 3873   5.630   6.246  13.166  2.6755  1.8765  1.1357
   31DOPE   HN3 3874   5.563   6.395  13.214 -2.9701 -1.9038  0.3151
   31DOPE   C12 3875   5.665   6.396  13.025 -0.5851  0.1214 -0.3759
   31DOPE  H12A 3876   5.729   6.319  12.977 -0.7977 -1.1170  1.2403
   31DOPE  H12B 3877   5.731   6.467  13.080 -0.1381 -0.7460  0.2327
   31DOPE   C11 3878   5.572   6.483  12.924 -0.0031 -0.4024 -0.7453
   31DOPE  H11A 3879   5.638   6.535  12.852 -1.5451  1.6763 -0.7315
   31DOPE  H11B 3880   5.525   6.571  12.972  1.5361 -0.2471  0.5491
   31DOPE     P 3881   5.340   6.344  12.873 -0.1232 -0.4955  0.2693
   31DOPE   O13 3882   5.305   6.230  12.783 -0.0987  1.0371  0.5359
   31DOPE   O14 3883   5.249   6.460  12.875 -0.4076 -0.4160  0.1287
   31DOPE   O11 3884   5.341   6.295  13.027 -0.6403 -0.1103 -0.2596
   31DOPE   O12 3885   5.483   6.398  12.851  0.3278 -0.1747  0.2401
   31DOPE    C1 3886   5.224   6.279  13.102 -0.0203 -0.2257 -0.4254
   31DOPE    HA 3887   5.141   6.241  13.039  0.5709 -1.9364 -0.2243
   31DOPE    HB 3888   5.200   6.375  13.152  0.8372  0.0615 -0.5545
   31DOPE    C2 3889   5.255   6.166  13.208 -0.1153 -0.3962  0.2740
   31DOPE    HS 3890   5.162   6.165  13.268  0.0756 -1.4043  0.5693
   31DOPE   O21 3891   5.376   6.192  13.292  0.5328 -0.6497 -0.1756
   31DOPE   C21 3892   5.371   6.139  13.413  0.8885  0.3389  0.6698
   31DOPE   O22 3893   5.278   6.076  13.458  0.4202  0.1811 -1.0467
   31DOPE   C22 3894   5.491   6.171  13.499  0.0014 -0.0755 -0.1110
   31DOPE   H2R 3895   5.472   6.264  13.556  0.2537  0.4792 -0.9288
   31DOPE   H2S 3896   5.574   6.199  13.431  1.1104  0.3506  1.3687
   31DOPE    C3 3897   5.289   6.030  13.137 -1.4728  0.4368 -0.4186
   31DOPE    HX 3898   5.385   6.054  13.086 -0.9818  1.4362  0.9122
   31DOPE    HY 3899   5.210   6.008  13.063 -3.1260 -0.2397  1.4761
   31DOPE   O31 3900   5.320   5.920  13.229 -0.3421 -0.1550  0.2011
   31DOPE   C31 3901   5.222   5.830  13.245  0.3023  0.2984  0.4939
   31DOPE   O32 3902   5.113   5.830  13.192 -0.2405  0.5461  0.2543
   31DOPE   C32 3903   5.273   5.736  13.350  0.4012  0.4506 -0.0084
   31DOPE   H2X 3904   5.258   5.631  13.316 -0.6092 -0.5648  3.1967
   31DOPE   H2Y 3905   5.382   5.741  13.371  0.4459 -2.3676  0.9235
   31DOPE   C23 3906   5.540   6.047  13.574  0.0180  0.9576 -0.1161
   31DOPE   H3R 3907   5.564   5.962  13.507  0.3163 -1.2128  2.5779
   31DOPE   H3S 3908   5.460   5.999  13.633 -2.5960  2.0421 -2.5295
   31DOPE   C24 3909   5.658   6.076  13.666 -0.1488 -0.0961  0.1725
   31DOPE   H4R 3910   5.745   6.094  13.599  1.5315 -3.0150  1.3800
   31DOPE   H4S 3911   5.692   5.987  13.724  1.8454  0.5905  0.1370
   31DOPE   C25 3912   5.635   6.186  13.771 -0.2696 -0.1399  0.1831
   31DOPE   H5R 3913   5.619   6.278  13.710  2.5154 -0.9119 -1.8924
   31DOPE   H5S 3914   5.721   6.200  13.840  0.4102  1.6230 -0.9624
   31DOPE   C26 3915   5.514   6.160  13.855  0.7950 -0.0779 -0.2277
   31DOPE   H6R 3916   5.511   6.055  13.892 -0.3061  0.6516  1.9328
   31DOPE   H6S 3917   5.420   6.166  13.797 -0.8535  2.1702  2.4531
   31DOPE   C27 3918   5.500   6.261  13.971  0.4376 -0.2234  0.2297
   31DOPE   H7R 3919   5.398   6.255  14.014  0.0686  1.9786 -0.2433
   31DOPE   H7S 3920   5.518   6.357  13.920  0.3135  0.0666  0.7249
   31DOPE   C28 3921   5.611   6.248  14.085 -0.1326 -0.0573 -0.5286
   31DOPE   H8R 3922   5.600   6.336  14.151 -0.0923 -0.6825  0.3305
   31DOPE   H8S 3923   5.712   6.261  14.041 -0.0569  0.8068 -0.1134
   31DOPE   C29 3924   5.595   6.126  14.168 -0.2017 -0.0648  0.9676
   31DOPE   H9R 3925   5.620   6.035  14.112 -0.7128 -1.6067  3.1017
   31DOPE  C210 3926   5.552   6.109  14.297  0.0274 -0.4952  0.8035
   31DOPE  H10R 3927   5.559   6.010  14.345  2.1201 -0.7043  0.1922
   31DOPE  C211 3928   5.508   6.220  14.388 -0.7657 -0.1060  0.5018
   31DOPE  H11R 3929   5.407   6.198  14.430 -0.9565 -0.9178 -0.3450
   31DOPE  H11S 3930   5.487   6.305  14.320  0.3269 -0.6027 -0.4878
   31DOPE  C212 3931   5.629   6.261  14.486 -0.1004 -0.0606  0.4782
   31DOPE  H12R 3932   5.600   6.350  14.546 -2.5374  0.7431 -1.6771
   31DOPE  H12S 3933   5.722   6.283  14.429 -0.4784  0.4628  0.0536
   31DOPE  C213 3934   5.654   6.147  14.580  0.5259 -0.2087  0.7157
   31DOPE  H13R 3935   5.726   6.174  14.660  0.2736  1.2973  0.4668
   31DOPE  H13S 3936   5.707   6.062  14.533 -1.7913 -1.1732 -0.3020
   31DOPE  C214 3937   5.519   6.106  14.644  0.2423 -0.1566 -0.6739
   31DOPE  H14R 3938   5.475   6.031  14.575 -0.5082 -0.0521 -0.3200
   31DOPE  H14S 3939   5.448   6.192  14.650  0.9704  0.4558 -0.7258
   31DOPE  C215 3940   5.525   6.052  14.783  0.1406 -0.1628  0.2447
   31DOPE  H15R 3941   5.419   6.031  14.807  0.1527  0.6991  1.1062
   31DOPE  H15S 3942   5.559   6.129  14.856 -0.2296 -0.3083  0.5731
   31DOPE  C216 3943   5.611   5.929  14.801 -0.0984 -0.3341  0.2863
   31DOPE  H16R 3944   5.711   5.963  14.764  0.3397 -1.9244 -0.0657
   31DOPE  H16S 3945   5.574   5.847  14.736  0.1603 -0.3980  0.2158
   31DOPE  C217 3946   5.625   5.866  14.938  0.0599  0.1232  0.1603
   31DOPE  H17R 3947   5.702   5.786  14.939  0.9002  0.9176 -0.0208
   31DOPE  H17S 3948   5.525   5.832  14.974  0.8844 -3.4188 -0.4623
   31DOPE  C218 3949   5.668   5.972  15.035 -0.0215 -0.7190  0.1006
   31DOPE  H18R 3950   5.769   6.012  15.014  0.5481 -0.4389  2.9021
   31DOPE  H18S 3951   5.666   5.936  15.141 -1.3190 -1.8508 -0.2720
   31DOPE  H18T 3952   5.594   6.055  15.036 -0.2660 -0.9092 -0.9512
   31DOPE   C33 3953   5.205   5.756  13.485  0.9722 -0.2530 -0.4519
   31DOPE   H3X 3954   5.095   5.738  13.483  0.5810  1.4925  1.5071
   31DOPE   H3Y 3955   5.193   5.865  13.507 -0.6680 -0.4166 -0.4177
   31DOPE   C34 3956   5.275   5.677  13.597  1.0653  0.7423  0.2753
   31DOPE   H4X 3957   5.284   5.572  13.564 -2.4276 -0.5090  2.7349
   31DOPE   H4Y 3958   5.376   5.723  13.608  0.5478  1.9531  0.1117
   31DOPE   C35 3959   5.207   5.694  13.733  0.0987  0.4788  0.0939
   31DOPE   H5X 3960   5.121   5.626  13.746  0.5869 -0.2636 -0.4477
   31DOPE   H5Y 3961   5.160   5.795  13.739  0.2204  0.4772  1.3752
   31DOPE   C36 3962   5.308   5.682  13.853  0.2014  0.5536 -0.3704
   31DOPE   H6X 3963   5.380   5.766  13.843  0.5709  0.2406 -0.3592
   31DOPE   H6Y 3964   5.361   5.588  13.828  1.3186  1.0197  0.1890
   31DOPE   C37 3965   5.247   5.679  13.994 -0.0432 -0.2029 -0.0574
   31DOPE   H7X 3966   5.325   5.706  14.068  0.1047  2.2678 -1.0219
   31DOPE   H7Y 3967   5.171   5.758  14.011  0.1558 -0.3206  1.4717
   31DOPE   C38 3968   5.181   5.543  14.049 -0.1878  0.0069  0.5943
   31DOPE   H8X 3969   5.116   5.503  13.968  0.5228  0.0907 -0.0256
   31DOPE   H8Y 3970   5.119   5.578  14.135  0.0032  0.1712  0.6655
   31DOPE   C39 3971   5.282   5.442  14.090  0.3282  0.3917  0.1248
   31DOPE   H9X 3972   5.334   5.388  14.010  0.0909  0.2337  0.0759
   31DOPE  C310 3973   5.330   5.418  14.213 -0.1353  0.1017  0.3900
   31DOPE  H10X 3974   5.413   5.346  14.227  2.2136  2.3710 -1.1033
   31DOPE  C311 3975   5.272   5.461  14.344 -0.2804 -0.7697  0.5963
   31DOPE  H11X 3976   5.361   5.476  14.408 -0.2462  2.9088 -0.0806
   31DOPE  H11Y 3977   5.228   5.564  14.338 -0.9632 -1.1209 -0.9790
   31DOPE  C312 3978   5.161   5.363  14.380 -0.1605 -0.0933  0.5333
   31DOPE  H12X 3979   5.209   5.263  14.377  0.2269  0.0957 -1.5829
   31DOPE  H12Y 3980   5.090   5.372  14.295 -0.0538  0.8602  0.5416
   31DOPE  C313 3981   5.091   5.377  14.518  0.1744 -0.1361 -0.1537
   31DOPE  H13X 3982   5.050   5.479  14.533 -0.0981 -0.2885  0.1572
   31DOPE  H13Y 3983   5.007   5.304  14.508  0.7668 -0.7539 -0.7174
   31DOPE  C314 3984   5.179   5.344  14.639 -0.3586 -0.7012  0.2593
   31DOPE  H14X 3985   5.257   5.422  14.647 -1.9551  0.9983 -0.1902
   31DOPE  H14Y 3986   5.233   5.247  14.630 -0.4891 -0.8265  0.7925
   31DOPE  C315 3987   5.100   5.345  14.775 -1.2152  0.1483 -0.3990
   31DOPE  H15X 3988   5.022   5.268  14.760  2.2040 -3.5904 -0.9071
   31DOPE  H15Y 3989   5.047   5.442  14.786  0.4881  1.4728 -2.7466
   31DOPE  C316 3990   5.186   5.300  14.894 -0.4485 -0.1462  0.6578
   31DOPE  H16X 3991   5.228   5.200  14.872 -1.6564 -0.6168  0.4234
   31DOPE  H16Y 3992   5.134   5.284  14.992 -0.0054  1.1266  1.1197
   31DOPE  C317 3993   5.318   5.383  14.914  0.5672  0.4054 -0.0327
   31DOPE  H17X 3994   5.361   5.335  15.004 -0.7869  2.0869  1.5880
   31DOPE  H17Y 3995   5.384   5.368  14.825 -1.0609 -0.0998 -1.2110
   31DOPE  C318 3996   5.298   5.542  14.929  0.2822  0.6782  0.1840
   31DOPE  H18X 3997   5.381   5.600  14.973  0.8358  1.9164 -2.3016
   31DOPE  H18Y 3998   5.272   5.579  14.827  1.7733 -0.2875 -0.5768
   31DOPE  H18Z 3999   5.200   5.558  14.980 -0.3810  2.1108 -1.4307
   32DOPE     N 4000   0.926   0.194  13.125  0.3128  0.5168  0.2563
   32DOPE   HN1 4001   0.857   0.227  13.195 -0.4423 -0.7116  0.1294
   32DOPE   HN2 4002   1.019   0.234  13.147  1.0642 -1.8509  1.7033
   32DOPE   HN3 4003   0.891   0.212  13.029 -0.3738  1.4547  0.6702
   32DOPE   C12 4004   0.931   0.040  13.149 -0.3155 -0.4860 -0.5447
   32DOPE  H12A 4005   1.034   0.019  13.114 -0.3643  1.0164 -1.6860
   32DOPE  H12B 4006   0.855  -0.008  13.084  0.8081 -2.1365 -0.6993
   32DOPE   C11 4007   0.920   0.012  13.301  0.4152 -0.1548 -0.1609
   32DOPE  H11A 4008   0.812   0.022  13.328  0.3068  0.2278 -0.7270
   32DOPE  H11B 4009   0.977   0.089  13.357  1.0536 -1.0772  0.4924
   32DOPE     P 4010   1.099  -0.162  13.376  0.3944  0.0725 -0.1903
   32DOPE   O13 4011   1.188  -0.089  13.287  0.0246  0.4552  0.0125
   32DOPE   O14 4012   1.097  -0.308  13.371 -0.3775  0.4414  0.4909
   32DOPE   O11 4013   1.118  -0.113  13.526  0.2311 -0.1994 -0.2574
   32DOPE   O12 4014   0.956  -0.119  13.341  0.4194 -0.0456 -0.0267
   32DOPE    C1 4015   1.012  -0.058  13.611  0.6821  0.7710  0.1664
   32DOPE    HA 4016   0.909  -0.092  13.589  0.5243  0.7098  0.9985
   32DOPE    HB 4017   1.017   0.053  13.618  0.0235  0.8640 -0.6627
   32DOPE    C2 4018   1.035  -0.096  13.757  0.2177  0.7866 -0.0625
   32DOPE    HS 4019   0.946  -0.062  13.813 -2.1224 -4.2092 -0.2077
   32DOPE   O21 4020   1.164  -0.044  13.808 -0.1837 -0.0735  0.6101
   32DOPE   C21 4021   1.180  -0.021  13.939 -0.4653 -0.4686  0.7559
   32DOPE   O22 4022   1.091  -0.004  14.017 -0.0886  0.2388 -0.2618
   32DOPE   C22 4023   1.322   0.001  13.954  0.1737 -0.8027 -1.3582
   32DOPE   H2R 4024   1.354   0.083  13.887 -1.1705 -1.7491 -3.2462
   32DOPE   H2S 4025   1.381  -0.090  13.929  1.4112 -0.7683  1.1112
   32DOPE    C3 4026   1.028  -0.255  13.762 -0.4635 -0.0400 -0.5310
   32DOPE    HX 4027   1.114  -0.289  13.701  0.7671  0.9763  0.6052
   32DOPE    HY 4028   0.945  -0.301  13.704 -0.1712  0.2073 -1.1589
   32DOPE   O31 4029   1.042  -0.296  13.898 -0.0086  0.1819 -0.2228
   32DOPE   C31 4030   0.922  -0.300  13.957 -0.4410  0.1260  0.4068
   32DOPE   O32 4031   0.821  -0.263  13.908  0.0665 -0.4077  0.2676
   32DOPE   C32 4032   0.942  -0.348  14.105 -0.2330  0.3472 -0.1870
   32DOPE   H2X 4033   0.879  -0.436  14.128  0.2734  0.0722  0.1548
   32DOPE   H2Y 4034   1.049  -0.368  14.127 -0.9831 -0.5489  3.3939
   32DOPE   C23 4035   1.361   0.042  14.102  0.3808  0.1911  0.2484
   32DOPE   H3R 4036   1.342  -0.054  14.155  1.4538 -0.3259 -0.2576
   32DOPE   H3S 4037   1.299   0.126  14.139  1.2585  1.5860 -1.2923
   32DOPE   C24 4038   1.505   0.073  14.115 -0.4202 -0.0420  0.4594
   32DOPE   H4R 4039   1.534   0.166  14.062  1.5339 -1.3704 -0.9307
   32DOPE   H4S 4040   1.567  -0.009  14.071  0.2186  0.6382  0.0752
   32DOPE   C25 4041   1.554   0.095  14.258 -0.3975 -0.0275  0.8088
   32DOPE   H5R 4042   1.523   0.190  14.306  0.0922 -0.4495  2.0097
   32DOPE   H5S 4043   1.665   0.100  14.257 -0.3923  0.0844 -1.1562
   32DOPE   C26 4044   1.497  -0.007  14.351 -0.4735 -0.2967  0.5178
   32DOPE   H6R 4045   1.525  -0.104  14.305  2.0191  1.1949 -1.3834
   32DOPE   H6S 4046   1.386  -0.002  14.356 -0.9266 -4.0429 -1.6410
   32DOPE   C27 4047   1.566   0.003  14.488 -0.3854 -0.4320 -0.1338
   32DOPE   H7R 4048   1.555   0.108  14.524 -2.5925 -0.4561 -0.5523
   32DOPE   H7S 4049   1.673  -0.024  14.481 -0.3470 -0.7450  1.3380
   32DOPE   C28 4050   1.497  -0.088  14.592 -0.3302  0.5768 -0.0601
   32DOPE   H8R 4051   1.578  -0.113  14.664  1.6404  0.6433 -2.1230
   32DOPE   H8S 4052   1.460  -0.179  14.540 -0.4512 -0.1856  1.3306
   32DOPE   C29 4053   1.381  -0.028  14.678 -0.6646 -0.4488  0.4012
   32DOPE   H9R 4054   1.285  -0.036  14.626  0.1569 -1.2343 -1.0896
   32DOPE  C210 4055   1.385   0.011  14.808  0.4954  0.1429 -0.0383
   32DOPE  H10R 4056   1.288   0.044  14.848  0.6416  1.5764 -0.7825
   32DOPE  C211 4057   1.513   0.016  14.888 -0.2404 -0.4004  0.1874
   32DOPE  H11R 4058   1.562   0.114  14.870 -1.0786 -0.1396 -0.7332
   32DOPE  H11S 4059   1.588  -0.059  14.856 -1.1610 -1.0961 -0.3794
   32DOPE  C212 4060   1.519  -0.009  15.038 -0.2781 -0.2677  1.5167
   32DOPE  H12R 4061   1.476  -0.111  15.040  1.0100 -0.9722 -1.6073
   32DOPE  H12S 4062   1.449   0.064  15.085  0.1090  1.6086 -0.6186
   32DOPE  C213 4063   1.651  -0.002  15.107  0.1086  0.0818 -0.7558
   32DOPE  H13R 4064   1.709   0.086  15.073  1.0701 -0.9966 -2.0303
   32DOPE  H13S 4065   1.705  -0.093  15.071  2.7206  0.8083  1.0607
   32DOPE  C214 4066   1.635  -0.003  15.258  0.6261 -0.1481 -0.3013
   32DOPE  H14R 4067   1.576  -0.095  15.278 -0.1791 -0.1905 -2.5734
   32DOPE  H14S 4068   1.588   0.093  15.286  0.7058  0.4169 -1.9846
   32DOPE  C215 4069   1.768  -0.034  15.323  0.2093 -0.2252 -0.4090
   32DOPE  H15R 4070   1.832   0.057  15.326 -1.7557  1.2086  1.2914
   32DOPE  H15S 4071   1.828  -0.115  15.277  0.9019  0.2271 -0.3195
   32DOPE  C216 4072   1.746  -0.061  15.478 -0.3143  0.1163 -0.2185
   32DOPE  H16R 4073   1.676  -0.147  15.491 -0.6002  0.1579 -1.3980
   32DOPE  H16S 4074   1.695   0.028  15.522  3.0279  1.1398  1.9734
   32DOPE  C217 4075   1.873  -0.093  15.547  0.1294  0.7705 -0.0415
   32DOPE  H17R 4076   1.954  -0.018  15.535  0.9941 -0.2739 -0.8708
   32DOPE  H17S 4077   1.919  -0.182  15.500  2.5835  2.4859 -1.0569
   32DOPE  C218 4078   1.857  -0.122  15.700 -0.0775 -0.1258  0.6491
   32DOPE  H18R 4079   1.954  -0.127  15.754  1.3444 -2.0473 -1.8218
   32DOPE  H18S 4080   1.822  -0.228  15.699  0.0501 -0.1747  1.2580
   32DOPE  H18T 4081   1.783  -0.053  15.746  1.4876  1.9976  0.1274
   32DOPE   C33 4082   0.898  -0.248  14.219 -0.4839  0.1669  0.3942
   32DOPE   H3X 4083   0.788  -0.230  14.220 -0.9809 -2.2414 -1.2717
   32DOPE   H3Y 4084   0.934  -0.148  14.186  0.8550 -0.2934  0.3965
   32DOPE   C34 4085   0.947  -0.271  14.353  0.1169 -0.3377 -0.1950
   32DOPE   H4X 4086   0.924  -0.375  14.385  2.7610 -0.4800  1.4849
   32DOPE   H4Y 4087   1.056  -0.252  14.362 -0.2704  1.8142  0.5678
   32DOPE   C35 4088   0.889  -0.170  14.457 -0.5534 -0.1549 -0.3056
   32DOPE   H5X 4089   0.783  -0.190  14.484 -0.1503  0.3621  1.8679
   32DOPE   H5Y 4090   0.885  -0.066  14.418 -2.2924  1.4062  3.4575
   32DOPE   C36 4091   0.975  -0.169  14.583  0.1152  0.1065  0.4536
   32DOPE   H6X 4092   1.067  -0.109  14.566 -1.4571  2.8546  0.9666
   32DOPE   H6Y 4093   0.998  -0.269  14.623  0.2278  1.0303  2.8513
   32DOPE   C37 4094   0.897  -0.104  14.700  0.9759 -0.0465 -0.4042
   32DOPE   H7X 4095   0.803  -0.162  14.706 -0.2683  1.5536 -2.6532
   32DOPE   H7Y 4096   0.959  -0.106  14.792  1.1065 -3.2169 -0.4591
   32DOPE   C38 4097   0.858   0.042  14.671 -0.0152 -0.8415 -0.0769
   32DOPE   H8X 4098   0.795   0.077  14.755 -0.7538 -0.2344 -0.8659
   32DOPE   H8Y 4099   0.793   0.049  14.581  0.1761  0.8157 -0.1110
   32DOPE   C39 4100   0.982   0.120  14.668 -0.4423 -0.0199 -0.0078
   32DOPE   H9X 4101   1.027   0.125  14.568 -0.8787 -0.6969 -0.2459
   32DOPE  C310 4102   1.029   0.198  14.768 -1.0805 -0.3621  0.4308
   32DOPE  H10X 4103   1.105   0.271  14.737 -0.6336 -1.6691 -1.7972
   32DOPE  C311 4104   0.971   0.207  14.906  0.2997  0.2184  0.0938
   32DOPE  H11X 4105   0.885   0.275  14.890  0.5718  0.2889 -1.2523
   32DOPE  H11Y 4106   0.929   0.111  14.942  0.6971  0.2779  0.7314
   32DOPE  C312 4107   1.066   0.260  15.016 -0.0002  0.1907 -0.1667
   32DOPE  H12X 4108   1.117   0.355  14.988 -2.8807  1.8651 -0.0855
   32DOPE  H12Y 4109   1.149   0.192  15.044  1.1123  1.1872 -0.9186
   32DOPE  C313 4110   0.992   0.299  15.148 -0.0359 -0.4767  0.2508
   32DOPE  H13X 4111   0.913   0.370  15.117  1.9291  1.5304 -0.4085
   32DOPE  H13Y 4112   0.933   0.222  15.203 -0.2512  0.2375  1.0487
   32DOPE  C314 4113   1.082   0.370  15.251 -0.2249  0.0334 -0.6269
   32DOPE  H14X 4114   1.133   0.444  15.186 -1.7160  0.8847 -0.8664
   32DOPE  H14Y 4115   1.161   0.297  15.278  0.5478  1.2780  0.6179
   32DOPE  C315 4116   1.022   0.433  15.371 -0.8314  0.0914  0.1374
   32DOPE  H15X 4117   0.955   0.361  15.423 -0.3812 -1.2769 -1.1151
   32DOPE  H15Y 4118   0.962   0.521  15.340  0.2066  1.0059  0.6170
   32DOPE  C316 4119   1.123   0.502  15.468  0.0864  0.5020  0.1275
   32DOPE  H16X 4120   1.214   0.439  15.477 -0.1208  0.5169  3.2550
   32DOPE  H16Y 4121   1.072   0.499  15.567 -0.6732 -3.5529 -0.2236
   32DOPE  C317 4122   1.161   0.646  15.431  0.3257 -0.3105 -0.1573
   32DOPE  H17X 4123   1.065   0.697  15.407 -0.8810 -2.0382  0.7780
   32DOPE  H17Y 4124   1.203   0.694  15.521 -1.6942  1.1039  0.1047
   32DOPE  C318 4125   1.255   0.656  15.311 -0.7587  0.7576 -0.0911
   32DOPE  H18X 4126   1.292   0.760  15.297  1.2233  0.0785 -0.1558
   32DOPE  H18Y 4127   1.349   0.604  15.339 -1.8634 -1.2372  0.1353
   32DOPE  H18Z 4128   1.217   0.622  15.212 -1.2805 -0.6058  0.5592
   33DOPE     N 4129   6.437   4.829  13.011 -0.3140  0.8162  0.5354
   33DOPE   HN1 4130   6.441   4.802  13.112 -1.4650 -0.1653  0.3469
   33DOPE   HN2 4131   6.534   4.861  12.995  0.1377 -0.2693  0.9829
   33DOPE   HN3 4132   6.376   4.912  12.998 -0.2156  0.4459 -3.8979
   33DOPE   C12 4133   6.405   4.714  12.918  0.4779 -0.0123  1.2664
   33DOPE  H12A 4134   6.311   4.662  12.948 -0.2582  0.5836  0.0865
   33DOPE  H12B 4135   6.497   4.652  12.917  0.6242 -0.0340 -3.4129
   33DOPE   C11 4136   6.395   4.760  12.768  0.2960  0.1271  0.5032
   33DOPE  H11A 4137   6.393   4.675  12.697 -1.1757  0.1936  0.4470
   33DOPE  H11B 4138   6.487   4.812  12.734  0.5539 -1.5040 -1.3975
   33DOPE     P 4139   6.138   4.808  12.728  0.0017 -0.5325 -0.0799
   33DOPE   O13 4140   6.114   4.676  12.668 -0.7766 -0.5500 -0.1421
   33DOPE   O14 4141   6.071   4.925  12.667  0.5053  0.3775 -0.4620
   33DOPE   O11 4142   6.102   4.810  12.881 -0.0983 -0.5023 -0.9311
   33DOPE   O12 4143   6.293   4.848  12.743 -0.2058  0.1387 -0.0638
   33DOPE    C1 4144   5.971   4.780  12.927 -0.0894 -0.8656 -1.1414
   33DOPE    HA 4145   5.945   4.681  12.884 -0.2292 -0.6165 -1.6251
   33DOPE    HB 4146   5.894   4.853  12.897  0.2256  0.7968  1.7134
   33DOPE    C2 4147   5.981   4.759  13.081 -0.2270  0.1119  0.2513
   33DOPE    HS 4148   6.026   4.854  13.117  2.2277 -0.4406 -1.1669
   33DOPE   O21 4149   6.070   4.653  13.117  0.2543  0.0238 -0.0040
   33DOPE   C21 4150   6.135   4.659  13.239  0.2300 -0.4205 -0.7130
   33DOPE   O22 4151   6.158   4.765  13.293  0.4440  0.1014  0.6184
   33DOPE   C22 4152   6.165   4.521  13.282 -0.2562 -0.1179 -0.5163
   33DOPE   H2R 4153   6.246   4.525  13.359  0.5183  0.7332 -1.3620
   33DOPE   H2S 4154   6.207   4.480  13.188 -1.2051 -0.3425 -0.8481
   33DOPE    C3 4155   5.845   4.732  13.154 -0.2589 -0.1586  0.0763
   33DOPE    HX 4156   5.814   4.626  13.146  0.5674 -0.5077  1.1507
   33DOPE    HY 4157   5.766   4.801  13.118  0.8692  0.8166 -0.6183
   33DOPE   O31 4158   5.864   4.747  13.298  0.0108 -0.1667 -0.0811
   33DOPE   C31 4159   5.858   4.872  13.349  0.6260  0.2656 -0.2820
   33DOPE   O32 4160   5.836   4.971  13.283 -0.2042  0.3331 -0.1279
   33DOPE   C32 4161   5.876   4.880  13.508  0.5799  0.1655  0.1929
   33DOPE   H2X 4162   5.796   4.830  13.566  0.5196 -0.4232 -0.3888
   33DOPE   H2Y 4163   5.975   4.836  13.534  0.5415 -0.2974 -0.4073
   33DOPE   C23 4164   6.043   4.448  13.341 -0.2122  0.0085 -0.3857
   33DOPE   H3R 4165   6.055   4.338  13.340 -0.0360 -0.0021  1.0086
   33DOPE   H3S 4166   5.959   4.480  13.275 -0.2249 -2.2924 -1.6087
   33DOPE   C24 4167   6.012   4.483  13.492 -0.2430  0.0345 -0.0159
   33DOPE   H4R 4168   5.915   4.436  13.519  0.2333 -0.5005  0.8286
   33DOPE   H4S 4169   5.999   4.587  13.529 -0.2393 -0.6572  2.1063
   33DOPE   C25 4170   6.115   4.431  13.598 -0.3416 -0.0777  0.2492
   33DOPE   H5R 4171   6.203   4.495  13.579 -0.6108  0.5700  1.1228
   33DOPE   H5S 4172   6.143   4.325  13.581  2.9654  0.6314  0.6082
   33DOPE   C26 4173   6.058   4.442  13.739  0.2102  0.4662 -0.4276
   33DOPE   H6R 4174   5.948   4.425  13.737  0.6328 -3.3753  0.7343
   33DOPE   H6S 4175   6.073   4.545  13.779 -1.2487 -0.0956  1.8118
   33DOPE   C27 4176   6.119   4.336  13.832 -0.0278 -0.0051 -0.0248
   33DOPE   H7R 4177   6.230   4.343  13.833 -0.0399  0.2717 -0.4450
   33DOPE   H7S 4178   6.092   4.232  13.802  0.4198 -0.5077  1.2274
   33DOPE   C28 4179   6.057   4.338  13.978 -0.9851 -0.5637 -0.0520
   33DOPE   H8R 4180   5.946   4.343  13.977 -1.0297  4.3391  1.1559
   33DOPE   H8S 4181   6.089   4.440  14.009  1.0197 -0.9985 -0.5680
   33DOPE   C29 4182   6.100   4.227  14.065 -0.0245  0.0301 -0.3437
   33DOPE   H9R 4183   6.142   4.140  14.014  0.3552 -0.4544  0.7725
   33DOPE  C210 4184   6.104   4.234  14.200 -0.2205  0.0365 -0.1395
   33DOPE  H10R 4185   6.139   4.142  14.249 -0.4803  1.1352  2.2058
   33DOPE  C211 4186   6.079   4.351  14.283 -0.2394 -0.1143  0.4151
   33DOPE  H11R 4187   6.019   4.430  14.233  1.4590 -0.2828 -2.0629
   33DOPE  H11S 4188   6.174   4.406  14.301 -1.1195  1.1567  1.3783
   33DOPE  C212 4189   5.996   4.323  14.406  0.5524  0.2156  0.2289
   33DOPE  H12R 4190   5.897   4.280  14.377  0.2928  1.7813 -1.3740
   33DOPE  H12S 4191   5.974   4.416  14.462 -0.7453 -0.6371  1.1955
   33DOPE  C213 4192   6.071   4.231  14.499  0.0041 -0.1878  0.2747
   33DOPE  H13R 4193   6.169   4.280  14.516 -0.4211  0.9946 -0.5445
   33DOPE  H13S 4194   6.087   4.136  14.444  0.9599  0.0345  0.1656
   33DOPE  C214 4195   6.010   4.197  14.631  0.3201 -0.2412 -0.4980
   33DOPE  H14R 4196   6.067   4.120  14.686  0.3005 -0.0611 -0.2193
   33DOPE  H14S 4197   5.909   4.153  14.618  0.3000 -0.2910 -0.1814
   33DOPE  C215 4198   5.982   4.321  14.719  0.2367 -0.2517 -0.1686
   33DOPE  H15R 4199   5.910   4.389  14.670  1.3831  0.7501 -0.5037
   33DOPE  H15S 4200   6.082   4.369  14.725  0.5037 -0.2043 -3.2217
   33DOPE  C216 4201   5.922   4.299  14.864  0.0559  0.3502 -0.2862
   33DOPE  H16R 4202   5.911   4.192  14.890 -0.3073  0.5401  0.3714
   33DOPE  H16S 4203   5.820   4.343  14.869 -0.9693 -2.0253  1.4831
   33DOPE  C217 4204   6.003   4.372  14.972  0.3637 -0.3917  0.1587
   33DOPE  H17R 4205   6.016   4.481  14.954 -1.1187 -0.3712 -0.9864
   33DOPE  H17S 4206   6.104   4.327  14.963  0.9067  0.8633 -0.3346
   33DOPE  C218 4207   5.948   4.340  15.112 -0.4690 -0.1202 -0.2513
   33DOPE  H18R 4208   6.018   4.388  15.184 -0.6299  0.3360 -0.3910
   33DOPE  H18S 4209   5.968   4.232  15.121  0.4837  0.1377  0.8074
   33DOPE  H18T 4210   5.843   4.372  15.131  0.5787  2.4738  1.8479
   33DOPE   C33 4211   5.873   5.025  13.568  0.1055  0.0567 -0.6621
   33DOPE   H3X 4212   5.782   5.077  13.533  0.0942 -0.0703 -0.8253
   33DOPE   H3Y 4213   5.954   5.098  13.545  0.2325 -0.1473 -0.8710
   33DOPE   C34 4214   5.863   5.024  13.720  0.7187 -0.2085 -0.3038
   33DOPE   H4X 4215   5.777   4.963  13.756  0.2429  0.7649  0.2521
   33DOPE   H4Y 4216   5.948   4.976  13.773 -0.5614 -1.5287  0.6313
   33DOPE   C35 4217   5.849   5.165  13.786 -0.0431  0.5963  0.3866
   33DOPE   H5X 4218   5.763   5.213  13.735 -0.1154 -0.4700 -0.5311
   33DOPE   H5Y 4219   5.938   5.224  13.753 -0.8710  1.2380 -0.7606
   33DOPE   C36 4220   5.829   5.159  13.940 -0.3804  0.2543  0.0368
   33DOPE   H6X 4221   5.866   5.252  13.989 -0.6000  0.6011 -0.4519
   33DOPE   H6Y 4222   5.892   5.081  13.988  2.4839  3.0887  1.1893
   33DOPE   C37 4223   5.676   5.152  13.985 -0.0501 -0.0082  0.0113
   33DOPE   H7X 4224   5.616   5.236  13.942 -1.4246  0.0301  1.8926
   33DOPE   H7Y 4225   5.637   5.058  13.940  0.0356 -1.0155  1.9559
   33DOPE   C38 4226   5.665   5.135  14.140 -0.3027  0.0774 -0.5737
   33DOPE   H8X 4227   5.686   5.234  14.186 -2.0305  0.8488 -1.3377
   33DOPE   H8Y 4228   5.746   5.064  14.166 -0.9727 -1.2786 -2.0297
   33DOPE   C39 4229   5.539   5.066  14.189 -0.4659 -0.2089 -0.5678
   33DOPE   H9X 4230   5.493   4.981  14.136 -0.4929 -1.7117  1.7553
   33DOPE  C310 4231   5.483   5.099  14.308 -0.3871  0.2722 -0.0986
   33DOPE  H10X 4232   5.386   5.060  14.342 -0.2598  1.5239  1.9112
   33DOPE  C311 4233   5.535   5.200  14.411  0.0274 -0.1001 -0.5681
   33DOPE  H11X 4234   5.576   5.294  14.367 -1.5346  1.0171  0.2547
   33DOPE  H11Y 4235   5.451   5.221  14.482  0.6861 -0.1379  0.2376
   33DOPE  C312 4236   5.644   5.143  14.505  0.0858 -0.0722 -0.1879
   33DOPE  H12X 4237   5.698   5.225  14.557 -0.0792 -0.5193  0.7149
   33DOPE  H12Y 4238   5.717   5.088  14.441 -1.8624 -0.9725 -1.7663
   33DOPE  C313 4239   5.586   5.035  14.594  1.1525  0.3990 -0.2342
   33DOPE  H13X 4240   5.540   4.945  14.547 -3.2704  0.7170  2.8981
   33DOPE  H13Y 4241   5.688   5.004  14.626  1.7086  3.3987  1.2306
   33DOPE  C314 4242   5.502   5.087  14.713  0.0099 -0.9544 -0.2521
   33DOPE  H14X 4243   5.396   5.085  14.679  0.0026  0.1185 -0.3355
   33DOPE  H14Y 4244   5.523   5.193  14.738 -1.4766 -0.7989  0.4881
   33DOPE  C315 4245   5.499   5.005  14.839  0.1513 -0.3558  0.2090
   33DOPE  H15X 4246   5.493   4.897  14.811 -2.3832 -0.4942  1.0555
   33DOPE  H15Y 4247   5.402   5.023  14.889  1.2862  2.1875  1.6778
   33DOPE  C316 4248   5.611   5.023  14.945 -0.6319 -0.6895  0.0066
   33DOPE  H16X 4249   5.595   4.946  15.024  2.6395 -0.4760  1.0313
   33DOPE  H16Y 4250   5.597   5.125  14.988  0.5816 -0.0350 -1.0681
   33DOPE  C317 4251   5.753   4.998  14.900 -0.4882 -0.1225 -0.2744
   33DOPE  H17X 4252   5.744   4.907  14.837  2.1394 -1.0304  0.5338
   33DOPE  H17Y 4253   5.782   5.090  14.845 -0.3567 -0.3654 -0.6155
   33DOPE  C318 4254   5.846   4.968  15.018 -0.0852  0.4786 -0.3704
   33DOPE  H18X 4255   5.833   5.047  15.095  2.8872  0.4348  0.3097
   33DOPE  H18Y 4256   5.834   4.866  15.059  5.3872  0.3868  1.8211
   33DOPE  H18Z 4257   5.951   4.981  14.985  0.3177 -1.7090 -0.0725
   34DOPE     N 4258   4.960   5.803  12.954  0.1845 -0.0436 -0.0135
   34DOPE   HN1 4259   4.937   5.831  13.052  0.6537 -0.2323  0.1552
   34DOPE   HN2 4260   4.916   5.711  12.938  1.0735 -0.7075  1.1390
   34DOPE   HN3 4261   5.063   5.785  12.949  0.3825  0.9440  0.1355
   34DOPE   C12 4262   4.920   5.907  12.850 -0.5489  0.4620 -0.3047
   34DOPE  H12A 4263   4.810   5.912  12.866 -0.5111 -1.0020  0.5688
   34DOPE  H12B 4264   4.947   5.864  12.751 -0.0154  1.4282 -0.5999
   34DOPE   C11 4265   4.968   6.047  12.881 -0.1207  0.3053  0.3105
   34DOPE  H11A 4266   4.932   6.108  12.795  2.2154  2.0986  0.5227
   34DOPE  H11B 4267   5.078   6.046  12.868 -0.1005 -0.3199  0.5034
   34DOPE     P 4268   4.827   6.195  13.035 -0.0817 -0.4754 -0.2295
   34DOPE   O13 4269   4.698   6.154  12.987 -0.5163 -0.2515  0.2003
   34DOPE   O14 4270   4.878   6.329  12.985  0.1537 -0.0228 -0.1201
   34DOPE   O11 4271   4.826   6.194  13.195 -0.0257 -0.2857 -0.1820
   34DOPE   O12 4272   4.935   6.089  13.014 -0.0339 -0.1908 -0.0475
   34DOPE    C1 4273   4.748   6.089  13.265 -0.1548 -0.4454 -0.2507
   34DOPE    HA 4274   4.758   5.993  13.210 -1.1272 -1.0875  0.6550
   34DOPE    HB 4275   4.643   6.122  13.270  0.4456  1.4473  0.7970
   34DOPE    C2 4276   4.800   6.057  13.407  0.6187 -0.4523 -0.2625
   34DOPE    HS 4277   4.798   5.947  13.415  1.6002 -0.4847 -0.3289
   34DOPE   O21 4278   4.723   6.118  13.510 -0.0044  0.2404 -0.4880
   34DOPE   C21 4279   4.610   6.056  13.518  0.3079 -0.3427 -0.6491
   34DOPE   O22 4280   4.571   5.965  13.449  0.1896  0.2739  0.2527
   34DOPE   C22 4281   4.545   6.104  13.645 -0.0447 -0.6764 -0.0353
   34DOPE   H2R 4282   4.440   6.069  13.637  0.2174 -1.3320 -0.7218
   34DOPE   H2S 4283   4.541   6.215  13.641  0.1462 -0.6786 -0.3969
   34DOPE    C3 4284   4.940   6.103  13.436  0.1484 -0.5173 -0.2986
   34DOPE    HX 4285   4.929   6.214  13.437 -3.3372 -0.7337 -1.7029
   34DOPE    HY 4286   5.012   6.068  13.360  0.5150 -2.2068  0.7779
   34DOPE   O31 4287   4.981   6.046  13.566 -0.4491  0.1539  1.0287
   34DOPE   C31 4288   5.043   6.131  13.638 -0.0013  0.5874  0.2284
   34DOPE   O32 4289   5.078   6.248  13.621 -0.0805 -0.0441 -0.5779
   34DOPE   C32 4290   5.038   6.068  13.780 -1.0157  0.3760 -0.0991
   34DOPE   H2X 4291   4.935   6.029  13.797 -0.8683  0.2702  0.5794
   34DOPE   H2Y 4292   5.107   5.981  13.780  1.3163  2.1291 -0.7365
   34DOPE   C23 4293   4.619   6.067  13.777  0.3143  0.4478  0.3337
   34DOPE   H3R 4294   4.726   6.094  13.765 -0.1673  1.1129 -3.9405
   34DOPE   H3S 4295   4.610   5.956  13.783 -1.1883  0.4326 -1.3650
   34DOPE   C24 4296   4.571   6.138  13.910  0.7004 -0.2395  1.0386
   34DOPE   H4R 4297   4.476   6.091  13.944 -0.2672  0.2766 -0.8293
   34DOPE   H4S 4298   4.568   6.246  13.884 -0.3231 -0.2348  1.1241
   34DOPE   C25 4299   4.671   6.111  14.026  0.1853 -0.2658  0.7776
   34DOPE   H5R 4300   4.746   6.192  14.010 -0.8298  0.5594  0.0319
   34DOPE   H5S 4301   4.708   6.010  14.001  1.4730  0.0137  1.4762
   34DOPE   C26 4302   4.607   6.123  14.158 -0.6897  0.6685  0.6109
   34DOPE   H6R 4303   4.514   6.062  14.164 -0.6550  0.6116  0.5709
   34DOPE   H6S 4304   4.571   6.226  14.178 -2.3334  0.7974 -2.4317
   34DOPE   C27 4305   4.696   6.077  14.272  0.0364 -0.2318 -0.4684
   34DOPE   H7R 4306   4.787   6.140  14.264 -0.7474  1.3335  1.7794
   34DOPE   H7S 4307   4.718   5.969  14.266 -0.3407 -0.3235 -0.2322
   34DOPE   C28 4308   4.634   6.080  14.417 -0.3018 -0.0798 -0.2212
   34DOPE   H8R 4309   4.676   5.991  14.470 -2.1006 -2.2591 -2.2292
   34DOPE   H8S 4310   4.524   6.068  14.408 -0.1583 -0.9674 -0.9288
   34DOPE   C29 4311   4.657   6.218  14.475  0.2368 -0.2865  0.2499
   34DOPE   H9R 4312   4.597   6.295  14.425  0.8014 -0.5451 -0.8620
   34DOPE  C210 4313   4.741   6.249  14.576 -0.2542 -0.0990  0.5386
   34DOPE  H10R 4314   4.754   6.356  14.597  1.9635  0.1536 -1.7041
   34DOPE  C211 4315   4.828   6.161  14.660 -0.1539  1.1443 -0.3916
   34DOPE  H11R 4316   4.932   6.196  14.678  0.3370 -1.3686  2.3936
   34DOPE  H11S 4317   4.854   6.073  14.598  0.3209 -0.7801  2.3470
   34DOPE  C212 4318   4.773   6.121  14.798  0.4844  0.0590  0.0343
   34DOPE  H12R 4319   4.846   6.051  14.845 -0.4105 -0.1445  1.1651
   34DOPE  H12S 4320   4.678   6.065  14.789  0.9886 -0.5500 -2.0427
   34DOPE  C213 4321   4.766   6.238  14.900  0.6478  0.0846  0.3383
   34DOPE  H13R 4322   4.706   6.314  14.845  0.4428  0.4986  1.1092
   34DOPE  H13S 4323   4.871   6.274  14.913  1.6418 -2.1291 -0.9774
   34DOPE  C214 4324   4.697   6.201  15.034 -0.2237  0.1205  0.9737
   34DOPE  H14R 4325   4.769   6.138  15.090 -1.8022 -1.3803  1.3695
   34DOPE  H14S 4326   4.606   6.140  15.016  0.3131 -0.5893  0.6005
   34DOPE  C215 4327   4.653   6.329  15.102 -0.1222  0.1306  0.6521
   34DOPE  H15R 4328   4.605   6.391  15.024 -0.4863  1.2613  1.7427
   34DOPE  H15S 4329   4.752   6.370  15.134  0.1642 -0.7890  0.9888
   34DOPE  C216 4330   4.567   6.295  15.220 -0.1192  0.4333  0.8788
   34DOPE  H16R 4331   4.482   6.234  15.184  0.6068 -0.0263 -0.0878
   34DOPE  H16S 4332   4.519   6.395  15.234  0.7804  1.0696 -0.4508
   34DOPE  C217 4333   4.631   6.247  15.352 -0.2133 -0.5124  0.1924
   34DOPE  H17R 4334   4.649   6.138  15.337 -0.2469 -0.3779 -0.9260
   34DOPE  H17S 4335   4.555   6.261  15.432  0.3388 -0.3449  0.6930
   34DOPE  C218 4336   4.764   6.315  15.399 -0.3216 -0.0873 -0.5390
   34DOPE  H18R 4337   4.837   6.316  15.316 -0.6990 -0.8721 -0.8964
   34DOPE  H18S 4338   4.819   6.262  15.480 -1.0735 -1.3813 -0.8447
   34DOPE  H18T 4339   4.740   6.417  15.437  0.7324  0.1248 -0.4121
   34DOPE   C33 4340   5.088   6.165  13.890 -0.4563  0.3313  0.4275
   34DOPE   H3X 4341   5.002   6.227  13.923 -2.6884 -3.0163  1.3096
   34DOPE   H3Y 4342   5.179   6.217  13.854 -1.6773  2.4040  0.1790
   34DOPE   C34 4343   5.143   6.080  14.010  0.3896 -0.2390 -0.6251
   34DOPE   H4X 4344   5.229   6.013  13.987  0.3709 -1.0040  1.2596
   34DOPE   H4Y 4345   5.184   6.156  14.080 -0.1185 -0.4934 -0.0375
   34DOPE   C35 4346   5.030   6.000  14.077  1.4021  0.8120 -0.5556
   34DOPE   H5X 4347   5.024   5.894  14.044  2.8257 -0.4900  2.8568
   34DOPE   H5Y 4348   4.934   6.051  14.054  0.3569  0.3616  2.3754
   34DOPE   C36 4349   5.035   5.995  14.233  0.4267  0.0284  0.1565
   34DOPE   H6X 4350   4.942   5.950  14.274  0.1209  0.3019 -0.2274
   34DOPE   H6Y 4351   5.042   6.102  14.264 -0.1663 -0.0861  0.7069
   34DOPE   C37 4352   5.166   5.935  14.298  0.1640 -0.3322 -0.8537
   34DOPE   H7X 4353   5.160   5.825  14.284  2.3275 -0.4944 -0.7925
   34DOPE   H7Y 4354   5.248   5.966  14.230 -0.5513  1.0540 -1.1278
   34DOPE   C38 4355   5.184   5.972  14.447 -0.5428  0.1534 -0.2978
   34DOPE   H8X 4356   5.086   5.965  14.500  0.1533  0.5085  1.0789
   34DOPE   H8Y 4357   5.213   6.079  14.450  1.8415 -0.3501 -2.1771
   34DOPE   C39 4358   5.286   5.879  14.513 -0.0011  0.0228  0.2547
   34DOPE   H9X 4359   5.374   5.865  14.449 -2.2203  0.6229 -3.1605
   34DOPE  C310 4360   5.277   5.809  14.624  0.7119  0.3033 -0.2667
   34DOPE  H10X 4361   5.358   5.739  14.650  0.9215 -0.4625 -2.7689
   34DOPE  C311 4362   5.158   5.812  14.712  0.2632  0.0923 -0.1916
   34DOPE  H11X 4363   5.063   5.845  14.664 -1.8254 -1.6226  2.4337
   34DOPE  H11Y 4364   5.124   5.709  14.736 -0.6228  0.2296 -0.8302
   34DOPE  C312 4365   5.176   5.882  14.850 -0.3394 -0.5964 -0.0544
   34DOPE  H12X 4366   5.276   5.857  14.893 -1.5045 -1.2149  2.4691
   34DOPE  H12Y 4367   5.107   5.824  14.914 -0.1300 -2.1784 -1.1730
   34DOPE  C313 4368   5.141   6.031  14.868 -0.1069 -0.8836  0.0387
   34DOPE  H13X 4369   5.213   6.086  14.804  2.1667 -2.3730  1.1556
   34DOPE  H13Y 4370   5.037   6.052  14.836 -0.4071 -3.8925 -1.3809
   34DOPE  C314 4371   5.166   6.087  15.014  0.2633 -0.9384 -0.8494
   34DOPE  H14X 4372   5.175   6.197  15.011 -1.4308 -0.7824 -1.0446
   34DOPE  H14Y 4373   5.265   6.057  15.054  0.6016  0.9386 -0.1793
   34DOPE  C315 4374   5.053   6.051  15.120 -0.2718 -0.2314 -0.1638
   34DOPE  H15X 4375   5.094   5.959  15.167 -0.1895 -0.3701 -0.5040
   34DOPE  H15Y 4376   4.952   6.042  15.074 -0.9209  0.6144  1.0548
   34DOPE  C316 4377   5.041   6.151  15.242 -0.4811  0.5758  0.1884
   34DOPE  H16X 4378   4.945   6.131  15.295 -0.3407 -0.7174 -0.0203
   34DOPE  H16Y 4379   5.041   6.255  15.202  0.9803  0.7238  0.5343
   34DOPE  C317 4380   5.156   6.150  15.348  0.3252 -0.0261 -0.9538
   34DOPE  H17X 4381   5.151   6.053  15.401 -2.3173  0.0001 -1.0397
   34DOPE  H17Y 4382   5.256   6.149  15.299  0.5034  2.9777 -0.8440
   34DOPE  C318 4383   5.144   6.252  15.464  1.1142 -0.2866 -0.9935
   34DOPE  H18X 4384   5.161   6.354  15.424 -0.9290  1.1299  1.3819
   34DOPE  H18Y 4385   5.041   6.246  15.507  2.5531 -0.0122  2.8821
   34DOPE  H18Z 4386   5.216   6.233  15.547  0.2447  0.6979  0.0355
   35DOPE     N 4387   1.246   6.193  13.243  0.1844  0.5402  0.1677
   35DOPE   HN1 4388   1.184   6.255  13.299 -0.4676  0.2673 -0.2303
   35DOPE   HN2 4389   1.345   6.214  13.265  0.1084  2.1386 -0.8068
   35DOPE   HN3 4390   1.236   6.225  13.144 -0.9191  0.2726  0.1845
   35DOPE   C12 4391   1.202   6.047  13.253  0.7901 -0.1401 -0.0337
   35DOPE  H12A 4392   1.230   5.995  13.347 -2.6496 -0.3886  0.9718
   35DOPE  H12B 4393   1.246   5.998  13.164  1.9040  0.3858  0.2074
   35DOPE   C11 4394   1.051   6.050  13.236  0.2031 -0.1662 -0.0113
   35DOPE  H11A 4395   1.003   6.096  13.325 -0.2845 -0.3369 -0.1781
   35DOPE  H11B 4396   1.020   5.944  13.227  0.9790 -0.3505 -0.6533
   35DOPE     P 4397   0.860   6.102  13.075 -0.0983  0.6850  0.2036
   35DOPE   O13 4398   0.824   5.960  13.048 -0.4982  0.4525 -0.4395
   35DOPE   O14 4399   0.826   6.201  12.968 -0.8069  0.6868  0.3872
   35DOPE   O11 4400   0.785   6.140  13.211 -0.4979  0.2588 -0.3206
   35DOPE   O12 4401   1.014   6.107  13.114  0.0519 -0.1935 -0.5635
   35DOPE    C1 4402   0.778   6.274  13.252  0.3457 -0.2648 -0.0858
   35DOPE    HA 4403   0.697   6.328  13.199  0.8076  1.0029  0.4762
   35DOPE    HB 4404   0.873   6.326  13.225  0.8705 -2.7796 -3.9712
   35DOPE    C2 4405   0.756   6.275  13.402 -0.2927 -0.2319 -0.6026
   35DOPE    HS 4406   0.861   6.285  13.436 -0.6367 -2.2535  1.2862
   35DOPE   O21 4407   0.687   6.163  13.459  0.3131 -0.8574 -0.1660
   35DOPE   C21 4408   0.750   6.060  13.510  0.0559 -0.3393  0.2714
   35DOPE   O22 4409   0.873   6.061  13.527  0.3780 -0.1359  0.0531
   35DOPE   C22 4410   0.657   5.940  13.544  0.0253  0.3136 -0.3131
   35DOPE   H2R 4411   0.668   5.869  13.460  0.2567  0.0747 -0.0822
   35DOPE   H2S 4412   0.554   5.980  13.535  0.6295  1.8624 -0.7764
   35DOPE    C3 4413   0.680   6.411  13.440 -0.8666  0.0089 -0.5534
   35DOPE    HX 4414   0.582   6.405  13.387 -1.1203  0.8607 -0.1988
   35DOPE    HY 4415   0.729   6.497  13.390 -2.4685  0.3660 -1.5797
   35DOPE   O31 4416   0.675   6.427  13.590  0.3693  0.5663  0.1920
   35DOPE   C31 4417   0.548   6.401  13.643 -0.4387  0.6550 -0.4627
   35DOPE   O32 4418   0.454   6.369  13.571 -0.3394 -0.2177 -0.2194
   35DOPE   C32 4419   0.545   6.430  13.792  0.0201  0.3546 -1.0401
   35DOPE   H2X 4420   0.599   6.345  13.838 -0.7954  0.5346  0.2859
   35DOPE   H2Y 4421   0.608   6.521  13.804  0.9172 -0.4515  0.7749
   35DOPE   C23 4422   0.674   5.864  13.682  0.2195  0.3389 -0.2904
   35DOPE   H3R 4423   0.776   5.827  13.707 -1.4386 -4.8446 -0.1742
   35DOPE   H3S 4424   0.620   5.769  13.666  1.2883  0.0051 -2.2627
   35DOPE   C24 4425   0.611   5.927  13.809  0.3089  0.3673  0.0679
   35DOPE   H4R 4426   0.571   5.850  13.879 -1.3457  0.0798 -1.1437
   35DOPE   H4S 4427   0.519   5.971  13.766  0.6345  0.0665 -0.9716
   35DOPE   C25 4428   0.706   6.028  13.870 -0.0945  0.2681 -0.3618
   35DOPE   H5R 4429   0.730   6.113  13.802  2.2000  0.7185  0.8790
   35DOPE   H5S 4430   0.800   5.972  13.891 -1.8039 -2.3499  0.6851
   35DOPE   C26 4431   0.659   6.083  14.007 -0.3378 -0.7122  0.0016
   35DOPE   H6R 4432   0.554   6.050  14.010 -0.1943 -1.1559  0.1811
   35DOPE   H6S 4433   0.674   6.193  14.013  0.1665 -0.7523 -0.3884
   35DOPE   C27 4434   0.736   6.014  14.122  0.3699  0.4351 -0.0361
   35DOPE   H7R 4435   0.836   6.061  14.131  0.6091 -0.1057  0.2394
   35DOPE   H7S 4436   0.744   5.907  14.093  1.7227  0.4926  0.0757
   35DOPE   C28 4437   0.656   6.011  14.267 -0.0512 -0.8878 -0.3302
   35DOPE   H8R 4438   0.717   5.939  14.325  0.2579  0.1478  0.6708
   35DOPE   H8S 4439   0.558   5.962  14.248 -1.8477  2.6360 -1.0058
   35DOPE   C29 4440   0.657   6.138  14.348 -0.0872  0.1452  0.3376
   35DOPE   H9R 4441   0.710   6.219  14.295 -0.1391  1.2144  1.8719
   35DOPE  C210 4442   0.597   6.165  14.465  0.2187  0.2746 -0.1827
   35DOPE  H10R 4443   0.632   6.254  14.519 -1.5095  0.5156  0.6045
   35DOPE  C211 4444   0.517   6.064  14.540 -0.0948  0.1552 -0.4843
   35DOPE  H11R 4445   0.478   5.986  14.472  1.5011 -1.7701  0.6910
   35DOPE  H11S 4446   0.424   6.113  14.578  0.3147 -1.0530  2.3535
   35DOPE  C212 4447   0.593   6.001  14.659 -0.5249  0.1596 -0.1457
   35DOPE  H12R 4448   0.678   5.937  14.628 -0.4531 -0.2305  0.8338
   35DOPE  H12S 4449   0.516   5.934  14.704 -0.9981  1.5213  1.1597
   35DOPE  C213 4450   0.624   6.101  14.768 -0.6915 -0.2657 -0.2900
   35DOPE  H13R 4451   0.532   6.165  14.772 -0.1855  0.4374  0.4721
   35DOPE  H13S 4452   0.707   6.159  14.723  0.3651 -0.5838  1.1832
   35DOPE  C214 4453   0.675   6.032  14.891 -0.7520  0.1778 -0.9380
   35DOPE  H14R 4454   0.722   5.938  14.856 -1.4747 -0.8654  0.7536
   35DOPE  H14S 4455   0.594   6.012  14.965  0.4162  0.6968  0.5161
   35DOPE  C215 4456   0.780   6.111  14.978 -0.4089  0.6725  0.0652
   35DOPE  H15R 4457   0.729   6.209  14.991 -2.1196 -0.3271  1.1289
   35DOPE  H15S 4458   0.868   6.129  14.912 -0.2566 -0.3192 -0.0059
   35DOPE  C216 4459   0.816   6.044  15.109 -0.1295 -0.2563  0.1779
   35DOPE  H16R 4460   0.718   6.006  15.146 -1.4338 -1.4940 -4.0044
   35DOPE  H16S 4461   0.859   6.122  15.175 -0.0409  0.7595 -1.0302
   35DOPE  C217 4462   0.915   5.929  15.090  0.4534 -0.1108  0.5224
   35DOPE  H17R 4463   1.009   5.977  15.055 -1.0077  2.7245  0.1321
   35DOPE  H17S 4464   0.896   5.863  15.002  4.1326  1.2693 -1.5278
   35DOPE  C218 4465   0.926   5.834  15.210  0.0515  0.4630 -0.4796
   35DOPE  H18R 4466   0.992   5.750  15.179 -1.5604  0.2920 -3.8375
   35DOPE  H18S 4467   0.835   5.787  15.253  1.2014 -1.5297 -0.1021
   35DOPE  H18T 4468   0.970   5.888  15.297  0.7918 -1.5657  0.4828
   35DOPE   C33 4469   0.399   6.452  13.853 -0.5399 -0.4751 -0.4278
   35DOPE   H3X 4470   0.330   6.378  13.807  1.0521 -2.4459  0.1785
   35DOPE   H3Y 4471   0.375   6.558  13.830  3.0111  0.0787 -2.4019
   35DOPE   C34 4472   0.415   6.403  13.999 -0.3615  0.5559 -0.3990
   35DOPE   H4X 4473   0.311   6.399  14.037 -0.5557  0.5429 -0.9293
   35DOPE   H4Y 4474   0.455   6.299  13.997 -1.2242  0.2336 -1.8153
   35DOPE   C35 4475   0.515   6.487  14.081 -0.5097  0.4672  0.3097
   35DOPE   H5X 4476   0.476   6.591  14.076  0.3240  0.7496 -0.4243
   35DOPE   H5Y 4477   0.617   6.482  14.039 -0.7692  1.3858 -0.4568
   35DOPE   C36 4478   0.515   6.445  14.232 -0.3000 -0.3940 -0.3359
   35DOPE   H6X 4479   0.600   6.488  14.291  1.3222 -2.2551 -1.1874
   35DOPE   H6Y 4480   0.539   6.337  14.240  2.5001 -0.0364 -2.2906
   35DOPE   C37 4481   0.378   6.486  14.296 -0.2344  0.5311 -0.5019
   35DOPE   H7X 4482   0.356   6.592  14.273  0.3500  1.1810  1.7224
   35DOPE   H7Y 4483   0.310   6.414  14.246  1.3780 -2.3725  1.1603
   35DOPE   C38 4484   0.368   6.458  14.454 -0.5596  0.2274  0.3683
   35DOPE   H8X 4485   0.410   6.356  14.473  2.2661  0.8909 -1.6239
   35DOPE   H8Y 4486   0.260   6.476  14.473 -0.6696  0.3492 -0.3619
   35DOPE   C39 4487   0.451   6.562  14.529  0.8472  0.4662 -0.0383
   35DOPE   H9X 4488   0.450   6.658  14.476  2.5892  1.7369  2.0269
   35DOPE  C310 4489   0.499   6.555  14.654  0.0294 -0.2903  0.4992
   35DOPE  H10X 4490   0.559   6.634  14.701 -0.5968  0.8315 -0.5447
   35DOPE  C311 4491   0.480   6.453  14.762 -0.0703  0.3565 -0.5352
   35DOPE  H11X 4492   0.401   6.377  14.749  1.5924 -2.1043  2.4393
   35DOPE  H11Y 4493   0.571   6.389  14.764  0.1823  0.7332  0.5084
   35DOPE  C312 4494   0.477   6.510  14.905 -0.5251  0.0498  0.3372
   35DOPE  H12X 4495   0.381   6.566  14.902 -0.4838  0.1099 -1.9299
   35DOPE  H12Y 4496   0.567   6.573  14.923  1.3009 -2.3356  0.0896
   35DOPE  C313 4497   0.489   6.400  15.009  0.7131 -0.3256  0.4596
   35DOPE  H13X 4498   0.586   6.347  15.000  1.1021  0.1247  1.8656
   35DOPE  H13Y 4499   0.497   6.458  15.103  1.8700  0.2744  0.0055
   35DOPE  C314 4500   0.380   6.288  15.012  0.1414  0.3614  0.3773
   35DOPE  H14X 4501   0.390   6.225  14.922 -2.6128  0.0565  0.2004
   35DOPE  H14Y 4502   0.285   6.341  14.990 -1.4090 -2.5475 -0.3178
   35DOPE  C315 4503   0.389   6.200  15.127  0.5655 -0.3020 -0.5179
   35DOPE  H15X 4504   0.478   6.133  15.129  1.8603  1.3514  0.1896
   35DOPE  H15Y 4505   0.302   6.131  15.131 -0.4646  1.0142  1.8481
   35DOPE  C316 4506   0.383   6.284  15.259 -0.6761  0.4027 -0.0520
   35DOPE  H16X 4507   0.297   6.354  15.246  0.6640  1.5038 -5.0710
   35DOPE  H16Y 4508   0.481   6.335  15.269 -0.3578 -0.1819 -0.1308
   35DOPE  C317 4509   0.363   6.184  15.374 -0.0452 -0.7049 -0.4267
   35DOPE  H17X 4510   0.364   6.249  15.464  0.9840  1.0311 -1.6372
   35DOPE  H17Y 4511   0.260   6.141  15.379 -0.0741 -0.5073  3.1961
   35DOPE  C318 4512   0.475   6.090  15.418 -0.7361  0.1742 -0.1844
   35DOPE  H18X 4513   0.570   6.143  15.396 -0.3945 -0.3529  0.0069
   35DOPE  H18Y 4514   0.464   6.060  15.524 -1.6715 -2.5175 -0.9627
   35DOPE  H18Z 4515   0.470   5.996  15.359 -2.0440  0.1785 -0.1132
   36DOPE     N 4516   1.747   1.577  12.619  0.0519 -0.0751 -0.2057
   36DOPE   HN1 4517   1.782   1.485  12.585  2.9680  0.3872  1.2660
   36DOPE   HN2 4518   1.817   1.652  12.603  0.4552 -0.1272  1.1972
   36DOPE   HN3 4519   1.737   1.574  12.722  3.2634 -0.8501  0.1758
   36DOPE   C12 4520   1.608   1.594  12.556 -0.2661  0.4392 -0.9083
   36DOPE  H12A 4521   1.630   1.593  12.447  0.0088  1.1948 -0.8702
   36DOPE  H12B 4522   1.581   1.699  12.579  2.1232  0.5308  2.1394
   36DOPE   C11 4523   1.503   1.491  12.611  0.2125  0.1996 -0.3054
   36DOPE  H11A 4524   1.403   1.510  12.567  0.2777 -0.7220 -0.8843
   36DOPE  H11B 4525   1.501   1.503  12.721 -1.8051  0.4713 -0.3399
   36DOPE     P 4526   1.477   1.236  12.652  0.0165 -0.1266  0.0459
   36DOPE   O13 4527   1.545   1.108  12.613  0.2461 -0.8224  0.4429
   36DOPE   O14 4528   1.333   1.241  12.627  0.0817  0.8407 -0.0169
   36DOPE   O11 4529   1.503   1.277  12.797 -0.7421  0.2654 -0.0212
   36DOPE   O12 4530   1.538   1.356  12.570 -0.4475 -0.7623  0.3919
   36DOPE    C1 4531   1.639   1.292  12.847  0.3948  0.4165  0.7500
   36DOPE    HA 4532   1.649   1.373  12.922  3.7567  1.4058 -0.5786
   36DOPE    HB 4533   1.710   1.324  12.768  1.1339 -2.6419  0.0767
   36DOPE    C2 4534   1.693   1.158  12.907  0.3787 -0.3974  0.0086
   36DOPE    HS 4535   1.695   1.085  12.822 -1.7364 -2.2384  1.3955
   36DOPE   O21 4536   1.609   1.117  13.015  0.3680 -0.9467  0.1928
   36DOPE   C21 4537   1.511   1.033  12.987 -0.3183  0.5827  0.4436
   36DOPE   O22 4538   1.501   0.967  12.881 -0.1269 -0.2029  0.0149
   36DOPE   C22 4539   1.405   1.035  13.093 -0.1998 -0.3986 -0.4900
   36DOPE   H2R 4540   1.305   1.067  13.055  0.4070 -0.9536 -2.6909
   36DOPE   H2S 4541   1.437   1.110  13.168  0.3223 -0.5281 -0.5820
   36DOPE    C3 4542   1.839   1.172  12.946 -0.1230  0.4467 -0.2523
   36DOPE    HX 4543   1.845   1.242  13.032  1.9192  0.2769 -0.1930
   36DOPE    HY 4544   1.897   1.205  12.857  0.9691  0.4851  0.4535
   36DOPE   O31 4545   1.896   1.037  12.977 -0.1145 -0.2401 -0.4709
   36DOPE   C31 4546   1.890   1.010  13.111  0.0201  1.0804  0.3416
   36DOPE   O32 4547   1.848   1.088  13.193 -0.7791  0.3884 -0.1917
   36DOPE   C32 4548   1.953   0.872  13.140  0.0184  0.1222  0.2493
   36DOPE   H2X 4549   1.972   0.819  13.044 -1.4721 -0.2051  0.1199
   36DOPE   H2Y 4550   2.044   0.888  13.202 -0.1259 -0.9333  0.7479
   36DOPE   C23 4551   1.399   0.901  13.159 -0.4702 -0.4536 -0.1512
   36DOPE   H3R 4552   1.494   0.846  13.141  0.0243  0.5263 -0.6300
   36DOPE   H3S 4553   1.322   0.837  13.112  0.5789 -2.4856  0.7502
   36DOPE   C24 4554   1.365   0.916  13.306 -0.3393 -0.1384 -0.7227
   36DOPE   H4R 4555   1.327   0.820  13.348  1.5152 -1.1370 -1.2089
   36DOPE   H4S 4556   1.286   0.990  13.330 -1.0245 -0.7884 -0.9159
   36DOPE   C25 4557   1.478   0.952  13.414  0.0689 -0.1338 -0.3659
   36DOPE   H5R 4558   1.539   1.040  13.383 -1.8065  1.4591  0.2814
   36DOPE   H5S 4559   1.541   0.861  13.425 -1.2225 -0.8553  1.4005
   36DOPE   C26 4560   1.413   0.978  13.548  0.0052 -0.0179  0.7478
   36DOPE   H6R 4561   1.352   0.888  13.572 -0.5122 -0.0857 -0.7264
   36DOPE   H6S 4562   1.344   1.063  13.533  0.2394 -0.1932 -1.7606
   36DOPE   C27 4563   1.519   0.999  13.656  0.4135 -0.9079 -0.7973
   36DOPE   H7R 4564   1.557   1.104  13.660  0.7354 -1.0564  0.6404
   36DOPE   H7S 4565   1.609   0.943  13.623  0.2272 -0.8718 -1.3864
   36DOPE   C28 4566   1.470   0.958  13.795  0.2597  0.3047 -0.3349
   36DOPE   H8R 4567   1.481   0.849  13.810  1.9697  0.6528  1.3500
   36DOPE   H8S 4568   1.367   0.996  13.814  0.2086  0.2095 -0.4220
   36DOPE   C29 4569   1.555   1.012  13.907  0.7786  0.0766  0.1105
   36DOPE   H9R 4570   1.659   1.012  13.871 -0.1260  3.2763 -3.0422
   36DOPE  C210 4571   1.528   1.087  14.018 -0.1378  0.2092 -0.1436
   36DOPE  H10R 4572   1.612   1.134  14.070  1.9023 -3.3848  0.1215
   36DOPE  C211 4573   1.390   1.134  14.056  0.4288 -0.2638  0.0924
   36DOPE  H11R 4574   1.320   1.048  14.046  1.0846 -0.7662 -0.3142
   36DOPE  H11S 4575   1.355   1.215  13.988  0.3332 -0.3067  0.0896
   36DOPE  C212 4576   1.386   1.180  14.200  0.7996 -0.4999 -0.9001
   36DOPE  H12R 4577   1.283   1.204  14.234  1.4377  2.4908 -0.8017
   36DOPE  H12S 4578   1.430   1.281  14.219 -0.2508 -0.4849  1.9130
   36DOPE  C213 4579   1.445   1.083  14.303  0.6801  0.2689  0.4392
   36DOPE  H13R 4580   1.556   1.098  14.300  0.9447 -1.3932  0.7684
   36DOPE  H13S 4581   1.441   0.979  14.265  0.4020  1.3787 -2.8695
   36DOPE  C214 4582   1.373   1.105  14.436 -0.4543  0.5692 -0.0965
   36DOPE  H14R 4583   1.267   1.075  14.418 -0.0427 -0.3688 -1.0964
   36DOPE  H14S 4584   1.386   1.214  14.454  0.1205  0.5428 -0.3603
   36DOPE  C215 4585   1.425   1.018  14.554 -0.4945 -0.1481 -0.4388
   36DOPE  H15R 4586   1.525   1.052  14.587 -0.6736 -0.2853  0.2695
   36DOPE  H15S 4587   1.421   0.908  14.539  1.5494 -0.6449  2.0073
   36DOPE  C216 4588   1.333   1.027  14.674  0.4438 -0.0213 -0.1063
   36DOPE  H16R 4589   1.355   0.944  14.745 -0.0135  1.3682  1.7468
   36DOPE  H16S 4590   1.226   1.015  14.646 -0.9008  0.5239  4.1148
   36DOPE  C217 4591   1.343   1.157  14.758 -0.4119  0.0435  0.3791
   36DOPE  H17R 4592   1.332   1.241  14.686 -1.2074 -0.1785  0.2304
   36DOPE  H17S 4593   1.443   1.162  14.806  0.4532 -2.5619 -0.9372
   36DOPE  C218 4594   1.236   1.180  14.867 -0.2303  0.0358 -1.4139
   36DOPE  H18R 4595   1.237   1.095  14.939  0.0103 -0.3708 -1.8958
   36DOPE  H18S 4596   1.132   1.197  14.830 -1.1828  1.7518  1.6894
   36DOPE  H18T 4597   1.277   1.263  14.928  1.6711 -1.5684 -0.4052
   36DOPE   C33 4598   1.855   0.776  13.224  0.4137 -0.2989 -0.5861
   36DOPE   H3X 4599   1.860   0.681  13.167 -1.4799 -0.4692 -0.5149
   36DOPE   H3Y 4600   1.749   0.809  13.228  0.1551 -1.2796  2.1010
   36DOPE   C34 4601   1.905   0.756  13.364 -0.0629 -0.1344  0.0136
   36DOPE   H4X 4602   1.856   0.665  13.406 -0.5075 -0.6050 -1.4729
   36DOPE   H4Y 4603   2.012   0.726  13.376  0.8210  3.2883  2.0274
   36DOPE   C35 4604   1.888   0.894  13.440 -0.1683  0.8125 -0.1181
   36DOPE   H5X 4605   1.786   0.935  13.421 -0.2749  0.1610 -1.0318
   36DOPE   H5Y 4606   1.969   0.960  13.403  0.3521 -0.0509 -0.5576
   36DOPE   C36 4607   1.902   0.874  13.589 -0.0231 -0.8696  0.1616
   36DOPE   H6X 4608   1.997   0.822  13.610 -0.0448 -0.7907  0.4610
   36DOPE   H6Y 4609   1.822   0.811  13.634 -1.6923  0.7092 -0.4692
   36DOPE   C37 4610   1.917   1.008  13.657  0.3440 -0.7494  0.3320
   36DOPE   H7X 4611   1.993   1.066  13.600 -1.5043 -0.4208 -1.9504
   36DOPE   H7Y 4612   1.817   1.055  13.648 -0.3874 -2.5209 -1.2214
   36DOPE   C38 4613   1.966   0.990  13.803 -0.0469 -0.1309  0.2994
   36DOPE   H8X 4614   2.061   0.932  13.810 -0.3604 -0.6872  0.0434
   36DOPE   H8Y 4615   1.893   0.921  13.852 -0.0831 -0.0585  0.3473
   36DOPE   C39 4616   1.979   1.111  13.886  0.7420  0.8405 -0.1630
   36DOPE   H9X 4617   1.973   1.205  13.829 -0.8186 -1.0812 -3.4412
   36DOPE  C310 4618   2.029   1.112  14.009 -0.1130 -0.4548  0.4834
   36DOPE  H10X 4619   2.018   1.208  14.062 -1.0437 -1.0028  1.3214
   36DOPE  C311 4620   2.063   0.995  14.095 -0.5602  0.0095  0.8434
   36DOPE  H11X 4621   2.070   0.899  14.040 -0.5585 -0.8319  2.2500
   36DOPE  H11Y 4622   2.161   1.019  14.143 -0.9621  0.6677  1.3625
   36DOPE  C312 4623   1.966   0.974  14.208 -0.3191  0.0514 -0.1630
   36DOPE  H12X 4624   2.005   0.893  14.273  0.4205 -0.1297 -0.8129
   36DOPE  H12Y 4625   1.869   0.941  14.165 -1.3232  2.5758 -0.0315
   36DOPE  C313 4626   1.957   1.105  14.296  0.4649 -0.2604  0.1546
   36DOPE  H13X 4627   2.061   1.118  14.334  0.4807 -0.2093  0.0943
   36DOPE  H13Y 4628   1.919   1.192  14.239 -1.2688 -0.3372  1.1182
   36DOPE  C314 4629   1.864   1.077  14.415  0.2314  0.0471  0.6045
   36DOPE  H14X 4630   1.775   1.022  14.377  0.3992  0.8125 -0.9396
   36DOPE  H14Y 4631   1.825   1.169  14.463  0.5137 -0.5963  2.1571
   36DOPE  C315 4632   1.919   0.987  14.530  0.4023 -0.6678  0.7767
   36DOPE  H15X 4633   2.012   1.032  14.572  0.7395 -1.9211  1.4278
   36DOPE  H15Y 4634   1.953   0.891  14.485 -0.4151 -1.1118  1.0774
   36DOPE  C316 4635   1.814   0.958  14.642 -0.2842 -0.3718 -0.0928
   36DOPE  H16X 4636   1.869   0.869  14.680  0.9072 -0.1160 -1.1434
   36DOPE  H16Y 4637   1.717   0.924  14.599  0.0699 -2.6515  0.7992
   36DOPE  C317 4638   1.785   1.065  14.750 -0.0320 -0.6258  0.2630
   36DOPE  H17X 4639   1.844   1.160  14.746 -2.2855  0.8246 -0.2884
   36DOPE  H17Y 4640   1.683   1.100  14.725 -0.0278  0.0435  1.1253
   36DOPE  C318 4641   1.785   1.017  14.891  0.1191 -0.0188 -0.2979
   36DOPE  H18X 4642   1.755   1.094  14.966  0.7948  1.5750 -1.6108
   36DOPE  H18Y 4643   1.708   0.937  14.882 -1.7122  1.7582 -1.0337
   36DOPE  H18Z 4644   1.883   0.985  14.935  0.0602  1.1612  0.7494
   37DOPE     N 4645   4.446   5.272  13.058 -0.2219  0.2571  0.1416
   37DOPE   HN1 4646   4.471   5.239  13.153 -4.3456  0.7341  1.5898
   37DOPE   HN2 4647   4.347   5.270  13.027  0.2782  0.1342 -1.5621
   37DOPE   HN3 4648   4.507   5.217  12.994 -0.1717  1.7140 -1.1158
   37DOPE   C12 4649   4.479   5.418  13.051 -0.1788 -0.2626 -0.2823
   37DOPE  H12A 4650   4.423   5.456  13.138 -0.4408 -0.6733 -0.2709
   37DOPE  H12B 4651   4.445   5.458  12.953  0.3104  2.1356  0.4372
   37DOPE   C11 4652   4.637   5.435  13.052  0.5832  0.2247 -0.8759
   37DOPE  H11A 4653   4.680   5.389  13.144 -0.2156 -0.9399 -1.0636
   37DOPE  H11B 4654   4.647   5.543  13.075  1.5186  0.4324 -2.1406
   37DOPE     P 4655   4.853   5.426  12.893  0.1579  0.3735 -0.6404
   37DOPE   O13 4656   4.851   5.573  12.878  0.1494 -0.3509  0.5365
   37DOPE   O14 4657   4.889   5.338  12.784  0.3923 -0.1228 -0.1273
   37DOPE   O11 4658   4.932   5.374  13.017  0.1513 -0.3527  0.0379
   37DOPE   O12 4659   4.703   5.390  12.935  0.5161  0.3426  0.5605
   37DOPE    C1 4660   4.930   5.242  13.064  0.7343 -0.7624 -0.6780
   37DOPE    HA 4661   4.941   5.171  12.980  1.8562 -3.5765  1.6602
   37DOPE    HB 4662   4.835   5.222  13.118 -0.2377  2.0385 -1.1986
   37DOPE    C2 4663   5.035   5.220  13.178 -0.4237  0.0571  0.0775
   37DOPE    HS 4664   4.998   5.128  13.228 -0.3779 -0.8219 -1.4396
   37DOPE   O21 4665   5.055   5.331  13.265 -0.7392 -0.5708  0.3389
   37DOPE   C21 4666   4.945   5.388  13.312 -0.0852  0.7312  0.4200
   37DOPE   O22 4667   4.843   5.325  13.334  0.6833 -0.2842 -0.4210
   37DOPE   C22 4668   4.976   5.535  13.337 -0.2167  0.5307  0.0900
   37DOPE   H2R 4669   5.005   5.584  13.242  1.0376  2.5196  1.4171
   37DOPE   H2S 4670   5.059   5.544  13.410 -1.1830 -0.8592  1.4368
   37DOPE    C3 4671   5.159   5.164  13.114  0.5041  0.3282  0.0749
   37DOPE    HX 4672   5.183   5.241  13.037 -3.4336  0.4667 -1.2965
   37DOPE    HY 4673   5.131   5.070  13.063 -3.2401  1.1938  0.1861
   37DOPE   O31 4674   5.267   5.141  13.206 -0.2811  0.3115  0.1583
   37DOPE   C31 4675   5.375   5.106  13.142  0.2802 -0.5688  0.7939
   37DOPE   O32 4676   5.377   5.072  13.024  0.0105  0.0203 -0.6384
   37DOPE   C32 4677   5.504   5.101  13.235  0.6878  0.2708  0.3336
   37DOPE   H2X 4678   5.525   4.992  13.242  2.1124  0.4552 -0.5972
   37DOPE   H2Y 4679   5.587   5.130  13.166 -0.4194 -0.0724 -1.2072
   37DOPE   C23 4680   4.857   5.612  13.391 -0.1542  0.1965 -0.0952
   37DOPE   H3R 4681   4.761   5.610  13.335  0.0193 -0.0854 -0.3840
   37DOPE   H3S 4682   4.894   5.717  13.386 -1.7438  0.8149  0.5183
   37DOPE   C24 4683   4.835   5.573  13.538 -0.2952  0.2318  0.0050
   37DOPE   H4R 4684   4.933   5.585  13.590 -1.0413  0.6313  1.3762
   37DOPE   H4S 4685   4.809   5.466  13.552  1.4139 -0.1748  0.3046
   37DOPE   C25 4686   4.728   5.672  13.597  0.2143  0.4210 -0.6269
   37DOPE   H5R 4687   4.649   5.664  13.519  1.1855 -3.0429 -1.4373
   37DOPE   H5S 4688   4.782   5.769  13.595 -1.9444  1.6749  0.0101
   37DOPE   C26 4689   4.694   5.645  13.744  0.0383  0.5335  0.4724
   37DOPE   H6R 4690   4.675   5.538  13.765  2.0306 -0.2876 -1.5208
   37DOPE   H6S 4691   4.607   5.708  13.771 -0.2558 -0.5430  2.1796
   37DOPE   C27 4692   4.805   5.691  13.840  0.3969 -0.8608 -0.0064
   37DOPE   H7R 4693   4.838   5.796  13.823  2.5506 -1.3548  0.7674
   37DOPE   H7S 4694   4.890   5.625  13.814  0.2531 -0.5241 -1.3921
   37DOPE   C28 4695   4.757   5.691  13.986 -0.3241  0.0975  0.0328
   37DOPE   H8R 4696   4.658   5.741  13.996  0.8248  2.4598  0.2654
   37DOPE   H8S 4697   4.826   5.761  14.038 -0.5066  2.2282 -2.3678
   37DOPE   C29 4698   4.751   5.549  14.052  0.1056 -0.2953  0.0535
   37DOPE   H9R 4699   4.747   5.460  13.987  1.4156 -1.1738  1.1273
   37DOPE  C210 4700   4.797   5.523  14.181 -0.2650 -0.3164 -0.0909
   37DOPE  H10R 4701   4.791   5.427  14.234 -0.8682  0.3009  1.0017
   37DOPE  C211 4702   4.851   5.621  14.279  0.5704 -0.1791 -0.0903
   37DOPE  H11R 4703   4.868   5.719  14.229  1.1694 -0.0275  0.3920
   37DOPE  H11S 4704   4.949   5.580  14.310  1.2666  1.8256  0.5695
   37DOPE  C212 4705   4.751   5.633  14.397  0.3253 -0.1086 -0.3121
   37DOPE  H12R 4706   4.727   5.531  14.435  1.8885  0.7900  3.4923
   37DOPE  H12S 4707   4.653   5.678  14.370  0.3413  2.1886  2.9356
   37DOPE  C213 4708   4.804   5.708  14.515  0.1297 -0.1873 -0.4579
   37DOPE  H13R 4709   4.826   5.813  14.484  3.4594 -1.0896 -1.5140
   37DOPE  H13S 4710   4.906   5.682  14.549  0.6442  2.5418  0.3450
   37DOPE  C214 4711   4.700   5.724  14.622  0.4646  0.0955  0.1222
   37DOPE  H14R 4712   4.677   5.619  14.650 -0.2006 -0.2585 -1.6128
   37DOPE  H14S 4713   4.610   5.777  14.583  1.0265  1.6095  0.8252
   37DOPE  C215 4714   4.759   5.783  14.752 -0.0155  0.3604  0.4366
   37DOPE  H15R 4715   4.675   5.829  14.808  0.1043  1.5164 -0.2950
   37DOPE  H15S 4716   4.832   5.863  14.725 -0.6330  0.6779 -0.3296
   37DOPE  C216 4717   4.826   5.684  14.842  0.1378  0.2928  0.0012
   37DOPE  H16R 4718   4.923   5.653  14.796  1.5830  3.2539  0.8442
   37DOPE  H16S 4719   4.763   5.593  14.855  0.0616  0.4116  0.4644
   37DOPE  C217 4720   4.847   5.741  14.986 -0.0956  0.1976  0.0325
   37DOPE  H17R 4721   4.747   5.772  15.025 -0.2680  1.2992 -1.1784
   37DOPE  H17S 4722   4.906   5.831  14.957  0.4923 -0.7602 -1.9165
   37DOPE  C218 4723   4.920   5.659  15.095  0.9534 -0.6686  0.1870
   37DOPE  H18R 4724   4.988   5.586  15.046  0.6122 -1.9038  1.4787
   37DOPE  H18S 4725   4.849   5.597  15.153 -0.3309  1.5654  1.0973
   37DOPE  H18T 4726   4.980   5.722  15.165 -1.1867 -0.0306  1.5251
   37DOPE   C33 4727   5.496   5.174  13.378 -0.1228  0.8870  0.0006
   37DOPE   H3X 4728   5.436   5.267  13.378 -3.5730 -1.1576  1.1704
   37DOPE   H3Y 4729   5.604   5.194  13.396  0.2890 -1.0181 -0.1177
   37DOPE   C34 4730   5.445   5.099  13.496 -0.2279 -0.2662  0.3190
   37DOPE   H4X 4731   5.335   5.090  13.491 -0.1890 -0.0788 -1.6339
   37DOPE   H4Y 4732   5.490   4.998  13.504 -2.1133 -1.0245  2.6462
   37DOPE   C35 4733   5.461   5.172  13.637  0.2140  0.6636  0.0172
   37DOPE   H5X 4734   5.569   5.196  13.649  0.2460  1.0774 -0.9877
   37DOPE   H5Y 4735   5.440   5.101  13.719  0.7577 -1.4479 -1.5867
   37DOPE   C36 4736   5.393   5.305  13.652  0.0830  0.3121 -0.3579
   37DOPE   H6X 4737   5.436   5.383  13.585  0.1146  0.6698  0.0695
   37DOPE   H6Y 4738   5.409   5.345  13.755 -1.4944  1.3568 -0.4903
   37DOPE   C37 4739   5.240   5.292  13.640  0.1418  0.6811 -0.3535
   37DOPE   H7X 4740   5.197   5.389  13.675  1.8201  0.6701  1.9993
   37DOPE   H7Y 4741   5.219   5.283  13.532  0.5902  2.2628 -0.6080
   37DOPE   C38 4742   5.185   5.173  13.722  0.1916  0.6192  1.2955
   37DOPE   H8X 4743   5.227   5.163  13.824 -0.7972  0.3574  1.6904
   37DOPE   H8Y 4744   5.219   5.076  13.680  1.3776  1.5364  0.0717
   37DOPE   C39 4745   5.033   5.187  13.726  0.4028  0.1807  0.0969
   37DOPE   H9X 4746   4.981   5.174  13.630  1.9925 -1.7375 -0.5728
   37DOPE  C310 4747   4.961   5.207  13.838  0.1454  0.4472 -0.0228
   37DOPE  H10X 4748   4.853   5.201  13.822  0.1713  0.3946 -0.1864
   37DOPE  C311 4749   5.007   5.229  13.978  0.1534 -0.4605  0.7314
   37DOPE  H11X 4750   5.111   5.262  13.961  0.4385 -2.3333 -1.6494
   37DOPE  H11Y 4751   4.949   5.313  14.023 -0.8463 -1.1522  0.7793
   37DOPE  C312 4752   4.979   5.111  14.069 -0.7918  0.7924 -0.1747
   37DOPE  H12X 4753   4.873   5.080  14.058 -0.4747 -0.1812 -0.6609
   37DOPE  H12Y 4754   5.003   5.144  14.172 -1.0754  1.0072 -0.1765
   37DOPE  C313 4755   5.078   4.991  14.038  0.2365  0.0267  0.2755
   37DOPE  H13X 4756   5.041   4.937  13.949 -0.5106  2.1767 -0.7978
   37DOPE  H13Y 4757   5.183   5.021  14.015  0.8690 -3.0141 -1.2682
   37DOPE  C314 4758   5.070   4.892  14.144 -0.7802  0.3019 -1.0385
   37DOPE  H14X 4759   5.099   4.797  14.095  1.1504  0.5254 -0.4176
   37DOPE  H14Y 4760   4.966   4.881  14.182 -0.7654 -0.0736 -1.1022
   37DOPE  C315 4761   5.161   4.924  14.258  0.5190  0.2751 -0.1650
   37DOPE  H15X 4762   5.129   5.025  14.295 -1.5674 -0.7544  1.0490
   37DOPE  H15Y 4763   5.264   4.943  14.221 -0.0481  0.2884 -1.8187
   37DOPE  C316 4764   5.149   4.821  14.372 -0.1854 -0.3553  0.0920
   37DOPE  H16X 4765   5.185   4.721  14.338  0.4247 -0.1887  0.2452
   37DOPE  H16Y 4766   5.045   4.813  14.411  0.3464 -0.5269  1.5216
   37DOPE  C317 4767   5.237   4.877  14.496  0.1921  0.4755  0.8248
   37DOPE  H17X 4768   5.337   4.907  14.458 -1.2712 -0.1925 -4.3971
   37DOPE  H17Y 4769   5.192   4.970  14.538 -0.1083  0.5891  0.2633
   37DOPE  C318 4770   5.260   4.782  14.614 -0.3154  0.7239 -0.1740
   37DOPE  H18X 4771   5.168   4.753  14.667 -0.7479  0.1498 -1.2083
   37DOPE  H18Y 4772   5.294   4.685  14.572 -3.2582 -0.8986  0.9735
   37DOPE  H18Z 4773   5.329   4.828  14.688  0.2482  0.1443 -0.3319
   38DOPE     N 4774   0.040   1.242  12.428  0.2172  0.0054 -0.0004
   38DOPE   HN1 4775   0.001   1.146  12.443 -1.6714  0.3303 -2.2652
   38DOPE   HN2 4776   0.013   1.309  12.502  0.0001 -1.0698  0.9264
   38DOPE   HN3 4777  -0.004   1.285  12.344  1.2154 -0.0885 -0.5880
   38DOPE   C12 4778   0.183   1.267  12.423 -0.7748  0.1941 -0.1068
   38DOPE  H12A 4779   0.204   1.372  12.393  1.7235 -0.6294 -1.5440
   38DOPE  H12B 4780   0.222   1.190  12.353 -2.3776 -0.3160 -0.4785
   38DOPE   C11 4781   0.252   1.244  12.562 -0.4045 -0.6316 -0.2635
   38DOPE  H11A 4782   0.240   1.332  12.629 -1.8864  0.8926 -2.4090
   38DOPE  H11B 4783   0.360   1.243  12.536 -0.2237 -3.3928  0.3482
   38DOPE     P 4784   0.279   0.982  12.597  0.4219  0.0515 -0.5524
   38DOPE   O13 4785   0.287   0.966  12.453  0.0362  0.1099 -0.4942
   38DOPE   O14 4786   0.208   0.872  12.666  0.2982  0.0355 -0.1053
   38DOPE   O11 4787   0.422   0.994  12.657  0.3106  0.2080  0.3163
   38DOPE   O12 4788   0.219   1.124  12.625 -0.3564  0.5129  0.1228
   38DOPE    C1 4789   0.446   0.956  12.792  0.0296 -0.2701  0.1029
   38DOPE    HA 4790   0.557   0.956  12.795  0.0242 -1.2932  2.5493
   38DOPE    HB 4791   0.412   0.851  12.809 -2.4153  0.1008 -1.9237
   38DOPE    C2 4792   0.396   1.053  12.902  0.2931  1.6168 -0.4240
   38DOPE    HS 4793   0.286   1.054  12.917  0.4619  0.8816  1.0753
   38DOPE   O21 4794   0.452   1.180  12.880  0.1861 -0.6193 -0.0162
   38DOPE   C21 4795   0.391   1.283  12.924  0.3894 -0.6669 -0.4478
   38DOPE   O22 4796   0.280   1.289  12.984  0.1658 -0.4773  0.4220
   38DOPE   C22 4797   0.472   1.412  12.897  0.4893  0.6986 -0.0327
   38DOPE   H2R 4798   0.460   1.486  12.979  1.6483 -0.2603  1.0534
   38DOPE   H2S 4799   0.438   1.452  12.799 -1.3186  0.2666  0.3887
   38DOPE    C3 4800   0.450   0.992  13.040 -0.1435 -0.2689  0.0974
   38DOPE    HX 4801   0.555   0.959  13.025  0.7903  1.8202  1.5815
   38DOPE    HY 4802   0.402   0.899  13.076  0.5610 -0.9036 -0.5696
   38DOPE   O31 4803   0.434   1.094  13.144  0.3274  0.5044 -0.1836
   38DOPE   C31 4804   0.535   1.109  13.228  0.4370 -0.0775  1.1643
   38DOPE   O32 4805   0.640   1.048  13.236  0.2346  0.3812 -0.3005
   38DOPE   C32 4806   0.497   1.211  13.339  0.0662 -0.6202 -0.3596
   38DOPE   H2X 4807   0.516   1.315  13.304 -0.7717 -0.3475 -0.0332
   38DOPE   H2Y 4808   0.387   1.216  13.348 -0.0157 -0.2725 -1.3703
   38DOPE   C23 4809   0.621   1.389  12.871 -0.8993 -0.1841 -0.3716
   38DOPE   H3R 4810   0.655   1.490  12.840 -1.1606 -1.0199 -3.8648
   38DOPE   H3S 4811   0.630   1.309  12.794  0.0357 -1.4322  0.9878
   38DOPE   C24 4812   0.709   1.355  12.993  0.0417 -0.3776 -0.0389
   38DOPE   H4R 4813   0.661   1.270  13.046 -0.0335 -0.3753 -0.1029
   38DOPE   H4S 4814   0.708   1.425  13.079  1.3823 -0.1018 -0.2280
   38DOPE   C25 4815   0.861   1.339  12.966 -0.2591 -0.8048  0.3336
   38DOPE   H5R 4816   0.912   1.437  12.952 -1.0739  0.0762  2.9858
   38DOPE   H5S 4817   0.865   1.283  12.870 -0.9395 -0.4034  0.0604
   38DOPE   C26 4818   0.946   1.264  13.075  1.1197 -0.2737 -0.0012
   38DOPE   H6R 4819   1.051   1.254  13.042  1.9889 -2.3356  2.9654
   38DOPE   H6S 4820   0.908   1.159  13.081  1.5405 -0.3424  2.1748
   38DOPE   C27 4821   0.947   1.326  13.211  0.4887  0.7113 -0.3304
   38DOPE   H7R 4822   0.848   1.326  13.262 -0.6342 -1.5533 -2.2829
   38DOPE   H7S 4823   0.988   1.429  13.204  0.2280  1.0869  2.5279
   38DOPE   C28 4824   1.057   1.251  13.297  0.5233 -0.4336  0.0831
   38DOPE   H8R 4825   1.084   1.303  13.392  3.8030  0.0941 -0.9958
   38DOPE   H8S 4826   1.157   1.254  13.249  0.7388 -0.5996  0.5112
   38DOPE   C29 4827   1.029   1.107  13.327  0.8085  0.6118  0.5827
   38DOPE   H9R 4828   1.050   1.043  13.240 -0.4488  2.0234 -0.8148
   38DOPE  C210 4829   0.975   1.055  13.437 -0.4396  0.4655 -0.6240
   38DOPE  H10R 4830   0.962   0.946  13.438  1.2100  0.2396  0.1441
   38DOPE  C211 4831   0.955   1.121  13.568  0.2136 -0.1185 -0.2379
   38DOPE  H11R 4832   0.858   1.095  13.617  0.6213 -0.3644  0.4423
   38DOPE  H11S 4833   0.931   1.230  13.559  2.5508  0.2901 -3.2754
   38DOPE  C212 4834   1.045   1.081  13.688 -0.2583  0.6012  1.1996
   38DOPE  H12R 4835   1.150   1.107  13.662  0.3581 -1.5946  1.2732
   38DOPE  H12S 4836   1.037   0.970  13.687 -3.1110  0.7325  1.2794
   38DOPE  C213 4837   1.001   1.143  13.822  0.0674 -0.0132 -0.1236
   38DOPE  H13R 4838   0.895   1.173  13.812 -0.1126  0.2942  2.1461
   38DOPE  H13S 4839   1.053   1.242  13.830 -2.0272  1.0877  0.7160
   38DOPE  C214 4840   1.019   1.052  13.946 -0.2936 -0.1159  0.1389
   38DOPE  H14R 4841   1.124   1.017  13.952 -0.2396  0.2692  1.6533
   38DOPE  H14S 4842   0.958   0.960  13.934 -1.3345  0.2045  2.4089
   38DOPE  C215 4843   0.984   1.139  14.062  0.5328  1.0221  0.1139
   38DOPE  H15R 4844   0.876   1.160  14.045  0.4082 -0.8585 -1.7784
   38DOPE  H15S 4845   1.040   1.234  14.047  2.6180 -0.3000 -1.0019
   38DOPE  C216 4846   1.015   1.084  14.199  0.4625  0.1897  0.9715
   38DOPE  H16R 4847   1.125   1.087  14.211  0.5294  1.9697  0.1291
   38DOPE  H16S 4848   0.975   0.981  14.211 -3.5493  1.4942  0.4140
   38DOPE  C217 4849   0.959   1.154  14.316 -0.2316  0.7214  0.6985
   38DOPE  H17R 4850   0.852   1.166  14.288  0.2780  2.3219 -0.7783
   38DOPE  H17S 4851   1.020   1.247  14.322  0.3032  0.3002  2.1244
   38DOPE  C218 4852   0.967   1.080  14.452 -0.3066  0.1146  0.2868
   38DOPE  H18R 4853   0.895   0.995  14.445 -0.5395  0.3231  0.1037
   38DOPE  H18S 4854   0.928   1.138  14.538 -1.1477  1.0909 -0.7148
   38DOPE  H18T 4855   1.065   1.034  14.475 -1.1617 -1.1924  1.5286
   38DOPE   C33 4856   0.573   1.195  13.471 -0.2583  0.1922  0.0401
   38DOPE   H3X 4857   0.606   1.295  13.507  1.0855 -0.2345  0.0688
   38DOPE   H3Y 4858   0.670   1.142  13.459  0.0212  0.7340 -0.1277
   38DOPE   C34 4859   0.505   1.118  13.588 -0.3614  0.3631 -0.0002
   38DOPE   H4X 4860   0.397   1.142  13.592 -0.5867 -0.6956  1.5935
   38DOPE   H4Y 4861   0.513   1.011  13.561 -1.1032  0.7424 -1.8316
   38DOPE   C35 4862   0.569   1.143  13.727  0.1947  0.5680 -0.6443
   38DOPE   H5X 4863   0.574   1.252  13.749  0.6657  0.5114 -0.4609
   38DOPE   H5Y 4864   0.671   1.102  13.710 -0.1146 -2.5058  3.3955
   38DOPE   C36 4865   0.494   1.091  13.850  0.1023 -0.1241 -0.0670
   38DOPE   H6X 4866   0.482   0.980  13.847  2.9501 -0.5285  0.6227
   38DOPE   H6Y 4867   0.391   1.132  13.863 -0.8530 -1.5498 -2.3346
   38DOPE   C37 4868   0.581   1.128  13.978  0.9041 -0.0412  0.6437
   38DOPE   H7X 4869   0.680   1.085  13.952  0.2642 -0.7505 -0.7327
   38DOPE   H7Y 4870   0.591   1.233  14.010 -0.2855  0.4634 -0.5735
   38DOPE   C38 4871   0.524   1.048  14.092 -0.5920 -0.4195 -0.8627
   38DOPE   H8X 4872   0.495   0.948  14.051  0.1941  0.0445 -2.6516
   38DOPE   H8Y 4873   0.437   1.099  14.139  0.7593  0.3818  0.8395
   38DOPE   C39 4874   0.626   1.024  14.201  0.2251  0.0702 -0.1701
   38DOPE   H9X 4875   0.732   1.016  14.175 -0.0128 -0.5233 -0.9936
   38DOPE  C310 4876   0.596   1.001  14.331 -0.1439 -0.0508  0.0488
   38DOPE  H10X 4877   0.668   0.954  14.401  0.5824  1.9829  0.7336
   38DOPE  C311 4878   0.456   1.012  14.391  0.4773 -0.3658 -0.0099
   38DOPE  H11X 4879   0.460   1.096  14.464 -1.7677  1.2072 -1.5691
   38DOPE  H11Y 4880   0.372   1.030  14.321  1.4813  1.1272 -0.8950
   38DOPE  C312 4881   0.402   0.893  14.478 -0.4155  0.6240 -0.6071
   38DOPE  H12X 4882   0.429   0.798  14.428 -1.0541  0.4947 -0.7140
   38DOPE  H12Y 4883   0.292   0.902  14.484 -0.5889 -1.3636 -0.3589
   38DOPE  C313 4884   0.459   0.882  14.627  0.0007 -0.1088 -0.3888
   38DOPE  H13X 4885   0.564   0.849  14.626  0.5417  1.4011  0.9630
   38DOPE  H13Y 4886   0.456   0.984  14.672  1.5682 -1.0862  2.1594
   38DOPE  C314 4887   0.386   0.773  14.711  0.2441 -0.4336 -0.0092
   38DOPE  H14X 4888   0.385   0.680  14.650  0.2753  0.2179 -1.0197
   38DOPE  H14Y 4889   0.284   0.796  14.748 -0.6320 -1.3657 -1.7387
   38DOPE  C315 4890   0.469   0.732  14.834 -0.3375 -0.4764  0.4234
   38DOPE  H15X 4891   0.569   0.715  14.791 -0.7968 -0.1076 -0.8353
   38DOPE  H15Y 4892   0.427   0.649  14.896 -2.5707  1.0392  1.0631
   38DOPE  C316 4893   0.494   0.847  14.937 -0.2394 -0.0879 -0.3168
   38DOPE  H16X 4894   0.570   0.912  14.889  0.1014  0.1361  0.5187
   38DOPE  H16Y 4895   0.537   0.801  15.028 -3.2017 -0.9629  0.7657
   38DOPE  C317 4896   0.376   0.937  14.975 -0.0932 -0.2991  1.0364
   38DOPE  H17X 4897   0.373   1.013  14.893 -0.1535 -0.0859  1.2342
   38DOPE  H17Y 4898   0.280   0.882  14.966 -0.5683  0.4598  1.3578
   38DOPE  C318 4899   0.395   1.015  15.114 -0.1158  0.2174  0.0022
   38DOPE  H18X 4900   0.383   0.941  15.196 -0.4460 -2.1253 -2.0288
   38DOPE  H18Y 4901   0.491   1.070  15.113  0.0580 -0.0247 -2.1259
   38DOPE  H18Z 4902   0.314   1.090  15.125 -0.1449  0.0811  0.7771
   39DOPE     N 4903   4.677   6.556  12.921 -0.4085 -0.5026  0.4411
   39DOPE   HN1 4904   4.755   6.507  12.970 -0.2663 -0.8737 -0.1474
   39DOPE   HN2 4905   4.590   6.499  12.924 -0.3684 -0.9280 -2.6322
   39DOPE   HN3 4906   4.700   6.581  12.822  1.8864  1.0192  1.2670
   39DOPE   C12 4907   4.632   6.684  12.986  0.3440 -0.6634 -0.0722
   39DOPE  H12A 4908   4.561   6.740  12.921  0.2742  0.5212  0.9781
   39DOPE  H12B 4909   4.721   6.751  12.989 -1.1700  1.4353  0.5300
   39DOPE   C11 4910   4.572   6.654  13.128 -0.6467 -0.8824  0.8530
   39DOPE  H11A 4911   4.537   6.745  13.181  0.9371 -0.4122  1.1457
   39DOPE  H11B 4912   4.650   6.611  13.194  0.3039 -0.7282 -0.1219
   39DOPE     P 4913   4.322   6.568  13.177 -0.4309 -0.6149 -0.3213
   39DOPE   O13 4914   4.319   6.456  13.276  0.2756  0.4410  0.5637
   39DOPE   O14 4915   4.209   6.575  13.083  0.0195 -0.3262  0.5820
   39DOPE   O11 4916   4.317   6.704  13.257  0.9910  0.0715 -0.1898
   39DOPE   O12 4917   4.460   6.564  13.109  0.1692 -0.1302 -0.3258
   39DOPE    C1 4918   4.348   6.715  13.398 -0.5925 -0.3940 -0.7208
   39DOPE    HA 4919   4.359   6.823  13.421  0.6501 -0.2878 -1.6749
   39DOPE    HB 4920   4.445   6.665  13.421 -0.1604  0.2489 -1.1260
   39DOPE    C2 4921   4.241   6.662  13.499 -0.3170  0.4459  0.2519
   39DOPE    HS 4922   4.232   6.556  13.465  0.1018  1.1620 -2.2954
   39DOPE   O21 4923   4.118   6.733  13.496  0.2869  0.5287 -0.3795
   39DOPE   C21 4924   4.017   6.665  13.532 -0.3061  0.6893 -0.0151
   39DOPE   O22 4925   4.012   6.540  13.560  0.2820 -0.5813 -0.9024
   39DOPE   C22 4926   3.890   6.744  13.506 -0.1486  0.5465  0.3200
   39DOPE   H2R 4927   3.851   6.742  13.402  0.6154  0.3544  0.0303
   39DOPE   H2S 4928   3.906   6.849  13.536  0.4025  0.3786  0.6224
   39DOPE    C3 4929   4.299   6.656  13.639 -0.2536  0.2448 -0.1617
   39DOPE    HX 4930   4.321   6.758  13.679 -0.4078 -0.4877  1.9436
   39DOPE    HY 4931   4.403   6.618  13.633 -0.0443  0.7559  0.1848
   39DOPE   O31 4932   4.213   6.580  13.737  0.2314  0.2226  0.3577
   39DOPE   C31 4933   4.245   6.444  13.750 -0.1617  0.2216  0.2187
   39DOPE   O32 4934   4.350   6.400  13.697  0.5914 -0.3415 -0.2139
   39DOPE   C32 4935   4.141   6.372  13.826 -0.3268 -1.0938  0.5805
   39DOPE   H2X 4936   4.085   6.451  13.882  1.2984  0.4273  0.1300
   39DOPE   H2Y 4937   4.080   6.317  13.752  0.4081  0.2710 -1.0943
   39DOPE   C23 4938   3.775   6.692  13.596 -0.4249 -0.6206 -0.5945
   39DOPE   H3R 4939   3.743   6.586  13.604 -1.4017 -0.2198  5.0598
   39DOPE   H3S 4940   3.693   6.753  13.553 -1.3043 -1.0739  0.4151
   39DOPE   C24 4941   3.795   6.747  13.747  0.1069  0.4196  0.8435
   39DOPE   H4R 4942   3.694   6.750  13.793  0.1316  0.7945  0.8745
   39DOPE   H4S 4943   3.833   6.851  13.754  0.9321  0.1004  1.1534
   39DOPE   C25 4944   3.883   6.658  13.829  0.6839 -0.6518  0.3126
   39DOPE   H5R 4945   3.985   6.654  13.785  0.8190 -1.0958  0.6590
   39DOPE   H5S 4946   3.827   6.562  13.821 -1.6482  0.5858  0.8329
   39DOPE   C26 4947   3.877   6.707  13.978  0.6228 -0.3803  0.4591
   39DOPE   H6R 4948   3.772   6.706  14.015  0.2441  1.8242 -0.3919
   39DOPE   H6S 4949   3.908   6.813  13.985 -0.3308 -0.1326  1.0857
   39DOPE   C27 4950   3.961   6.617  14.069 -0.7461  0.3016  0.0369
   39DOPE   H7R 4951   4.066   6.619  14.032 -1.1718  0.5661 -1.1958
   39DOPE   H7S 4952   3.920   6.514  14.072 -0.6713  0.2636 -0.1960
   39DOPE   C28 4953   3.956   6.676  14.212  0.5369 -0.0127  0.0533
   39DOPE   H8R 4954   3.851   6.662  14.244  0.8178 -1.9759  0.2927
   39DOPE   H8S 4955   3.977   6.784  14.228  1.2546  0.2771 -2.4827
   39DOPE   C29 4956   4.059   6.606  14.294  0.4079 -0.6700 -0.4779
   39DOPE   H9R 4957   4.156   6.579  14.248  1.8456 -0.2986  2.1465
   39DOPE  C210 4958   4.064   6.597  14.431  0.0974 -0.1486  0.1523
   39DOPE  H10R 4959   4.144   6.531  14.468  1.0993 -1.8041 -4.3398
   39DOPE  C211 4960   3.963   6.663  14.521 -0.2735 -0.0693  0.0097
   39DOPE  H11R 4961   3.865   6.685  14.474 -1.8767 -1.5146  2.4552
   39DOPE  H11S 4962   4.005   6.755  14.568 -1.7830  0.0279  1.2580
   39DOPE  C212 4963   3.924   6.565  14.636  0.2988  0.3631  0.1720
   39DOPE  H12R 4964   3.892   6.466  14.597  1.1199 -0.4515  1.5024
   39DOPE  H12S 4965   3.836   6.596  14.697  0.3120  1.0124 -0.1357
   39DOPE  C213 4966   4.039   6.534  14.743 -0.0142  0.2811  0.2811
   39DOPE  H13R 4967   4.137   6.525  14.693 -0.9776  0.1696 -1.6659
   39DOPE  H13S 4968   4.021   6.438  14.796 -0.6644  0.2918  0.0824
   39DOPE  C214 4969   4.050   6.658  14.843 -0.2263  0.1140 -0.5336
   39DOPE  H14R 4970   3.966   6.657  14.915  0.0620  0.5528 -0.1929
   39DOPE  H14S 4971   4.046   6.751  14.783 -2.6579  1.3346  1.3463
   39DOPE  C215 4972   4.179   6.656  14.926 -0.7968 -0.0658 -0.3506
   39DOPE  H15R 4973   4.263   6.695  14.865  1.0883 -0.0773  2.0532
   39DOPE  H15S 4974   4.211   6.553  14.953  0.8543  0.4786 -0.0885
   39DOPE  C216 4975   4.170   6.756  15.037 -0.1962  0.1125 -0.4696
   39DOPE  H16R 4976   4.080   6.738  15.101  1.5645  0.0548  2.1374
   39DOPE  H16S 4977   4.150   6.854  14.988 -0.3096  0.5178  0.3677
   39DOPE  C217 4978   4.290   6.764  15.131 -0.1660  0.1696  0.0658
   39DOPE  H17R 4979   4.272   6.853  15.195  0.5837 -0.3950  1.0929
   39DOPE  H17S 4980   4.377   6.798  15.070 -1.0283  2.0404 -0.1807
   39DOPE  C218 4981   4.317   6.637  15.219 -0.0913  0.3224 -0.0845
   39DOPE  H18R 4982   4.410   6.642  15.279 -2.0234 -0.7580  3.2656
   39DOPE  H18S 4983   4.324   6.553  15.146 -2.2699  1.2111 -1.4326
   39DOPE  H18T 4984   4.231   6.625  15.288 -0.0599  2.0074  0.2930
   39DOPE   C33 4985   4.190   6.270  13.931 -0.2468 -0.3199  0.3111
   39DOPE   H3X 4986   4.281   6.220  13.891  0.2254  0.5086  0.3353
   39DOPE   H3Y 4987   4.119   6.185  13.935  1.6405 -2.0269 -0.3990
   39DOPE   C34 4988   4.207   6.330  14.070  0.5041 -0.9660 -0.3051
   39DOPE   H4X 4989   4.292   6.402  14.071  0.0099 -0.3699  0.9880
   39DOPE   H4Y 4990   4.109   6.376  14.095  0.5190 -1.5754  0.9219
   39DOPE   C35 4991   4.225   6.218  14.176 -0.8892  0.0298  0.0076
   39DOPE   H5X 4992   4.319   6.163  14.153 -0.7231  0.3769 -0.1530
   39DOPE   H5Y 4993   4.145   6.144  14.154 -0.8927 -0.4709  1.5551
   39DOPE   C36 4994   4.212   6.264  14.316  0.0753 -0.6597  0.4893
   39DOPE   H6X 4995   4.116   6.320  14.316 -0.8019 -1.8901 -2.9200
   39DOPE   H6Y 4996   4.285   6.339  14.355  1.1529 -1.2322 -0.3548
   39DOPE   C37 4997   4.187   6.146  14.409  0.3424  0.8491 -0.8322
   39DOPE   H7X 4998   4.095   6.090  14.382  1.4289 -1.4542 -0.0872
   39DOPE   H7Y 4999   4.264   6.065  14.404  1.3231  1.7550 -0.7042
   39DOPE   C38 5000   4.174   6.180  14.563  0.2151 -0.6237  0.5600
   39DOPE   H8X 5001   4.124   6.098  14.619  2.6042 -0.7211  2.7456
   39DOPE   H8Y 5002   4.105   6.267  14.568  0.9139 -0.0823  0.7967
   39DOPE   C39 5003   4.308   6.216  14.622  0.4574 -0.2882  0.1097
   39DOPE   H9X 5004   4.357   6.303  14.575 -0.9661  0.6026  0.2327
   39DOPE  C310 5005   4.377   6.144  14.708 -0.1204 -0.2933 -0.8009
   39DOPE  H10X 5006   4.471   6.182  14.750  0.2604  0.3565 -2.1742
   39DOPE  C311 5007   4.345   6.003  14.746 -0.5919  0.2174  0.1493
   39DOPE  H11X 5008   4.268   5.959  14.680  0.7925  0.4674 -1.7329
   39DOPE  H11Y 5009   4.439   5.946  14.728  0.0010  0.4468  2.2367
   39DOPE  C312 5010   4.304   6.003  14.890  0.2308 -0.1138 -0.0583
   39DOPE  H12X 5011   4.206   6.052  14.906  0.2438 -0.2911  0.6132
   39DOPE  H12Y 5012   4.382   6.045  14.957 -1.4449  0.9317  1.3317
   39DOPE  C313 5013   4.283   5.857  14.944  0.1085  0.1303 -0.1855
   39DOPE  H13X 5014   4.209   5.814  14.873  0.4996 -1.0709  0.1108
   39DOPE  H13Y 5015   4.380   5.804  14.933  1.5833  1.7841  3.5045
   39DOPE  C314 5016   4.235   5.829  15.087 -0.4228  0.2662  0.2570
   39DOPE  H14X 5017   4.130   5.861  15.099 -0.7499 -1.2565  2.2089
   39DOPE  H14Y 5018   4.296   5.879  15.166  1.9352 -0.6773 -0.8739
   39DOPE  C315 5019   4.226   5.678  15.109 -0.0427  0.1579  0.0044
   39DOPE  H15X 5020   4.321   5.652  15.159 -0.2605  1.2678  1.0364
   39DOPE  H15Y 5021   4.203   5.631  15.011 -0.9548 -0.8685  0.6821
   39DOPE  C316 5022   4.123   5.638  15.216 -0.1294 -0.0173  0.2579
   39DOPE  H16X 5023   4.022   5.668  15.179 -0.0014 -1.4269 -1.3831
   39DOPE  H16Y 5024   4.161   5.687  15.308  0.9292  2.7852 -1.5307
   39DOPE  C317 5025   4.118   5.491  15.244  0.3124 -1.1709  0.0293
   39DOPE  H17X 5026   4.088   5.440  15.150 -0.2890 -1.3371  0.3070
   39DOPE  H17Y 5027   4.222   5.467  15.278 -0.2958 -0.6289  2.4891
   39DOPE  C318 5028   4.016   5.457  15.357 -0.0006 -0.1656  0.2668
   39DOPE  H18X 5029   4.021   5.526  15.443 -2.0439  0.7442 -0.2638
   39DOPE  H18Y 5030   3.913   5.481  15.321  0.0983  3.1931  1.8606
   39DOPE  H18Z 5031   4.021   5.349  15.380 -1.0633 -1.1597 -3.4352
   40DOPE     N 5032   6.369   0.830  13.366  0.0380 -0.0036 -0.5561
   40DOPE   HN1 5033   6.278   0.828  13.416 -0.0366 -1.5789 -0.6907
   40DOPE   HN2 5034   6.441   0.855  13.436  0.7302 -0.4901 -1.0791
   40DOPE   HN3 5035   6.362   0.904  13.293 -2.6346  0.9432  0.5547
   40DOPE   C12 5036   6.405   0.702  13.309 -0.4646  0.8576 -0.1735
   40DOPE  H12A 5037   6.367   0.691  13.205  0.2680  0.5474 -0.4198
   40DOPE  H12B 5038   6.357   0.629  13.378 -0.1695 -1.4966 -2.2985
   40DOPE   C11 5039   6.556   0.676  13.283 -0.3564 -0.3664 -0.4278
   40DOPE  H11A 5040   6.565   0.585  13.219  2.3521  0.8538 -1.9502
   40DOPE  H11B 5041   6.619   0.661  13.373  1.9737  0.0986 -1.8978
   40DOPE     P 5042   6.749   0.780  13.138  0.2698  0.2369  0.3736
   40DOPE   O13 5043   6.761   0.911  13.073 -0.0927  0.1333 -0.4033
   40DOPE   O14 5044   6.735   0.662  13.055 -0.1328 -0.3801  0.5442
   40DOPE   O11 5045   6.850   0.751  13.252  0.3355  0.1452 -0.0013
   40DOPE   O12 5046   6.609   0.786  13.212  0.2397  0.0686  0.7050
   40DOPE    C1 5047   6.900   0.864  13.327 -0.3906 -0.7552 -0.1022
   40DOPE    HA 5048   6.922   0.950  13.260  0.0237 -1.5881 -1.0714
   40DOPE    HB 5049   7.003   0.834  13.354  0.7072  0.5781 -2.5016
   40DOPE    C2 5050   6.837   0.900  13.470  0.3571 -0.7814  0.4866
   40DOPE    HS 5051   6.910   0.966  13.522 -0.1449  1.1607 -1.1411
   40DOPE   O21 5052   6.802   0.776  13.536  0.5445 -0.2469  0.3662
   40DOPE   C21 5053   6.910   0.726  13.599 -0.4518  0.2748  0.1805
   40DOPE   O22 5054   7.020   0.771  13.600  0.1742 -0.3936  0.0870
   40DOPE   C22 5055   6.869   0.593  13.675  0.2585  0.1835  0.7191
   40DOPE   H2R 5056   6.895   0.513  13.603 -4.3079  1.2826 -2.6400
   40DOPE   H2S 5057   6.759   0.591  13.688  0.2049  0.3103  0.3105
   40DOPE    C3 5058   6.707   0.984  13.441  0.0640 -0.2218 -0.0342
   40DOPE    HX 5059   6.631   0.919  13.392  1.3433 -1.5798 -0.3249
   40DOPE    HY 5060   6.741   1.064  13.372  1.2343 -1.6416 -1.1794
   40DOPE   O31 5061   6.676   1.038  13.572  0.4418 -0.2580 -0.5528
   40DOPE   C31 5062   6.583   0.969  13.639  0.6806  0.3259 -0.2709
   40DOPE   O32 5063   6.504   0.890  13.596  0.1946  0.2742 -0.3551
   40DOPE   C32 5064   6.581   1.027  13.779  0.4251  0.6764 -0.2703
   40DOPE   H2X 5065   6.622   1.131  13.771  1.3064  0.3593  0.0170
   40DOPE   H2Y 5066   6.476   1.022  13.816  0.8283  0.0540  0.8197
   40DOPE   C23 5067   6.943   0.568  13.805  0.2051  0.2008  0.3538
   40DOPE   H3R 5068   7.046   0.604  13.784  1.5238 -3.7981 -1.0333
   40DOPE   H3S 5069   6.956   0.458  13.814 -0.6467 -0.1361 -1.9277
   40DOPE   C24 5070   6.886   0.636  13.934 -0.4025 -0.2225  0.2251
   40DOPE   H4R 5071   6.780   0.607  13.951 -1.0314 -0.5688 -3.5074
   40DOPE   H4S 5072   6.888   0.744  13.909 -0.1690 -0.1276  0.6380
   40DOPE   C25 5073   6.968   0.617  14.057 -0.2794 -0.5932 -0.5775
   40DOPE   H5R 5074   6.938   0.692  14.134 -0.7047 -0.3256 -0.9991
   40DOPE   H5S 5075   7.078   0.628  14.042 -0.2481 -0.8760 -0.5465
   40DOPE   C26 5076   6.969   0.478  14.132  0.7269  0.4941  0.2709
   40DOPE   H6R 5077   7.020   0.395  14.078 -0.3493 -0.8866  1.2884
   40DOPE   H6S 5078   6.864   0.441  14.133  0.7783  0.3478  0.5230
   40DOPE   C27 5079   7.031   0.483  14.276 -0.7238 -0.0816  0.2439
   40DOPE   H7R 5080   7.136   0.515  14.259 -0.4056 -1.1166  0.1678
   40DOPE   H7S 5081   7.043   0.384  14.325  1.9092  0.5047  0.9178
   40DOPE   C28 5082   6.957   0.576  14.376 -0.1480 -0.1609  0.2635
   40DOPE   H8R 5083   6.948   0.679  14.335  0.9408 -1.1539 -2.7227
   40DOPE   H8S 5084   7.025   0.580  14.464  0.8665 -1.9888 -0.3623
   40DOPE   C29 5085   6.815   0.544  14.414 -0.0007  0.4080  0.0588
   40DOPE   H9R 5086   6.751   0.523  14.327  0.9015  1.8656 -1.0020
   40DOPE  C210 5087   6.761   0.525  14.536  0.5935 -0.6025 -0.1190
   40DOPE  H10R 5088   6.653   0.503  14.535  0.3086  0.6758 -1.3322
   40DOPE  C211 5089   6.828   0.531  14.667 -0.4920 -0.2383 -0.3627
   40DOPE  H11R 5090   6.864   0.633  14.692 -0.2663 -0.2406 -0.6684
   40DOPE  H11S 5091   6.913   0.461  14.680 -0.4647  0.1779  2.1205
   40DOPE  C212 5092   6.731   0.490  14.778  0.2207 -0.1112  0.0247
   40DOPE  H12R 5093   6.683   0.393  14.755 -1.1945  0.6691 -0.4829
   40DOPE  H12S 5094   6.650   0.564  14.796 -0.0019 -0.6311  1.2166
   40DOPE  C213 5095   6.805   0.496  14.915 -0.8306  0.0006 -0.0362
   40DOPE  H13R 5096   6.864   0.588  14.933  1.4923 -1.6354  1.1951
   40DOPE  H13S 5097   6.872   0.407  14.918  0.8664  1.2265  3.2011
   40DOPE  C214 5098   6.712   0.479  15.031  0.0774 -0.3405  0.4870
   40DOPE  H14R 5099   6.634   0.400  15.026  0.4257 -0.7412  1.2532
   40DOPE  H14S 5100   6.648   0.570  15.029 -1.2380 -1.1850  1.8510
   40DOPE  C215 5101   6.789   0.472  15.169  0.3162  0.3265 -0.7913
   40DOPE  H15R 5102   6.827   0.370  15.189  0.6420  0.3631 -1.2266
   40DOPE  H15S 5103   6.706   0.478  15.244  0.6415 -0.2687 -0.3793
   40DOPE  C216 5104   6.908   0.572  15.193 -0.1284  0.0155 -0.6995
   40DOPE  H16R 5105   6.868   0.674  15.171 -2.8235 -1.0610 -1.2590
   40DOPE  H16S 5106   6.984   0.544  15.117  1.3706  1.2907  0.2627
   40DOPE  C217 5107   6.974   0.569  15.332  0.5570 -0.4098 -0.2603
   40DOPE  H17R 5108   7.078   0.605  15.341  0.9718 -1.1101 -1.9298
   40DOPE  H17S 5109   6.980   0.462  15.362  0.4919 -0.3051  0.1223
   40DOPE  C218 5110   6.885   0.664  15.429 -0.0704  0.1689  0.0577
   40DOPE  H18R 5111   6.777   0.644  15.413 -0.6984  2.7384  0.6375
   40DOPE  H18S 5112   6.914   0.768  15.404 -0.5176  0.3982  0.4785
   40DOPE  H18T 5113   6.896   0.641  15.537 -0.6966 -1.9768 -0.2922
   40DOPE   C33 5114   6.664   0.940  13.882  0.5138 -0.9299  0.4988
   40DOPE   H3X 5115   6.768   0.920  13.848  0.1974 -0.0148 -1.0790
   40DOPE   H3Y 5116   6.628   0.835  13.894  0.9955 -1.1975 -0.3050
   40DOPE   C34 5117   6.672   1.017  14.011 -0.3072  0.2175 -0.2253
   40DOPE   H4X 5118   6.715   1.119  14.001  1.2226 -0.3849 -0.1403
   40DOPE   H4Y 5119   6.570   1.040  14.048  0.2499  0.5859  1.1260
   40DOPE   C35 5120   6.756   0.939  14.121  0.2892 -0.9847 -0.1393
   40DOPE   H5X 5121   6.851   0.918  14.067 -0.2588  1.8473 -2.4817
   40DOPE   H5Y 5122   6.699   0.847  14.145  0.0245 -0.6222  0.6957
   40DOPE   C36 5123   6.775   1.014  14.251  0.5440  0.0444  0.4925
   40DOPE   H6X 5124   6.847   1.097  14.237 -1.9238  1.8684 -3.1239
   40DOPE   H6Y 5125   6.796   0.938  14.330  2.0093 -1.9697 -1.6589
   40DOPE   C37 5126   6.655   1.106  14.286 -0.3529 -0.1246  0.4052
   40DOPE   H7X 5127   6.646   1.192  14.216 -1.1639 -0.2425  0.3475
   40DOPE   H7Y 5128   6.570   1.034  14.291  0.3376 -0.9701  0.1925
   40DOPE   C38 5129   6.670   1.167  14.427 -0.0756 -0.3472 -0.0513
   40DOPE   H8X 5130   6.676   1.094  14.510  0.9254 -1.0805 -0.7538
   40DOPE   H8Y 5131   6.579   1.227  14.450  0.3083 -0.4589  1.9448
   40DOPE   C39 5132   6.787   1.265  14.438  0.2303  0.0079 -0.0172
   40DOPE   H9X 5133   6.779   1.333  14.352 -1.7609 -0.2005 -0.0381
   40DOPE  C310 5134   6.893   1.274  14.526  0.3218  0.5056 -0.5142
   40DOPE  H10X 5135   6.952   1.367  14.528 -0.1264  0.7981 -0.6591
   40DOPE  C311 5136   6.899   1.194  14.656 -0.0367 -0.2644  0.1309
   40DOPE  H11X 5137   6.843   1.099  14.647  0.9370 -0.8660  0.2869
   40DOPE  H11Y 5138   7.002   1.155  14.673  0.6172  2.1110  2.2827
   40DOPE  C312 5139   6.845   1.270  14.780  0.4414 -0.0880 -0.4257
   40DOPE  H12X 5140   6.852   1.206  14.871 -1.3655 -0.4406 -0.4864
   40DOPE  H12Y 5141   6.736   1.290  14.766  0.4418  0.4665  0.3157
   40DOPE  C313 5142   6.918   1.405  14.810  0.4545  0.0249 -0.6777
   40DOPE  H13X 5143   6.880   1.474  14.731 -0.4624  0.6096  0.2465
   40DOPE  H13Y 5144   6.879   1.436  14.909 -3.0651 -0.7902 -1.6670
   40DOPE  C314 5145   7.066   1.389  14.818 -0.0734  0.2040 -0.4128
   40DOPE  H14X 5146   7.106   1.396  14.714 -2.0392 -0.8160 -1.2946
   40DOPE  H14Y 5147   7.088   1.283  14.843 -0.1170 -0.0816 -1.5220
   40DOPE  C315 5148   7.129   1.490  14.913 -0.0789  0.5269 -0.5701
   40DOPE  H15X 5149   7.088   1.592  14.900 -0.1446  0.3248 -2.1055
   40DOPE  H15Y 5150   7.240   1.494  14.904  0.0669 -0.1839  0.6442
   40DOPE  C316 5151   7.079   1.464  15.056  0.1997 -0.5818 -0.1506
   40DOPE  H16X 5152   7.161   1.455  15.130  1.6858 -0.0789 -1.6744
   40DOPE  H16Y 5153   7.025   1.368  15.046 -1.7977  0.4463  0.2964
   40DOPE  C317 5154   6.990   1.579  15.111  0.9789 -0.4186 -0.0532
   40DOPE  H17X 5155   7.046   1.675  15.105  1.1585 -0.5513 -0.4896
   40DOPE  H17Y 5156   6.905   1.587  15.040 -0.8381 -0.2685  2.0127
   40DOPE  C318 5157   6.931   1.565  15.252 -0.0110 -0.2039 -0.4770
   40DOPE  H18X 5158   6.858   1.644  15.280  1.4784  1.4249 -1.0664
   40DOPE  H18Y 5159   6.866   1.474  15.255  0.7823 -0.7874 -0.7503
   40DOPE  H18Z 5160   7.011   1.548  15.328  0.8670  0.3750 -1.2663
   41DOPE     N 5161   4.221   1.046  12.790  0.3746 -0.6763  0.5623
   41DOPE   HN1 5162   4.279   1.078  12.870 -0.3035 -0.7082  1.0747
   41DOPE   HN2 5163   4.229   0.943  12.795 -1.3954 -0.8390  0.5922
   41DOPE   HN3 5164   4.239   1.088  12.696 -1.2043 -1.4773 -0.1340
   41DOPE   C12 5165   4.079   1.083  12.815 -0.2183 -0.0338 -0.5373
   41DOPE  H12A 5166   4.018   1.009  12.759 -2.0105 -0.4569  1.8293
   41DOPE  H12B 5167   4.051   1.184  12.778  0.9919  0.8967  0.9571
   41DOPE   C11 5168   4.031   1.052  12.958 -0.2772 -0.6216 -0.5598
   41DOPE  H11A 5169   3.922   1.064  12.978 -0.1779  3.8593 -1.6670
   41DOPE  H11B 5170   4.074   1.131  13.023  0.0793 -0.4984 -0.9406
   41DOPE     P 5171   3.972   0.802  13.021 -0.1217  0.5333  0.0621
   41DOPE   O13 5172   4.037   0.692  12.941 -0.2724  0.0316 -0.1646
   41DOPE   O14 5173   3.837   0.846  12.984  0.2744  0.1991 -0.0153
   41DOPE   O11 5174   3.974   0.773  13.175  0.1308  0.0892  0.3516
   41DOPE   O12 5175   4.074   0.922  12.999  0.4067 -0.1921  0.1554
   41DOPE    C1 5176   4.067   0.825  13.266  0.1297  0.7474 -0.9056
   41DOPE    HA 5177   4.042   0.933  13.276 -1.2830  0.2607  1.8136
   41DOPE    HB 5178   4.172   0.820  13.231  1.0347  2.1272  1.3952
   41DOPE    C2 5179   4.063   0.766  13.410 -0.3808  0.1915  1.0128
   41DOPE    HS 5180   4.137   0.818  13.474  0.8144 -1.1197  0.7561
   41DOPE   O21 5181   4.088   0.626  13.400  0.6809 -0.1131  0.4777
   41DOPE   C21 5182   4.215   0.595  13.391  0.6035  0.0573 -0.4022
   41DOPE   O22 5183   4.311   0.666  13.376 -0.2879 -0.2981  0.1414
   41DOPE   C22 5184   4.215   0.443  13.384  0.0992 -0.3365  0.2472
   41DOPE   H2R 5185   4.320   0.409  13.388  0.3473  0.2469 -0.8263
   41DOPE   H2S 5186   4.184   0.431  13.278  2.8671 -0.4521 -0.6143
   41DOPE    C3 5187   3.924   0.794  13.471 -0.5324 -0.1264 -0.0718
   41DOPE    HX 5188   3.851   0.750  13.399 -0.3818 -0.7449  0.1541
   41DOPE    HY 5189   3.912   0.905  13.473  2.7478  0.4103 -2.1370
   41DOPE   O31 5190   3.911   0.730  13.600  0.7334 -0.0778 -0.4462
   41DOPE   C31 5191   3.919   0.808  13.699 -0.6847  0.7082 -0.3690
   41DOPE   O32 5192   3.951   0.927  13.700 -0.2985 -0.2448  0.0842
   41DOPE   C32 5193   3.897   0.733  13.824  0.2149  0.0127 -0.5803
   41DOPE   H2X 5194   3.788   0.728  13.842  0.0853  0.8325 -1.1026
   41DOPE   H2Y 5195   3.951   0.636  13.814  1.0475  0.6025 -2.2122
   41DOPE   C23 5196   4.135   0.375  13.493 -0.2569 -0.2916 -0.8297
   41DOPE   H3R 5197   4.146   0.266  13.479 -0.7205 -0.3840 -0.5004
   41DOPE   H3S 5198   4.030   0.407  13.483  0.2931  1.8274 -0.3635
   41DOPE   C24 5199   4.186   0.407  13.638 -0.4128 -0.1703 -0.1827
   41DOPE   H4R 5200   4.202   0.514  13.662 -1.3902  0.8347 -3.4899
   41DOPE   H4S 5201   4.292   0.377  13.628 -0.0557  1.3736 -1.3677
   41DOPE   C25 5202   4.113   0.317  13.741  0.1549  0.0898 -0.3118
   41DOPE   H5R 5203   4.114   0.216  13.696 -1.4137  0.7338 -1.8936
   41DOPE   H5S 5204   4.007   0.338  13.764 -0.1845 -1.8326  0.0121
   41DOPE   C26 5205   4.187   0.331  13.876  0.1725  0.5502  0.2116
   41DOPE   H6R 5206   4.171   0.433  13.917  0.2179  1.0095 -0.8864
   41DOPE   H6S 5207   4.296   0.326  13.853  0.0935  0.2331 -0.0998
   41DOPE   C27 5208   4.156   0.225  13.982  0.1075  0.0900  0.2717
   41DOPE   H7R 5209   4.160   0.132  13.922 -1.1810  1.8724 -2.8606
   41DOPE   H7S 5210   4.047   0.234  14.005 -0.0255  0.1430 -0.3571
   41DOPE   C28 5211   4.230   0.240  14.119 -0.0340 -0.3463 -0.0384
   41DOPE   H8R 5212   4.339   0.231  14.103  0.0121  0.5870 -0.3474
   41DOPE   H8S 5213   4.211   0.158  14.190  1.2587 -1.3345 -0.8003
   41DOPE   C29 5214   4.212   0.376  14.178 -0.2968  0.1147 -0.0756
   41DOPE   H9R 5215   4.240   0.462  14.115  0.6299 -0.6600 -0.7455
   41DOPE  C210 5216   4.185   0.404  14.308  0.0361 -0.3210 -0.1805
   41DOPE  H10R 5217   4.188   0.510  14.340 -0.6113 -0.8333  1.7010
   41DOPE  C211 5218   4.147   0.307  14.415 -0.4399 -0.0637  0.1937
   41DOPE  H11R 5219   4.097   0.216  14.375 -0.3083  1.3195 -3.5244
   41DOPE  H11S 5220   4.081   0.351  14.492 -1.5568 -0.8067 -0.3147
   41DOPE  C212 5221   4.275   0.271  14.488 -0.0601 -0.0622  0.6822
   41DOPE  H12R 5222   4.347   0.252  14.406 -2.4712 -0.9452 -1.3933
   41DOPE  H12S 5223   4.266   0.187  14.561 -0.0422 -0.2522  0.4670
   41DOPE  C213 5224   4.331   0.384  14.573 -0.0669 -0.4208 -0.6639
   41DOPE  H13R 5225   4.272   0.399  14.666  2.2190  1.7632  0.5494
   41DOPE  H13S 5226   4.331   0.483  14.523 -0.4356 -0.7570 -1.3364
   41DOPE  C214 5227   4.478   0.353  14.606  0.3160 -0.8742 -0.2842
   41DOPE  H14R 5228   4.540   0.372  14.516  1.0436  0.1120  0.4063
   41DOPE  H14S 5229   4.487   0.243  14.616  1.6595 -1.1332 -3.4073
   41DOPE  C215 5230   4.532   0.429  14.727  0.0312  0.0885 -0.1624
   41DOPE  H15R 5231   4.521   0.538  14.709 -0.7871 -0.1147 -0.9933
   41DOPE  H15S 5232   4.642   0.419  14.737  0.1189  0.8509 -0.2660
   41DOPE  C216 5233   4.465   0.390  14.870 -0.3298  0.3332 -0.2436
   41DOPE  H16R 5234   4.446   0.281  14.874  0.9734  0.1294  1.8515
   41DOPE  H16S 5235   4.362   0.433  14.867 -0.4053  0.2177  0.3806
   41DOPE  C217 5236   4.537   0.455  14.994 -0.2886  0.4968 -0.0405
   41DOPE  H17R 5237   4.647   0.442  14.984 -0.0917  1.5894  0.5529
   41DOPE  H17S 5238   4.505   0.390  15.078 -0.6344 -1.2048 -1.4206
   41DOPE  C218 5239   4.502   0.599  15.018 -0.8220 -0.3247 -0.9100
   41DOPE  H18R 5240   4.521   0.625  15.124 -2.4437  3.6213 -1.4267
   41DOPE  H18S 5241   4.392   0.610  15.000 -1.0556 -1.1335 -0.0818
   41DOPE  H18T 5242   4.561   0.663  14.950 -1.5015  0.8499 -0.4280
   41DOPE   C33 5243   3.979   0.811  13.934  0.4156 -0.0596 -0.0499
   41DOPE   H3X 5244   3.937   0.913  13.941 -0.8393 -0.5163 -0.6953
   41DOPE   H3Y 5245   4.087   0.812  13.907  0.2448 -0.6263 -0.7679
   41DOPE   C34 5246   3.978   0.738  14.067 -0.3537 -0.4629 -0.4515
   41DOPE   H4X 5247   3.870   0.714  14.078  0.0887 -2.9025 -0.7394
   41DOPE   H4Y 5248   4.026   0.638  14.056  0.2216 -0.0437 -1.9416
   41DOPE   C35 5249   4.023   0.821  14.187 -0.0256 -0.2359  0.5121
   41DOPE   H5X 5250   3.989   0.925  14.169  0.5913 -0.0169  0.6145
   41DOPE   H5Y 5251   4.132   0.808  14.201  0.3455  0.0994 -1.6300
   41DOPE   C36 5252   3.958   0.777  14.319 -0.8139 -0.2899 -0.0443
   41DOPE   H6X 5253   3.957   0.667  14.313 -1.2655 -0.2072 -2.6541
   41DOPE   H6Y 5254   3.855   0.817  14.333  0.1630  2.7279 -0.5899
   41DOPE   C37 5255   4.030   0.814  14.451  0.4371  0.0262  0.9287
   41DOPE   H7X 5256   3.973   0.771  14.537 -0.4568  0.3522  0.5092
   41DOPE   H7Y 5257   4.133   0.770  14.451  0.5103  0.0055  3.6071
   41DOPE   C38 5258   4.040   0.971  14.469 -0.0481  0.2105 -0.1555
   41DOPE   H8X 5259   3.940   1.008  14.500 -0.3059 -0.8202  0.2703
   41DOPE   H8Y 5260   4.057   1.020  14.370  0.2902  1.5442  0.5386
   41DOPE   C39 5261   4.145   1.024  14.565 -0.2030  0.0544  0.3422
   41DOPE   H9X 5262   4.247   1.028  14.525 -0.2189  1.2127  0.3940
   41DOPE  C310 5263   4.136   1.053  14.694  0.6063  0.6898  0.0113
   41DOPE  H10X 5264   4.226   1.082  14.750  0.0767  0.5200  0.9836
   41DOPE  C311 5265   4.019   1.042  14.786 -0.1173 -0.2484 -0.3673
   41DOPE  H11X 5266   3.931   1.036  14.719 -0.2793  1.8796 -0.4029
   41DOPE  H11Y 5267   4.019   0.947  14.844 -1.8440  0.5856  1.1093
   41DOPE  C312 5268   3.994   1.160  14.886  0.8262  0.0463  0.1347
   41DOPE  H12X 5269   3.887   1.161  14.915  0.4462  0.6152 -1.1764
   41DOPE  H12Y 5270   3.999   1.257  14.831  2.6649 -2.1014 -3.8680
   41DOPE  C313 5271   4.091   1.158  15.005  0.2627  0.2173  0.6098
   41DOPE  H13X 5272   4.084   1.055  15.044 -1.9847 -0.3457 -1.0714
   41DOPE  H13Y 5273   4.197   1.174  14.978  0.7551 -2.1513  0.9732
   41DOPE  C314 5274   4.044   1.255  15.119 -0.3559  0.4365  0.2784
   41DOPE  H14X 5275   3.936   1.251  15.142 -0.3108 -1.5390  0.2923
   41DOPE  H14Y 5276   4.071   1.362  15.100  0.3844 -0.1817 -2.4627
   41DOPE  C315 5277   4.114   1.218  15.252  0.0453  0.0203  0.3569
   41DOPE  H15X 5278   4.224   1.234  15.252  0.0825 -0.1945 -0.2464
   41DOPE  H15Y 5279   4.086   1.113  15.272  0.7249 -0.6229 -1.7970
   41DOPE  C316 5280   4.063   1.302  15.366  0.0792 -0.8341  0.0638
   41DOPE  H16X 5281   3.957   1.274  15.382  0.1457  0.1134  2.6278
   41DOPE  H16Y 5282   4.063   1.406  15.328  2.0366 -1.2514 -1.1894
   41DOPE  C317 5283   4.139   1.296  15.498  0.1624  0.2994  0.6236
   41DOPE  H17X 5284   4.074   1.339  15.578 -0.9166 -0.3221  0.0993
   41DOPE  H17Y 5285   4.157   1.191  15.533 -1.2428 -0.1406  0.0754
   41DOPE  C318 5286   4.277   1.367  15.488  0.4639  0.3181 -1.0325
   41DOPE  H18X 5287   4.343   1.304  15.424  2.3199  0.3271  0.7846
   41DOPE  H18Y 5288   4.279   1.469  15.442  0.2811 -0.1985 -2.2287
   41DOPE  H18Z 5289   4.321   1.380  15.589  0.1657  0.1253 -0.8802
   42DOPE     N 5290   4.637   0.753  13.016  0.4889 -0.2586  0.1962
   42DOPE   HN1 5291   4.694   0.812  13.079 -2.2360  1.5288  1.1224
   42DOPE   HN2 5292   4.694   0.677  12.973  1.1002  1.4316 -2.1611
   42DOPE   HN3 5293   4.596   0.816  12.944  0.1539 -0.3934  0.2692
   42DOPE   C12 5294   4.534   0.696  13.103 -0.4327  0.1964 -0.0895
   42DOPE  H12A 5295   4.483   0.615  13.047  1.7934 -0.5709 -1.1106
   42DOPE  H12B 5296   4.456   0.774  13.117 -0.4693  0.4693 -1.6169
   42DOPE   C11 5297   4.602   0.640  13.228 -0.3644  0.4209  0.2110
   42DOPE  H11A 5298   4.519   0.596  13.288  0.4891  0.8674  1.7683
   42DOPE  H11B 5299   4.644   0.718  13.294 -1.0672 -0.6027  1.9628
   42DOPE     P 5300   4.635   0.383  13.173 -0.3644  0.2743  0.0919
   42DOPE   O13 5301   4.748   0.292  13.147 -0.0418 -0.3399 -0.0403
   42DOPE   O14 5302   4.524   0.381  13.078  0.2599  0.2417  0.4464
   42DOPE   O11 5303   4.581   0.344  13.318 -1.2025 -0.0574 -0.8558
   42DOPE   O12 5304   4.694   0.531  13.209  0.4966 -0.0480 -0.3689
   42DOPE    C1 5305   4.632   0.394  13.442 -0.6558  0.4062 -0.0423
   42DOPE    HA 5306   4.568   0.479  13.472 -1.8450 -0.6017  0.3826
   42DOPE    HB 5307   4.740   0.420  13.440 -0.5813  0.0460 -1.6415
   42DOPE    C2 5308   4.616   0.284  13.553  0.2217 -0.0444  0.1956
   42DOPE    HS 5309   4.508   0.258  13.552  0.3621 -0.6391 -0.2292
   42DOPE   O21 5310   4.644   0.346  13.676 -0.2462 -0.7572  0.1793
   42DOPE   C21 5311   4.609   0.284  13.787 -0.0707  0.2278  0.5304
   42DOPE   O22 5312   4.524   0.195  13.789  0.5345 -0.2258 -0.5398
   42DOPE   C22 5313   4.680   0.348  13.909  0.0672 -0.1972 -0.5385
   42DOPE   H2R 5314   4.619   0.423  13.964  2.7685  0.4896  1.7913
   42DOPE   H2S 5315   4.783   0.385  13.893 -0.4669  1.7902  0.2741
   42DOPE    C3 5316   4.710   0.160  13.532  0.0210  0.1129 -0.1305
   42DOPE    HX 5317   4.819   0.182  13.530  0.4926 -2.0490 -0.2193
   42DOPE    HY 5318   4.689   0.136  13.425  0.4782 -0.4173 -0.1077
   42DOPE   O31 5319   4.672   0.047  13.614 -0.0595  0.2305 -0.1402
   42DOPE   C31 5320   4.751  -0.001  13.704 -0.1662  0.4167 -0.2763
   42DOPE   O32 5321   4.826   0.069  13.770 -0.1296  0.5048  0.2227
   42DOPE   C32 5322   4.734  -0.154  13.725  0.2040  0.0480 -0.1895
   42DOPE   H2X 5323   4.649  -0.202  13.673 -0.2960  0.4915  0.2145
   42DOPE   H2Y 5324   4.825  -0.208  13.690  0.4123  1.5676 -2.1372
   42DOPE   C23 5325   4.696   0.234  14.018  0.3617 -0.4153 -0.3416
   42DOPE   H3R 5326   4.745   0.146  13.973 -0.5502 -2.3516  2.1885
   42DOPE   H3S 5327   4.590   0.206  14.038 -0.0290  0.5308 -1.0138
   42DOPE   C24 5328   4.772   0.276  14.149 -0.3386 -0.3204  0.4447
   42DOPE   H4R 5329   4.690   0.323  14.207  0.2981  3.5711 -1.4404
   42DOPE   H4S 5330   4.848   0.352  14.119 -0.2325 -0.6561 -0.1668
   42DOPE   C25 5331   4.840   0.164  14.224  0.5022 -0.0215  0.4390
   42DOPE   H5R 5332   4.924   0.136  14.157 -0.1882  0.6123 -0.7341
   42DOPE   H5S 5333   4.769   0.078  14.226 -0.0566  0.4379  0.5662
   42DOPE   C26 5334   4.912   0.208  14.351 -0.2236  0.5448 -0.4100
   42DOPE   H6R 5335   4.999   0.275  14.338  0.6637 -0.3797  0.5915
   42DOPE   H6S 5336   4.955   0.114  14.391  1.1743  1.0353 -0.6964
   42DOPE   C27 5337   4.815   0.275  14.447 -1.2344 -0.2948 -0.3671
   42DOPE   H7R 5338   4.730   0.202  14.448  0.3048 -2.3202  3.1032
   42DOPE   H7S 5339   4.772   0.372  14.415 -2.2467 -0.2669  0.9581
   42DOPE   C28 5340   4.885   0.288  14.584 -0.3228 -0.4805 -0.1735
   42DOPE   H8R 5341   4.938   0.193  14.607 -0.3706 -0.6575 -0.7692
   42DOPE   H8S 5342   4.800   0.295  14.655  0.6348  2.0541  0.8147
   42DOPE   C29 5343   4.974   0.407  14.606 -0.2908  0.1520  0.0819
   42DOPE   H9R 5344   5.062   0.412  14.540 -0.8521  1.9387 -0.5861
   42DOPE  C210 5345   4.987   0.472  14.723 -0.5781  0.1728 -0.1482
   42DOPE  H10R 5346   5.060   0.551  14.744  0.4799 -0.7264 -0.3595
   42DOPE  C211 5347   4.902   0.449  14.840 -0.3022 -0.0424 -0.3029
   42DOPE  H11R 5348   4.882   0.339  14.847 -2.7144  0.2647 -1.3517
   42DOPE  H11S 5349   4.817   0.520  14.828  1.3830  2.0171 -0.5658
   42DOPE  C212 5350   4.970   0.473  14.970 -0.9929 -0.1090 -0.7009
   42DOPE  H12R 5351   4.900   0.477  15.056  1.3618  0.4782  1.3080
   42DOPE  H12S 5352   5.025   0.570  14.977 -1.4314  0.1156 -0.2949
   42DOPE  C213 5353   5.068   0.367  15.009 -0.0301  0.4220  0.3961
   42DOPE  H13R 5354   5.139   0.347  14.925 -2.1795 -3.8035 -0.6770
   42DOPE  H13S 5355   5.009   0.273  15.010  0.2142  0.2673  0.3975
   42DOPE  C214 5356   5.147   0.401  15.137  0.1807 -0.4336 -0.6909
   42DOPE  H14R 5357   5.194   0.502  15.133 -1.7512  0.6021  0.6772
   42DOPE  H14S 5358   5.232   0.329  15.145  0.3724 -0.1303  0.1410
   42DOPE  C215 5359   5.072   0.389  15.274  0.2703  0.4684 -0.6185
   42DOPE  H15R 5360   5.064   0.279  15.293  2.0505  0.4410  0.2148
   42DOPE  H15S 5361   4.971   0.436  15.276 -1.4098 -2.7699  1.6406
   42DOPE  C216 5362   5.135   0.459  15.395  0.0432  0.2019  0.9613
   42DOPE  H16R 5363   5.106   0.566  15.392 -1.4380 -0.1296  2.3281
   42DOPE  H16S 5364   5.246   0.451  15.403  0.0248 -0.3550  0.7360
   42DOPE  C217 5365   5.087   0.394  15.526 -0.0175 -0.0785 -0.9405
   42DOPE  H17R 5366   4.978   0.374  15.536  0.2039 -0.4327  1.2570
   42DOPE  H17S 5367   5.107   0.471  15.604 -0.1872 -0.1135 -0.8595
   42DOPE  C218 5368   5.169   0.269  15.561 -0.2853  0.4994 -0.5532
   42DOPE  H18R 5369   5.279   0.278  15.547  0.2647 -1.5289  1.7824
   42DOPE  H18S 5370   5.142   0.184  15.494  0.6326  0.2090 -0.5770
   42DOPE  H18T 5371   5.154   0.241  15.668 -0.1974 -2.9413 -1.3156
   42DOPE   C33 5372   4.714  -0.170  13.875  0.1014 -0.1311 -0.8887
   42DOPE   H3X 5373   4.779  -0.101  13.932  1.7861 -1.6936 -0.8454
   42DOPE   H3Y 5374   4.730  -0.274  13.909 -0.3933  0.1665  0.3235
   42DOPE   C34 5375   4.572  -0.139  13.925 -0.4001 -0.3976  0.5547
   42DOPE   H4X 5376   4.550  -0.031  13.909 -1.3785 -0.5786  0.5661
   42DOPE   H4Y 5377   4.497  -0.189  13.859  0.3087 -1.2445  0.3685
   42DOPE   C35 5378   4.544  -0.163  14.071 -0.0672 -0.3710  0.0523
   42DOPE   H5X 5379   4.640  -0.154  14.126  0.0339 -4.2167  0.7583
   42DOPE   H5Y 5380   4.519  -0.270  14.089 -0.0248 -0.0666  2.1100
   42DOPE   C36 5381   4.436  -0.071  14.132  0.3745 -0.3468  0.1039
   42DOPE   H6X 5382   4.350  -0.131  14.171 -0.3468  0.6686  0.1165
   42DOPE   H6Y 5383   4.387  -0.009  14.053  1.4836  0.3908 -0.0259
   42DOPE   C37 5384   4.486   0.019  14.247  0.4658 -0.2341 -0.0950
   42DOPE   H7X 5385   4.569   0.081  14.205  1.0863 -2.5308 -2.5503
   42DOPE   H7Y 5386   4.400   0.079  14.284 -2.2619 -2.6930 -2.0058
   42DOPE   C38 5387   4.542  -0.051  14.368  0.2386  0.6818  0.0768
   42DOPE   H8X 5388   4.611   0.023  14.413  1.6248 -0.7283  0.3291
   42DOPE   H8Y 5389   4.602  -0.138  14.333  0.4022  0.3325  1.1758
   42DOPE   C39 5390   4.439  -0.112  14.453  0.7682 -0.6116  0.4418
   42DOPE   H9X 5391   4.338  -0.120  14.408  1.2863  1.3502 -1.2227
   42DOPE  C310 5392   4.453  -0.126  14.588  0.6302  0.0650  0.1126
   42DOPE  H10X 5393   4.364  -0.162  14.642  1.3638 -1.1821  0.5376
   42DOPE  C311 5394   4.581  -0.110  14.663 -0.0292  0.2059  0.0176
   42DOPE  H11X 5395   4.623  -0.211  14.684  0.2586  0.4033  0.4039
   42DOPE  H11Y 5396   4.661  -0.063  14.603  1.9459 -0.2525  2.1373
   42DOPE  C312 5397   4.551  -0.032  14.784 -0.1236 -1.0462  0.0891
   42DOPE  H12X 5398   4.472  -0.075  14.849 -0.1053 -0.1769  0.7086
   42DOPE  H12Y 5399   4.515   0.067  14.750  0.9711 -0.6962 -0.0874
   42DOPE  C313 5400   4.681  -0.001  14.868  0.5700  0.6254  0.0160
   42DOPE  H13X 5401   4.718  -0.102  14.892 -1.1891 -0.1375 -0.3004
   42DOPE  H13Y 5402   4.741   0.062  14.799  0.2493 -0.3033 -1.1358
   42DOPE  C314 5403   4.660   0.077  15.002  0.1712  0.4434  0.0370
   42DOPE  H14X 5404   4.579   0.022  15.052 -0.2968  1.2142  0.1421
   42DOPE  H14Y 5405   4.624   0.177  14.969  1.1213  1.4092  1.7701
   42DOPE  C315 5406   4.796   0.084  15.076 -0.1355 -0.1613  0.2163
   42DOPE  H15X 5407   4.879   0.114  15.008 -1.4648  1.1096 -0.8852
   42DOPE  H15Y 5408   4.831  -0.013  15.118 -0.3954  0.8595  3.0354
   42DOPE  C316 5409   4.787   0.187  15.185 -0.2781  0.5170  0.1232
   42DOPE  H16X 5410   4.788   0.290  15.142 -1.6211  0.8962  0.9415
   42DOPE  H16Y 5411   4.883   0.174  15.241  0.7202  0.5212 -1.5099
   42DOPE  C317 5412   4.668   0.173  15.280 -0.1517 -0.0730  0.0936
   42DOPE  H17X 5413   4.671   0.251  15.359 -0.8847 -0.8912  0.9660
   42DOPE  H17Y 5414   4.576   0.200  15.225  0.6480  0.4858 -0.9954
   42DOPE  C318 5415   4.656   0.036  15.347  0.3252 -0.2845 -0.8238
   42DOPE  H18X 5416   4.575   0.035  15.423 -0.2245 -2.0686 -1.3876
   42DOPE  H18Y 5417   4.606  -0.034  15.277 -0.4015 -1.2490  0.5955
   42DOPE  H18Z 5418   4.750  -0.008  15.386 -0.6001 -1.9981 -0.4374
   43DOPE     N 5419   2.844   5.253  13.160  0.2591  0.3073  0.0070
   43DOPE   HN1 5420   2.817   5.153  13.168  2.2421 -0.2418  0.3476
   43DOPE   HN2 5421   2.832   5.275  13.059  0.3716  2.5351  0.4404
   43DOPE   HN3 5422   2.945   5.250  13.184  0.5188 -1.0683 -1.1317
   43DOPE   C12 5423   2.767   5.346  13.253 -0.2730 -0.1626 -0.0438
   43DOPE  H12A 5424   2.793   5.326  13.359 -2.9045  1.5535  1.0389
   43DOPE  H12B 5425   2.659   5.324  13.239 -0.7208  1.9389 -0.3192
   43DOPE   C11 5426   2.806   5.498  13.223  0.1204 -0.6994  0.5069
   43DOPE  H11A 5427   2.749   5.556  13.299  1.7231  0.6519  0.7278
   43DOPE  H11B 5428   2.767   5.526  13.123  0.6682 -0.7426  0.2782
   43DOPE     P 5429   2.996   5.664  13.233 -0.0968  0.1093  0.4542
   43DOPE   O13 5430   2.932   5.720  13.113  0.0062 -0.1542  0.4136
   43DOPE   O14 5431   3.142   5.660  13.232  0.4103  0.6023 -0.0836
   43DOPE   O11 5432   2.951   5.742  13.361  0.0093 -0.1320  0.2440
   43DOPE   O12 5433   2.942   5.518  13.248  0.0102  0.2864  0.0059
   43DOPE    C1 5434   2.965   5.695  13.496  0.1932 -0.1950 -0.2077
   43DOPE    HA 5435   3.070   5.687  13.533 -0.4924 -2.9039  1.4801
   43DOPE    HB 5436   2.911   5.598  13.503 -0.0166 -0.0085  0.8856
   43DOPE    C2 5437   2.901   5.790  13.598  0.0975 -0.2396  0.8291
   43DOPE    HS 5438   2.961   5.883  13.588  0.1971 -0.3821  0.0658
   43DOPE   O21 5439   2.907   5.734  13.730 -0.3412  0.0201 -0.2641
   43DOPE   C21 5440   2.919   5.821  13.828 -0.2641 -0.5798 -0.1765
   43DOPE   O22 5441   2.923   5.943  13.819  0.2912  0.2834 -0.2421
   43DOPE   C22 5442   2.906   5.743  13.952  0.0644 -0.3153 -1.1912
   43DOPE   H2R 5443   2.998   5.680  13.957  0.7842  0.7800 -0.0416
   43DOPE   H2S 5444   2.815   5.680  13.954 -0.5895  0.6055 -1.4944
   43DOPE    C3 5445   2.755   5.820  13.552 -0.3432 -0.2359 -0.1429
   43DOPE    HX 5446   2.704   5.723  13.538  2.1326 -1.4806 -1.0550
   43DOPE    HY 5447   2.742   5.862  13.450  2.1410 -0.0243 -0.4187
   43DOPE   O31 5448   2.684   5.902  13.652 -0.1506 -0.0651 -0.1980
   43DOPE   C31 5449   2.704   6.034  13.645  0.9388 -0.0020 -0.5125
   43DOPE   O32 5450   2.749   6.088  13.548  0.1676 -0.3227  0.0422
   43DOPE   C32 5451   2.663   6.098  13.784 -0.1767  0.6098 -0.1240
   43DOPE   H2X 5452   2.559   6.065  13.805  0.3164 -1.2890 -0.4297
   43DOPE   H2Y 5453   2.735   6.053  13.856  1.6095 -0.5952 -2.4986
   43DOPE   C23 5454   2.893   5.833  14.085 -0.1948 -0.9632 -0.1363
   43DOPE   H3R 5455   2.791   5.877  14.087 -0.1075 -0.7758  0.9714
   43DOPE   H3S 5456   2.968   5.915  14.092 -1.0639 -0.2592  3.7446
   43DOPE   C24 5457   2.909   5.757  14.218 -0.0606  0.1233  0.6666
   43DOPE   H4R 5458   3.006   5.705  14.229 -1.2453 -2.5730 -0.7224
   43DOPE   H4S 5459   2.834   5.675  14.214  1.6737 -1.4915 -0.5047
   43DOPE   C25 5460   2.914   5.834  14.353 -0.4816 -0.6852  1.1888
   43DOPE   H5R 5461   2.823   5.897  14.366 -0.6840 -0.4602 -0.9597
   43DOPE   H5S 5462   2.996   5.909  14.347 -0.6393 -0.5619  0.3720
   43DOPE   C26 5463   2.937   5.754  14.482  0.8359  0.0284  0.1173
   43DOPE   H6R 5464   3.036   5.711  14.452  0.1662 -1.1347 -0.4826
   43DOPE   H6S 5465   2.856   5.681  14.498  0.7693 -0.1873 -1.1318
   43DOPE   C27 5466   2.948   5.844  14.606  0.3289 -1.2239 -0.2733
   43DOPE   H7R 5467   3.023   5.921  14.580  0.1082 -1.3446 -1.2792
   43DOPE   H7S 5468   2.993   5.792  14.694  2.9830  3.0186  1.1824
   43DOPE   C28 5469   2.816   5.925  14.636 -0.0007 -0.1433  0.5267
   43DOPE   H8R 5470   2.786   5.985  14.547  0.4989 -0.4659  0.1370
   43DOPE   H8S 5471   2.837   5.990  14.724  1.0334 -0.2538  0.3701
   43DOPE   C29 5472   2.705   5.823  14.655 -0.0705 -0.3367  0.6125
   43DOPE   H9R 5473   2.655   5.781  14.566 -3.2712 -0.0149  2.1068
   43DOPE  C210 5474   2.660   5.777  14.776  0.2355 -0.0727 -0.4315
   43DOPE  H10R 5475   2.573   5.710  14.768 -0.1432  0.1674  1.2303
   43DOPE  C211 5476   2.711   5.817  14.914  0.4235 -0.9363  1.2957
   43DOPE  H11R 5477   2.820   5.838  14.908  0.2010  0.3115  1.3510
   43DOPE  H11S 5478   2.682   5.734  14.982 -2.1857  0.1802  1.6963
   43DOPE  C212 5479   2.647   5.951  14.964  0.0726  0.5158  0.2760
   43DOPE  H12R 5480   2.543   5.921  14.991  0.2779  0.4655  1.0550
   43DOPE  H12S 5481   2.653   6.038  14.896  2.0492  0.1013 -0.1393
   43DOPE  C213 5482   2.718   6.007  15.091 -0.0845  0.5898 -0.6343
   43DOPE  H13R 5483   2.664   6.098  15.125 -0.3930 -0.1229  0.8857
   43DOPE  H13S 5484   2.819   6.039  15.057 -0.0830 -0.1780 -1.4190
   43DOPE  C214 5485   2.716   5.903  15.210 -0.2715  0.2138 -0.1076
   43DOPE  H14R 5486   2.767   5.813  15.171  0.8124  1.2980 -1.2838
   43DOPE  H14S 5487   2.611   5.873  15.228  0.3771 -1.4270  1.2538
   43DOPE  C215 5488   2.796   5.955  15.334 -0.7318  0.7094  0.0997
   43DOPE  H15R 5489   2.847   6.041  15.287 -1.0691  0.4696 -0.7108
   43DOPE  H15S 5490   2.863   5.870  15.359 -2.6043 -1.2031 -1.0195
   43DOPE  C216 5491   2.718   5.987  15.459 -0.0793  0.0344 -0.0688
   43DOPE  H16R 5492   2.794   6.000  15.539  0.1367  2.3719 -0.5830
   43DOPE  H16S 5493   2.650   5.900  15.473  0.4341 -0.1851  1.2464
   43DOPE  C217 5494   2.636   6.114  15.446  0.4671 -0.3069  0.0945
   43DOPE  H17R 5495   2.575   6.101  15.537  1.0651 -2.7984  0.2124
   43DOPE  H17S 5496   2.570   6.111  15.357 -0.5440 -1.8315  0.8554
   43DOPE  C218 5497   2.709   6.243  15.447  0.0083 -0.4402 -0.0282
   43DOPE  H18R 5498   2.791   6.252  15.373 -1.3364  0.3350 -1.4873
   43DOPE  H18S 5499   2.757   6.267  15.545 -1.6872 -0.5998  0.8796
   43DOPE  H18T 5500   2.633   6.322  15.429 -0.9671 -1.9431 -3.2029
   43DOPE   C33 5501   2.678   6.247  13.768  0.0055  0.5997  0.2684
   43DOPE   H3X 5502   2.633   6.291  13.676 -2.1272 -0.6049  0.6637
   43DOPE   H3Y 5503   2.784   6.278  13.759 -0.2894  1.3214 -1.0563
   43DOPE   C34 5504   2.623   6.325  13.891  0.1654  0.0001  0.4880
   43DOPE   H4X 5505   2.615   6.433  13.867  2.0898  0.0690  0.0641
   43DOPE   H4Y 5506   2.516   6.298  13.906  0.1788 -0.8907 -0.7969
   43DOPE   C35 5507   2.715   6.323  14.018  0.7130 -0.4505  0.2447
   43DOPE   H5X 5508   2.814   6.370  13.997 -1.3890  4.0914 -0.6031
   43DOPE   H5Y 5509   2.724   6.216  14.045 -0.4747  0.1500  3.4458
   43DOPE   C36 5510   2.659   6.395  14.143  0.2582 -0.2954  0.5086
   43DOPE   H6X 5511   2.552   6.370  14.161  0.1578 -0.5944 -0.4439
   43DOPE   H6Y 5512   2.671   6.504  14.127 -2.0972  0.2461  1.9446
   43DOPE   C37 5513   2.736   6.363  14.269 -0.4598  0.7815  0.3776
   43DOPE   H7X 5514   2.770   6.260  14.293  2.2022  1.8545  1.4998
   43DOPE   H7Y 5515   2.827   6.422  14.245 -1.4660  1.6825 -1.4252
   43DOPE   C38 5516   2.671   6.420  14.399 -0.7315 -0.6338 -0.5694
   43DOPE   H8X 5517   2.628   6.521  14.383  2.4489  0.8919 -0.0199
   43DOPE   H8Y 5518   2.753   6.428  14.472  2.6608  1.6441 -4.2268
   43DOPE   C39 5519   2.549   6.341  14.447 -0.2998 -0.2823  0.6894
   43DOPE   H9X 5520   2.492   6.293  14.366  0.3179  0.9592 -0.5166
   43DOPE  C310 5521   2.504   6.334  14.573 -0.2843 -0.6600 -0.5201
   43DOPE  H10X 5522   2.421   6.267  14.602 -1.0543  0.8741  1.0141
   43DOPE  C311 5523   2.578   6.396  14.688 -0.1397 -0.1178  0.0423
   43DOPE  H11X 5524   2.650   6.323  14.731  0.3066  0.7874  0.8672
   43DOPE  H11Y 5525   2.625   6.490  14.652  0.6128 -0.4162  0.2260
   43DOPE  C312 5526   2.496   6.447  14.813 -0.1983  0.4905 -0.0716
   43DOPE  H12X 5527   2.404   6.496  14.775  0.3836  0.4798 -1.5247
   43DOPE  H12Y 5528   2.565   6.515  14.867  2.3669 -1.2608 -0.9868
   43DOPE  C313 5529   2.475   6.324  14.902  1.0766 -0.1184  0.4949
   43DOPE  H13X 5530   2.415   6.247  14.848 -1.6722  2.2490 -0.0890
   43DOPE  H13Y 5531   2.563   6.268  14.941  0.5242 -0.5656  1.1389
   43DOPE  C314 5532   2.405   6.346  15.039 -0.8251  0.4994  0.4315
   43DOPE  H14X 5533   2.313   6.407  15.022  0.2725  2.4973  1.2900
   43DOPE  H14Y 5534   2.477   6.404  15.100 -0.9346  1.2698 -0.1476
   43DOPE  C315 5535   2.353   6.213  15.112 -0.0402  0.0373  0.4796
   43DOPE  H15X 5536   2.428   6.132  15.101  0.7354  0.9836 -1.6891
   43DOPE  H15Y 5537   2.269   6.173  15.051 -0.1406  1.4637 -0.3398
   43DOPE  C316 5538   2.306   6.234  15.254 -0.2893  0.5408 -0.2770
   43DOPE  H16X 5539   2.209   6.289  15.251  0.2806  1.6050 -3.6500
   43DOPE  H16Y 5540   2.372   6.295  15.320 -1.3780 -1.1867  2.6090
   43DOPE  C317 5541   2.282   6.097  15.318  0.2654 -0.1411 -0.0542
   43DOPE  H17X 5542   2.234   6.025  15.249 -0.8264  0.4696  0.0467
   43DOPE  H17Y 5543   2.378   6.046  15.342 -0.1006 -0.8648 -0.1002
   43DOPE  C318 5544   2.192   6.101  15.443 -0.1567  0.5645 -0.6517
   43DOPE  H18X 5545   2.203   6.000  15.486  1.8204  1.1250  0.2587
   43DOPE  H18Y 5546   2.228   6.175  15.517  0.7491 -1.1013  0.6461
   43DOPE  H18Z 5547   2.084   6.122  15.426  0.7548  2.8275 -5.3824
   44DOPE     N 5548   0.430   4.660  12.957 -0.2733  0.3711 -0.7366
   44DOPE   HN1 5549   0.476   4.581  13.006  2.4408  1.0355 -2.0005
   44DOPE   HN2 5550   0.508   4.708  12.907 -0.0677  1.6360  0.6962
   44DOPE   HN3 5551   0.385   4.725  13.025 -1.2055  0.3077 -1.2807
   44DOPE   C12 5552   0.327   4.604  12.867 -0.3863 -0.1951  0.3203
   44DOPE  H12A 5553   0.369   4.541  12.786 -0.5888  1.2213 -0.9383
   44DOPE  H12B 5554   0.279   4.692  12.820  0.0056  0.1810  0.6200
   44DOPE   C11 5555   0.229   4.520  12.949  0.1443  0.2165 -0.5042
   44DOPE  H11A 5556   0.174   4.590  13.015  1.8563  0.8758  0.2899
   44DOPE  H11B 5557   0.290   4.459  13.019  1.1102  1.8351  0.1214
   44DOPE     P 5558   0.000   4.465  12.829 -0.2355  0.1112  0.1774
   44DOPE   O13 5559  -0.052   4.354  12.736 -0.7766 -0.8587 -0.4443
   44DOPE   O14 5560  -0.011   4.601  12.776 -0.0500 -0.3975  0.3090
   44DOPE   O11 5561  -0.064   4.455  12.973  0.5742  0.4433  0.1219
   44DOPE   O12 5562   0.147   4.435  12.867 -0.0004 -0.3567  0.1262
   44DOPE    C1 5563  -0.094   4.324  13.022 -1.1403  0.1404 -0.1510
   44DOPE    HA 5564   0.002   4.268  13.018 -0.1920  1.4784  1.9721
   44DOPE    HB 5565  -0.166   4.268  12.958 -0.0288 -0.5059 -0.8566
   44DOPE    C2 5566  -0.151   4.326  13.165  0.6852  0.3138  0.4153
   44DOPE    HS 5567  -0.257   4.359  13.164  0.8662  0.9077 -0.2378
   44DOPE   O21 5568  -0.068   4.403  13.251  0.0186 -0.2765  0.8181
   44DOPE   C21 5569  -0.107   4.533  13.239 -0.2377  0.3790  0.3291
   44DOPE   O22 5570  -0.211   4.574  13.191 -0.1281 -0.0029  0.3248
   44DOPE   C22 5571  -0.008   4.629  13.300  0.1906  0.0607 -0.6762
   44DOPE   H2R 5572  -0.012   4.719  13.234  0.4527 -0.2289 -1.0890
   44DOPE   H2S 5573   0.089   4.576  13.310 -0.2676 -0.8648 -1.0521
   44DOPE    C3 5574  -0.150   4.182  13.220 -0.1129 -0.1319 -0.3011
   44DOPE    HX 5575  -0.045   4.146  13.229  0.1694 -0.3563 -3.4246
   44DOPE    HY 5576  -0.200   4.116  13.146 -1.1621 -0.5202  0.7281
   44DOPE   O31 5577  -0.220   4.178  13.345  0.2720 -0.0185 -0.0443
   44DOPE   C31 5578  -0.171   4.105  13.446  0.1873  0.3981 -0.4865
   44DOPE   O32 5579  -0.083   4.021  13.429  0.0733 -0.5008 -0.2440
   44DOPE   C32 5580  -0.229   4.149  13.584 -0.9823  0.4513 -0.6280
   44DOPE   H2X 5581  -0.162   4.230  13.619 -1.7131  0.1878  1.5298
   44DOPE   H2Y 5582  -0.332   4.191  13.582 -1.5704 -0.8704  0.2649
   44DOPE   C23 5583  -0.057   4.682  13.437 -0.0030 -0.0553 -0.3371
   44DOPE   H3R 5584  -0.161   4.710  13.412 -0.0560 -0.9130 -1.1190
   44DOPE   H3S 5585  -0.003   4.776  13.462 -1.5354  0.7601  0.0747
   44DOPE   C24 5586  -0.031   4.583  13.550  0.9818  0.0672 -0.5001
   44DOPE   H4R 5587   0.059   4.521  13.529  1.2618  0.2483  0.1735
   44DOPE   H4S 5588  -0.119   4.515  13.550  0.4476  0.7235  1.0723
   44DOPE   C25 5589  -0.023   4.636  13.694 -0.7599  0.0530  0.1304
   44DOPE   H5R 5590  -0.115   4.698  13.705 -1.3865 -1.0188  1.2205
   44DOPE   H5S 5591   0.075   4.686  13.708 -0.3228 -0.4737 -0.9554
   44DOPE   C26 5592  -0.026   4.523  13.799 -0.0454  0.5623 -0.0835
   44DOPE   H6R 5593   0.057   4.455  13.769 -1.8528 -1.8412  0.1307
   44DOPE   H6S 5594  -0.112   4.455  13.784 -2.3688  3.2042  0.4300
   44DOPE   C27 5595  -0.021   4.565  13.951  0.1141  0.6990 -0.3123
   44DOPE   H7R 5596  -0.105   4.629  13.984  0.2200  0.8438 -0.3244
   44DOPE   H7S 5597   0.075   4.618  13.969  0.8576 -1.1310  1.3271
   44DOPE   C28 5598  -0.016   4.443  14.043 -0.2378 -0.9686 -0.2590
   44DOPE   H8R 5599   0.044   4.469  14.132  1.2613 -1.6084 -1.0341
   44DOPE   H8S 5600   0.031   4.362  13.982 -0.9699 -0.6110 -1.3261
   44DOPE   C29 5601  -0.155   4.397  14.079 -0.6135 -0.4547 -0.0359
   44DOPE   H9R 5602  -0.195   4.314  14.019 -1.9385 -0.4698  0.8305
   44DOPE  C210 5603  -0.225   4.440  14.183  0.1232 -0.1398 -0.2435
   44DOPE  H10R 5604  -0.324   4.405  14.214 -0.4115  1.0612 -0.5261
   44DOPE  C211 5605  -0.179   4.552  14.277 -1.0036 -0.0296  0.4073
   44DOPE  H11R 5606  -0.265   4.614  14.309  0.2602  1.4818  1.0049
   44DOPE  H11S 5607  -0.107   4.625  14.235 -2.2386 -0.1845 -2.1195
   44DOPE  C212 5608  -0.110   4.496  14.403  0.1113  0.5740  0.6976
   44DOPE  H12R 5609  -0.047   4.575  14.450 -2.0713  2.9401 -0.1278
   44DOPE  H12S 5610  -0.033   4.422  14.374  0.3889  0.9027  0.5793
   44DOPE  C213 5611  -0.209   4.456  14.507  0.2058 -0.3787  0.8445
   44DOPE  H13R 5612  -0.293   4.394  14.467  0.9499 -0.9654  0.1587
   44DOPE  H13S 5613  -0.265   4.546  14.539 -2.2292 -0.9470 -1.4700
   44DOPE  C214 5614  -0.157   4.388  14.632  0.4465  0.5973  0.7883
   44DOPE  H14R 5615  -0.092   4.452  14.695  2.3871 -0.7217  0.1985
   44DOPE  H14S 5616  -0.084   4.309  14.608 -1.1917 -1.8280  3.1273
   44DOPE  C215 5617  -0.261   4.339  14.732  0.1032  0.1325 -0.0721
   44DOPE  H15R 5618  -0.339   4.269  14.694 -0.0158 -0.4437  1.1757
   44DOPE  H15S 5619  -0.318   4.431  14.761  2.2643  1.2072  0.9932
   44DOPE  C216 5620  -0.198   4.267  14.853  0.2211  0.2526  0.2771
   44DOPE  H16R 5621  -0.128   4.343  14.895  1.9723  0.3092 -2.4929
   44DOPE  H16S 5622  -0.138   4.185  14.809 -3.8489 -1.9570 -1.5824
   44DOPE  C217 5623  -0.292   4.228  14.966  0.7346  0.0649  0.1478
   44DOPE  H17R 5624  -0.368   4.151  14.940  0.6172  0.6666 -1.3659
   44DOPE  H17S 5625  -0.351   4.320  14.984 -0.9585 -1.3313  2.4479
   44DOPE  C218 5626  -0.232   4.200  15.106  1.0776  0.4733 -0.2851
   44DOPE  H18R 5627  -0.298   4.140  15.173  0.3053  0.8811 -0.6578
   44DOPE  H18S 5628  -0.217   4.295  15.162  3.0823  0.4387 -0.6894
   44DOPE  H18T 5629  -0.133   4.154  15.090  1.3231  1.1133 -0.6228
   44DOPE   C33 5630  -0.211   4.030  13.683 -0.0465  0.2080  0.0747
   44DOPE   H3X 5631  -0.107   3.992  13.675 -0.1772 -0.3075  0.8245
   44DOPE   H3Y 5632  -0.273   3.944  13.651 -1.5608  1.9263 -1.8763
   44DOPE   C34 5633  -0.243   4.076  13.824  0.1490  0.0053  0.7333
   44DOPE   H4X 5634  -0.182   4.168  13.839  0.1790  0.1672 -0.2960
   44DOPE   H4Y 5635  -0.351   4.102  13.829 -0.3787 -1.8815  0.0659
   44DOPE   C35 5636  -0.208   3.962  13.923  0.5586 -0.3929 -0.1013
   44DOPE   H5X 5637  -0.098   3.945  13.924  0.6012 -0.4726 -1.8436
   44DOPE   H5Y 5638  -0.256   3.872  13.878 -0.9754  0.7838 -0.9248
   44DOPE   C36 5639  -0.272   3.977  14.059  0.1790 -0.1845  0.6355
   44DOPE   H6X 5640  -0.379   3.997  14.037 -0.0056 -1.9051 -0.2341
   44DOPE   H6Y 5641  -0.237   4.074  14.101 -0.2172  0.1097  0.2963
   44DOPE   C37 5642  -0.255   3.867  14.158  0.2499  0.5326  0.0707
   44DOPE   H7X 5643  -0.259   3.767  14.111  2.9226  1.6547 -2.8774
   44DOPE   H7Y 5644  -0.151   3.873  14.195 -0.5127  0.8319  2.2997
   44DOPE   C38 5645  -0.351   3.880  14.278 -0.5148  0.2327 -0.4052
   44DOPE   H8X 5646  -0.331   3.789  14.339  1.1422  0.6656 -0.2479
   44DOPE   H8Y 5647  -0.457   3.893  14.248 -0.8093  1.7595  1.1404
   44DOPE   C39 5648  -0.321   4.003  14.352 -0.1812  0.2605 -0.3536
   44DOPE   H9X 5649  -0.305   4.095  14.293 -0.0680 -0.0838 -0.8624
   44DOPE  C310 5650  -0.325   4.016  14.487 -0.5087  0.2764 -0.1986
   44DOPE  H10X 5651  -0.285   4.107  14.535  0.1224 -0.6640  1.1589
   44DOPE  C311 5652  -0.351   3.907  14.590  0.3176  0.1159  0.3518
   44DOPE  H11X 5653  -0.432   3.946  14.655  0.3445  0.9435 -0.0938
   44DOPE  H11Y 5654  -0.399   3.820  14.540  0.1522 -0.6984  1.8632
   44DOPE  C312 5655  -0.230   3.861  14.668  0.2543 -1.3787  0.1587
   44DOPE  H12X 5656  -0.166   3.943  14.707  2.6291 -2.8472 -0.4093
   44DOPE  H12Y 5657  -0.159   3.809  14.600 -0.6464 -2.2418 -0.1440
   44DOPE  C313 5658  -0.270   3.765  14.784  0.1025  0.3574 -0.6905
   44DOPE  H13X 5659  -0.349   3.699  14.740  1.7360 -1.2940 -1.2856
   44DOPE  H13Y 5660  -0.181   3.703  14.809  0.7259  1.7464  0.7034
   44DOPE  C314 5661  -0.327   3.821  14.916 -0.3540  0.4136 -0.2548
   44DOPE  H14X 5662  -0.435   3.842  14.897 -0.1356  0.7303 -1.2015
   44DOPE  H14Y 5663  -0.278   3.920  14.931  0.5713 -0.1780  0.7776
   44DOPE  C315 5664  -0.315   3.745  15.047 -0.1136 -0.4769  0.0850
   44DOPE  H15X 5665  -0.226   3.679  15.047 -1.5312 -2.4761 -0.5375
   44DOPE  H15Y 5666  -0.398   3.672  15.049  0.3296 -1.0101  3.2083
   44DOPE  C316 5667  -0.330   3.837  15.169  0.9694 -0.4823  0.6714
   44DOPE  H16X 5668  -0.427   3.891  15.164  0.4225 -1.4129  0.9887
   44DOPE  H16Y 5669  -0.249   3.912  15.170  0.2329  0.4448 -2.0934
   44DOPE  C317 5670  -0.337   3.764  15.300  0.4006 -0.4337  0.2320
   44DOPE  H17X 5671  -0.424   3.695  15.304  0.0849 -0.0107  0.8607
   44DOPE  H17Y 5672  -0.247   3.699  15.315  1.5357  1.3027  1.3237
   44DOPE  C318 5673  -0.342   3.862  15.419  0.4553 -0.3928 -0.9661
   44DOPE  H18X 5674  -0.387   3.817  15.509 -1.4892  0.8888 -1.2207
   44DOPE  H18Y 5675  -0.242   3.884  15.461 -0.2571  3.3085 -0.7958
   44DOPE  H18Z 5676  -0.390   3.961  15.397  0.0964 -0.2240  0.4710
   45DOPE     N 5677   1.203   3.542  12.793  0.3878  0.3695  0.0353
   45DOPE   HN1 5678   1.286   3.544  12.731 -0.3205  1.9106 -0.9210
   45DOPE   HN2 5679   1.244   3.535  12.888  0.3889  0.1813  0.0215
   45DOPE   HN3 5680   1.147   3.458  12.768 -0.2076  0.9209 -0.5336
   45DOPE   C12 5681   1.127   3.666  12.774 -0.2674 -0.2867  0.0843
   45DOPE  H12A 5682   1.031   3.660  12.830  1.4885  0.1045  3.3715
   45DOPE  H12B 5683   1.122   3.686  12.665 -1.6671 -1.0620 -0.0228
   45DOPE   C11 5684   1.212   3.779  12.836  0.0763 -0.5505  0.2564
   45DOPE  H11A 5685   1.225   3.764  12.946  4.0785 -0.6719 -0.0783
   45DOPE  H11B 5686   1.161   3.876  12.821  2.4014  0.4582 -1.8299
   45DOPE     P 5687   1.475   3.846  12.839 -0.6313 -0.2061  0.0187
   45DOPE   O13 5688   1.487   3.989  12.807  0.0379  0.0470 -0.9599
   45DOPE   O14 5689   1.595   3.762  12.809  0.0157 -0.1543  0.1392
   45DOPE   O11 5690   1.446   3.829  12.990 -0.7482  0.0459  0.2718
   45DOPE   O12 5691   1.347   3.791  12.776  1.2728 -0.4009  0.1170
   45DOPE    C1 5692   1.531   3.913  13.083  0.5951 -0.0086 -0.2159
   45DOPE    HA 5693   1.503   4.020  13.083  1.8570  0.3537 -1.4050
   45DOPE    HB 5694   1.641   3.908  13.065  0.7866 -0.5799  1.0083
   45DOPE    C2 5695   1.513   3.853  13.221  0.6645 -0.2866  0.5860
   45DOPE    HS 5696   1.545   3.926  13.298 -1.6522  0.5238  0.8679
   45DOPE   O21 5697   1.582   3.729  13.228 -0.1388 -0.3169  0.4362
   45DOPE   C21 5698   1.645   3.705  13.340  0.2696  0.2800  0.7147
   45DOPE   O22 5699   1.642   3.775  13.438 -0.1171  0.0068  0.5028
   45DOPE   C22 5700   1.728   3.579  13.328 -0.2011  0.1575 -0.1997
   45DOPE   H2R 5701   1.822   3.595  13.384 -0.3816  0.2014  0.0927
   45DOPE   H2S 5702   1.764   3.569  13.224  3.1685 -0.6214  0.9418
   45DOPE    C3 5703   1.363   3.831  13.254 -0.1835 -0.1717 -0.2403
   45DOPE    HX 5704   1.326   3.756  13.181  1.7609 -1.3802 -0.0667
   45DOPE    HY 5705   1.304   3.921  13.228 -1.0795 -0.8803 -0.7069
   45DOPE   O31 5706   1.347   3.805  13.397  0.1261 -0.6173 -0.3351
   45DOPE   C31 5707   1.344   3.681  13.435  0.6521  0.3533 -0.1413
   45DOPE   O32 5708   1.339   3.583  13.358  0.8350 -0.0972  0.0173
   45DOPE   C32 5709   1.317   3.674  13.587 -0.0512 -0.0322  0.0844
   45DOPE   H2X 5710   1.208   3.693  13.600  0.0510  0.5354  0.1406
   45DOPE   H2Y 5711   1.335   3.567  13.612  0.0108  0.5677  2.8755
   45DOPE   C23 5712   1.655   3.450  13.370  0.1314  0.5746 -0.2076
   45DOPE   H3R 5713   1.689   3.359  13.316 -1.6392 -0.8309  0.9193
   45DOPE   H3S 5714   1.553   3.456  13.326  0.5637  1.1687 -1.1671
   45DOPE   C24 5715   1.659   3.423  13.520  0.1538 -0.4011  0.1427
   45DOPE   H4R 5716   1.644   3.525  13.562  0.7484  0.3002 -1.2813
   45DOPE   H4S 5717   1.760   3.385  13.545  1.0336  0.7966 -1.3720
   45DOPE   C25 5718   1.559   3.326  13.578  0.0785  0.1493 -0.1477
   45DOPE   H5R 5719   1.563   3.224  13.534 -0.0817  0.0852 -0.0165
   45DOPE   H5S 5720   1.461   3.371  13.550  1.0437  2.0775 -0.5886
   45DOPE   C26 5721   1.563   3.316  13.729  0.3197  1.0336 -0.3330
   45DOPE   H6R 5722   1.569   3.421  13.765 -0.2953  0.9972 -0.1009
   45DOPE   H6S 5723   1.659   3.268  13.757  0.8043  0.9390 -2.0760
   45DOPE   C27 5724   1.438   3.254  13.795  0.2925  0.0414 -0.3505
   45DOPE   H7R 5725   1.446   3.148  13.761  0.5946 -0.4432  1.1320
   45DOPE   H7S 5726   1.347   3.306  13.758  0.8438  1.1371 -0.1987
   45DOPE   C28 5727   1.449   3.260  13.954 -0.4334 -0.1410  1.0899
   45DOPE   H8R 5728   1.423   3.362  13.991  2.1466  1.0499 -0.0772
   45DOPE   H8S 5729   1.557   3.239  13.972 -0.1732  0.6985  0.5777
   45DOPE   C29 5730   1.345   3.167  14.019 -0.4006 -0.0984 -0.5533
   45DOPE   H9R 5731   1.243   3.154  13.979 -0.5789 -2.1042  0.4404
   45DOPE  C210 5732   1.375   3.099  14.134 -0.4025 -0.3225 -0.6524
   45DOPE  H10R 5733   1.298   3.046  14.191 -0.8038  2.5170  1.7180
   45DOPE  C211 5734   1.499   3.100  14.218  0.1660  0.0531 -0.2055
   45DOPE  H11R 5735   1.489   3.182  14.293  0.8978 -0.0071 -0.0314
   45DOPE  H11S 5736   1.581   3.146  14.159  0.6783  0.3532  0.7140
   45DOPE  C212 5737   1.568   2.965  14.255  0.0959 -0.0370 -0.5369
   45DOPE  H12R 5738   1.668   3.001  14.288 -0.6810  1.2547  0.5112
   45DOPE  H12S 5739   1.583   2.900  14.166 -0.6699 -1.8583  0.6281
   45DOPE  C213 5740   1.503   2.875  14.360  0.3234 -0.2647  0.1834
   45DOPE  H13R 5741   1.576   2.792  14.372  1.6115  0.1903 -3.3417
   45DOPE  H13S 5742   1.403   2.842  14.326 -0.3940  1.4736  0.4873
   45DOPE  C214 5743   1.480   2.946  14.494 -0.9274  0.6678 -0.0094
   45DOPE  H14R 5744   1.400   3.023  14.497 -1.0487  0.5736 -0.8087
   45DOPE  H14S 5745   1.569   3.009  14.513  1.1381 -2.3127  0.9249
   45DOPE  C215 5746   1.475   2.852  14.609  0.6004  0.5901 -0.5068
   45DOPE  H15R 5747   1.562   2.782  14.610 -1.3066 -2.0172 -2.2913
   45DOPE  H15S 5748   1.388   2.790  14.579 -0.5764  0.6527  2.4875
   45DOPE  C216 5749   1.461   2.925  14.743  0.0403  1.0486 -0.6335
   45DOPE  H16R 5750   1.370   2.988  14.742 -0.5335  0.3016  1.2634
   45DOPE  H16S 5751   1.551   2.990  14.750  1.0639 -0.3052 -0.7718
   45DOPE  C217 5752   1.450   2.822  14.857  0.3322 -0.2174 -0.1719
   45DOPE  H17R 5753   1.521   2.736  14.848 -0.5462 -0.9244 -0.4632
   45DOPE  H17S 5754   1.342   2.798  14.855  0.2742  0.0673 -0.3318
   45DOPE  C218 5755   1.477   2.874  14.997  0.1666  0.5083 -0.1754
   45DOPE  H18R 5756   1.471   2.788  15.067  0.6443 -1.3568 -2.3101
   45DOPE  H18S 5757   1.402   2.954  15.016 -1.2822 -0.8170 -0.1421
   45DOPE  H18T 5758   1.584   2.902  15.006  0.7766 -2.2245  2.9078
   45DOPE   C33 5759   1.416   3.754  13.674  0.3788  0.6768  0.5259
   45DOPE   H3X 5760   1.392   3.862  13.664  0.8897  0.6250 -2.0265
   45DOPE   H3Y 5761   1.517   3.749  13.627  0.6670  1.6200  1.0295
   45DOPE   C34 5762   1.430   3.706  13.826  0.2500 -0.0476  0.2994
   45DOPE   H4X 5763   1.336   3.688  13.882  1.2177  1.3543  2.4867
   45DOPE   H4Y 5764   1.483   3.608  13.827 -0.3877 -0.4206 -0.7192
   45DOPE   C35 5765   1.502   3.816  13.903 -0.3559  0.3715 -0.1048
   45DOPE   H5X 5766   1.447   3.908  13.931 -1.6992 -0.1696 -0.8566
   45DOPE   H5Y 5767   1.581   3.850  13.833 -2.6857  0.2895 -2.9674
   45DOPE   C36 5768   1.571   3.758  14.029 -0.6955  0.2664  0.4837
   45DOPE   H6X 5769   1.632   3.667  14.012 -1.2465 -0.4953  2.3089
   45DOPE   H6Y 5770   1.491   3.715  14.092 -0.8112 -0.1910  0.0251
   45DOPE   C37 5771   1.663   3.864  14.101  0.6941 -0.0095  0.9680
   45DOPE   H7X 5772   1.767   3.825  14.094  0.6808  0.0086  0.6778
   45DOPE   H7Y 5773   1.666   3.953  14.034 -0.5058 -0.4654  0.2861
   45DOPE   C38 5774   1.645   3.889  14.248 -0.1499 -0.0238 -0.0321
   45DOPE   H8X 5775   1.734   3.944  14.285 -0.2340 -0.4157  0.7832
   45DOPE   H8Y 5776   1.652   3.794  14.305 -0.5608 -0.5860 -0.9019
   45DOPE   C39 5777   1.526   3.979  14.286  0.8483  0.2567 -0.2264
   45DOPE   H9X 5778   1.521   4.075  14.233 -1.1468  0.5314  0.3885
   45DOPE  C310 5779   1.428   3.958  14.381 -0.4180 -0.6092  0.2311
   45DOPE  H10X 5780   1.352   4.035  14.400  0.3036  0.8107 -2.2401
   45DOPE  C311 5781   1.419   3.853  14.492  0.1996 -0.0817  0.1887
   45DOPE  H11X 5782   1.315   3.814  14.498 -0.4722  0.7890 -3.5339
   45DOPE  H11Y 5783   1.483   3.762  14.486 -1.7323 -1.4411 -1.0450
   45DOPE  C312 5784   1.446   3.923  14.622  0.2129  0.3492  0.4667
   45DOPE  H12X 5785   1.364   3.993  14.650 -0.1731 -0.0953  0.4813
   45DOPE  H12Y 5786   1.531   3.993  14.610 -1.4389  2.3378 -0.1004
   45DOPE  C313 5787   1.481   3.826  14.732  0.5535 -0.0973 -0.0365
   45DOPE  H13X 5788   1.399   3.755  14.760  0.8733 -0.9272 -1.1296
   45DOPE  H13Y 5789   1.576   3.776  14.704  1.1567  0.1275  1.5145
   45DOPE  C314 5790   1.501   3.906  14.864  0.2961 -0.2816 -0.9458
   45DOPE  H14X 5791   1.427   3.983  14.894  1.3944 -0.1099  1.6413
   45DOPE  H14Y 5792   1.599   3.957  14.854  0.7777 -1.0398 -0.2170
   45DOPE  C315 5793   1.508   3.815  14.992 -0.4195  0.1817  0.4521
   45DOPE  H15X 5794   1.545   3.865  15.084  0.4297 -3.1964  2.1500
   45DOPE  H15Y 5795   1.591   3.747  14.961  0.1958  1.1424 -0.0647
   45DOPE  C316 5796   1.389   3.739  15.051 -0.5986 -0.5460  0.7480
   45DOPE  H16X 5797   1.366   3.653  14.984  2.3321  0.1075 -1.2570
   45DOPE  H16Y 5798   1.295   3.797  15.036 -0.8030 -1.3398 -1.2504
   45DOPE  C317 5799   1.405   3.680  15.188  0.1388  0.3197 -0.1542
   45DOPE  H17X 5800   1.493   3.613  15.187 -0.3975 -0.4076  0.6617
   45DOPE  H17Y 5801   1.437   3.764  15.253  1.4108  1.7513 -2.4715
   45DOPE  C318 5802   1.281   3.601  15.235  0.0300 -0.4786 -0.3488
   45DOPE  H18X 5803   1.291   3.568  15.340  0.3543 -0.8462 -0.4899
   45DOPE  H18Y 5804   1.188   3.655  15.209 -0.7516 -0.6160  1.9715
   45DOPE  H18Z 5805   1.268   3.505  15.179 -0.0894 -1.0071  0.5648
   46DOPE     N 5806   0.197   2.474  12.914 -0.9260 -0.7800  0.1716
   46DOPE   HN1 5807   0.117   2.529  12.877  1.2954  0.1505 -3.8173
   46DOPE   HN2 5808   0.168   2.396  12.976 -2.1063 -0.9043 -0.5084
   46DOPE   HN3 5809   0.268   2.530  12.966  0.0114 -0.2577 -1.5932
   46DOPE   C12 5810   0.260   2.416  12.789  0.4318 -0.2602 -0.1273
   46DOPE  H12A 5811   0.351   2.358  12.814  0.7742  0.7289  1.0600
   46DOPE  H12B 5812   0.284   2.499  12.719 -0.5556 -0.9055 -1.2473
   46DOPE   C11 5813   0.163   2.321  12.724 -0.2631  0.2012  0.1722
   46DOPE  H11A 5814   0.215   2.291  12.630 -0.8613 -1.8159  0.4225
   46DOPE  H11B 5815   0.068   2.374  12.703  0.4789  1.1506 -0.8852
   46DOPE     P 5816   0.129   2.067  12.760  0.0656 -0.1493 -0.2126
   46DOPE   O13 5817   0.258   2.003  12.737 -0.6755  0.3414  0.2095
   46DOPE   O14 5818   0.038   2.066  12.643  0.1678 -0.2192 -0.0737
   46DOPE   O11 5819   0.057   1.994  12.882 -0.9875  0.2325  0.4115
   46DOPE   O12 5820   0.145   2.211  12.815 -0.5722  0.2847  0.4994
   46DOPE    C1 5821   0.050   2.054  13.010  0.2262 -0.5775  0.8119
   46DOPE    HA 5822   0.127   2.126  13.044  0.1709  0.0872 -0.4209
   46DOPE    HB 5823   0.056   1.966  13.079 -2.3729 -1.9325 -0.5232
   46DOPE    C2 5824  -0.086   2.129  13.024  0.1599  0.7939 -0.1358
   46DOPE    HS 5825  -0.090   2.213  12.951 -2.3405 -0.1151 -1.1578
   46DOPE   O21 5826  -0.108   2.177  13.158  0.1080 -0.0453  0.7396
   46DOPE   C21 5827  -0.042   2.293  13.182  0.2094  0.0544 -0.1641
   46DOPE   O22 5828   0.038   2.346  13.105  0.5244  0.9119  0.1186
   46DOPE   C22 5829  -0.077   2.340  13.323  0.4509 -0.9506  0.6383
   46DOPE   H2R 5830  -0.116   2.254  13.381  2.1584 -1.6145  0.8719
   46DOPE   H2S 5831  -0.166   2.406  13.325  1.3325  0.3331 -0.5480
   46DOPE    C3 5832  -0.197   2.023  12.996 -0.0654  0.4822 -0.1358
   46DOPE    HX 5833  -0.192   1.986  12.892 -0.4329 -2.3422  0.7655
   46DOPE    HY 5834  -0.300   2.065  12.999  0.1240  0.9135  0.6471
   46DOPE   O31 5835  -0.181   1.900  13.068  0.1519 -1.0439 -0.0278
   46DOPE   C31 5836  -0.257   1.888  13.171  0.6032 -1.0750 -0.5828
   46DOPE   O32 5837  -0.343   1.966  13.212  0.1069  0.1470  0.3810
   46DOPE   C32 5838  -0.209   1.754  13.236  0.0748 -0.7382  0.3184
   46DOPE   H2X 5839  -0.253   1.682  13.164 -0.8964  1.3396 -1.2564
   46DOPE   H2Y 5840  -0.102   1.737  13.214  0.0424 -1.8565  0.9524
   46DOPE   C23 5841   0.041   2.392  13.401  0.0418 -0.2075 -0.2055
   46DOPE   H3R 5842   0.065   2.494  13.364 -0.9700 -0.0586 -0.4937
   46DOPE   H3S 5843   0.124   2.320  13.389 -2.0978 -3.3009  2.1056
   46DOPE   C24 5844   0.011   2.397  13.553  0.2850  0.2956 -0.0664
   46DOPE   H4R 5845  -0.021   2.298  13.591 -1.8891  0.9593 -0.0509
   46DOPE   H4S 5846  -0.075   2.463  13.578  0.9533  1.1929 -0.0933
   46DOPE   C25 5847   0.135   2.458  13.629 -0.0160  0.1144 -0.6529
   46DOPE   H5R 5848   0.194   2.522  13.559 -1.2368  2.7202  0.5692
   46DOPE   H5S 5849   0.200   2.379  13.671  0.0372  0.9948  1.0284
   46DOPE   C26 5850   0.104   2.539  13.755  0.4165 -0.0555  0.0728
   46DOPE   H6R 5851   0.018   2.608  13.746 -0.2138 -0.9541 -1.1891
   46DOPE   H6S 5852   0.197   2.599  13.765  0.4210  0.2658 -1.6211
   46DOPE   C27 5853   0.054   2.453  13.875 -0.5438  0.4387  0.7011
   46DOPE   H7R 5854   0.119   2.363  13.870  1.2356  1.7420 -2.4368
   46DOPE   H7S 5855  -0.051   2.417  13.870  0.1565 -1.7855  0.7513
   46DOPE   C28 5856   0.080   2.508  14.014 -0.5098 -0.6489 -0.4831
   46DOPE   H8R 5857   0.188   2.501  14.038 -0.4902 -1.8665 -0.8382
   46DOPE   H8S 5858   0.040   2.439  14.092  0.9486 -1.0219 -0.0413
   46DOPE   C29 5859   0.028   2.645  14.041  0.4982 -0.3875 -0.3535
   46DOPE   H9R 5860  -0.037   2.673  13.957 -1.7400  0.7692  1.6246
   46DOPE  C210 5861   0.029   2.721  14.157 -0.6957  0.0962 -0.4039
   46DOPE  H10R 5862  -0.024   2.818  14.156 -0.0870  0.4375 -0.2570
   46DOPE  C211 5863   0.079   2.665  14.287 -0.5398  0.1298  0.2404
   46DOPE  H11R 5864   0.137   2.746  14.336  0.4131  1.0176 -2.2243
   46DOPE  H11S 5865   0.145   2.581  14.257  1.1468  0.7415  2.0246
   46DOPE  C212 5866  -0.043   2.634  14.376 -0.3507 -0.1359  0.3451
   46DOPE  H12R 5867  -0.098   2.554  14.324  0.6471 -1.0101  0.5906
   46DOPE  H12S 5868  -0.104   2.724  14.396  0.9877  0.6282  1.1592
   46DOPE  C213 5869  -0.002   2.585  14.520  0.0332  0.2625 -0.2536
   46DOPE  H13R 5870   0.078   2.510  14.502  1.3112  1.2577  0.9764
   46DOPE  H13S 5871  -0.091   2.538  14.567 -0.7311  2.1225  0.2681
   46DOPE  C214 5872   0.059   2.692  14.612  0.1084 -0.9835 -0.2854
   46DOPE  H14R 5873  -0.021   2.766  14.634  0.2572 -0.7729 -0.4554
   46DOPE  H14S 5874   0.138   2.746  14.556 -0.2296  0.1878  0.3341
   46DOPE  C215 5875   0.129   2.641  14.739 -0.7432 -0.3382 -1.0579
   46DOPE  H15R 5876   0.220   2.581  14.720 -0.2873  0.3067 -0.9420
   46DOPE  H15S 5877   0.070   2.569  14.799  1.0396 -0.3578  0.8091
   46DOPE  C216 5878   0.162   2.755  14.838  0.1336 -0.0206  0.6538
   46DOPE  H16R 5879   0.069   2.813  14.855 -0.6709 -1.5353  1.6712
   46DOPE  H16S 5880   0.235   2.822  14.788 -1.0260  2.3455  1.9941
   46DOPE  C217 5881   0.226   2.720  14.974 -0.2799  0.0362  0.3003
   46DOPE  H17R 5882   0.247   2.814  15.029 -1.3240  0.0751  0.6539
   46DOPE  H17S 5883   0.324   2.673  14.951 -0.9574 -0.5742 -1.6047
   46DOPE  C218 5884   0.142   2.625  15.063 -0.2465 -0.4617  0.4185
   46DOPE  H18R 5885   0.052   2.683  15.092  0.8191  0.3442  2.3046
   46DOPE  H18S 5886   0.198   2.605  15.157  1.2133  0.5263 -0.1980
   46DOPE  H18T 5887   0.114   2.528  15.017  1.4676 -1.2511  0.9536
   46DOPE   C33 5888  -0.253   1.725  13.377 -0.1860 -0.0511  0.7173
   46DOPE   H3X 5889  -0.229   1.619  13.401 -0.2273 -0.1192  0.4609
   46DOPE   H3Y 5890  -0.364   1.733  13.384 -0.0724  2.8333  0.6353
   46DOPE   C34 5891  -0.202   1.828  13.476  0.1144  0.5510  0.3145
   46DOPE   H4X 5892  -0.092   1.831  13.465  0.4221 -0.5057  2.4752
   46DOPE   H4Y 5893  -0.242   1.930  13.459 -0.9300 -0.2426 -2.5994
   46DOPE   C35 5894  -0.229   1.777  13.621 -0.4501  0.2014  0.4377
   46DOPE   H5X 5895  -0.188   1.675  13.636 -0.8615 -0.1348 -0.5737
   46DOPE   H5Y 5896  -0.340   1.764  13.623 -0.0979 -4.3828  0.7295
   46DOPE   C36 5897  -0.179   1.875  13.723  0.4391 -0.2919 -0.1229
   46DOPE   H6X 5898  -0.175   1.981  13.692  0.1917  0.1314  1.2538
   46DOPE   H6Y 5899  -0.077   1.842  13.753  1.2617  2.4101  0.3340
   46DOPE   C37 5900  -0.269   1.871  13.849  0.1528  0.1708  0.8759
   46DOPE   H7X 5901  -0.358   1.934  13.828 -0.3615 -1.4061 -2.1757
   46DOPE   H7Y 5902  -0.312   1.771  13.869 -0.3243 -0.0760 -1.2042
   46DOPE   C38 5903  -0.194   1.899  13.976  0.4440 -0.6581  0.1815
   46DOPE   H8X 5904  -0.108   1.830  13.990  1.4518  0.7321  1.2597
   46DOPE   H8Y 5905  -0.271   1.873  14.051  0.4466 -2.3078 -0.3482
   46DOPE   C39 5906  -0.151   2.048  13.992  0.8862 -0.1392 -0.5134
   46DOPE   H9X 5907  -0.165   2.111  13.903 -2.3376  1.2862  0.8514
   46DOPE  C310 5908  -0.110   2.107  14.102 -0.7282 -0.3258  0.2963
   46DOPE  H10X 5909  -0.084   2.214  14.104 -1.7246  0.0069 -2.0579
   46DOPE  C311 5910  -0.102   2.030  14.229 -0.3067  0.1719  0.0146
   46DOPE  H11X 5911  -0.150   1.929  14.229  1.4663 -0.8402 -3.7877
   46DOPE  H11Y 5912   0.004   2.021  14.262  0.2473  3.1167 -0.7127
   46DOPE  C312 5913  -0.190   2.109  14.338  0.9744 -0.0236 -0.3521
   46DOPE  H12X 5914  -0.224   2.028  14.406  1.6613 -0.3203 -0.3569
   46DOPE  H12Y 5915  -0.284   2.127  14.281 -0.3459 -1.9812  1.0654
   46DOPE  C313 5916  -0.127   2.226  14.413  0.9021 -0.4772  0.4716
   46DOPE  H13X 5917  -0.078   2.298  14.344  1.5676 -0.0352  1.3838
   46DOPE  H13Y 5918  -0.202   2.286  14.469  0.8061  0.9367 -1.0936
   46DOPE  C314 5919  -0.029   2.171  14.503 -1.0256 -0.0084 -0.3658
   46DOPE  H14X 5920   0.074   2.179  14.461 -0.0967 -1.2787  1.5218
   46DOPE  H14Y 5921  -0.043   2.064  14.531  2.2301 -0.7836 -1.2006
   46DOPE  C315 5922  -0.024   2.234  14.644  0.6266 -0.6209 -0.5513
   46DOPE  H15X 5923  -0.030   2.344  14.631  0.4631 -0.2789  1.9133
   46DOPE  H15Y 5924   0.075   2.216  14.690  1.2843 -0.2776 -1.7985
   46DOPE  C316 5925  -0.136   2.190  14.738  0.2476  0.7129  0.3971
   46DOPE  H16X 5926  -0.142   2.080  14.753  0.1435  0.4786 -1.1839
   46DOPE  H16Y 5927  -0.239   2.217  14.708  0.4957 -0.0667 -1.2571
   46DOPE  C317 5928  -0.115   2.240  14.877 -0.4086  0.5522 -0.0979
   46DOPE  H17X 5929  -0.012   2.206  14.899 -0.8113  0.3923  1.6898
   46DOPE  H17Y 5930  -0.117   2.351  14.888  3.2294  0.5572  1.8002
   46DOPE  C318 5931  -0.217   2.199  14.981 -0.1822  0.2234 -0.1324
   46DOPE  H18X 5932  -0.218   2.089  14.997  1.0937  0.1944 -0.1571
   46DOPE  H18Y 5933  -0.183   2.246  15.076  0.8274  0.7937 -0.7585
   46DOPE  H18Z 5934  -0.319   2.240  14.967 -0.7852 -0.6310  1.4683
   47DOPE     N 5935   4.890   1.582  12.208  0.9472 -0.3767  0.2094
   47DOPE   HN1 5936   4.787   1.598  12.202  1.1735  1.3444  0.4119
   47DOPE   HN2 5937   4.930   1.673  12.180  2.6174 -1.4524 -1.0426
   47DOPE   HN3 5938   4.914   1.509  12.138 -0.7097  1.3907 -2.3963
   47DOPE   C12 5939   4.924   1.539  12.345  0.6479 -0.0713  0.0580
   47DOPE  H12A 5940   4.901   1.625  12.412  0.0640  0.4678 -0.8132
   47DOPE  H12B 5941   5.031   1.508  12.344 -0.1076 -2.9903 -1.8719
   47DOPE   C11 5942   4.834   1.428  12.408  0.1610  0.0590  0.6187
   47DOPE  H11A 5943   4.855   1.404  12.515 -1.0678  1.0888  1.1287
   47DOPE  H11B 5944   4.844   1.332  12.352 -1.1937  0.3837 -0.2402
   47DOPE     P 5945   4.579   1.378  12.480  0.5721 -0.1588 -0.2764
   47DOPE   O13 5946   4.641   1.293  12.587  0.7928  0.2855  0.2097
   47DOPE   O14 5947   4.486   1.312  12.383  0.9039 -0.4384 -0.0313
   47DOPE   O11 5948   4.504   1.500  12.555 -0.1042  0.4405 -0.1168
   47DOPE   O12 5949   4.690   1.453  12.399 -0.0668  0.1097 -0.1289
   47DOPE    C1 5950   4.577   1.597  12.637  0.1238  0.5426  0.4746
   47DOPE    HA 5951   4.534   1.699  12.624 -1.1292  0.4278  3.0373
   47DOPE    HB 5952   4.681   1.612  12.602 -0.3281 -0.3469 -1.4061
   47DOPE    C2 5953   4.575   1.563  12.788  0.4485 -0.2119 -0.0508
   47DOPE    HS 5954   4.605   1.456  12.792  1.8918  0.1633 -0.2640
   47DOPE   O21 5955   4.440   1.590  12.831  0.1308  0.6393 -0.3648
   47DOPE   C21 5956   4.391   1.502  12.921 -0.3730  0.2695 -0.0909
   47DOPE   O22 5957   4.447   1.399  12.957  0.0992 -0.5140 -0.5311
   47DOPE   C22 5958   4.261   1.556  12.973 -0.0567  0.4509  0.2627
   47DOPE   H2R 5959   4.188   1.575  12.892  1.3304  1.3161 -0.8211
   47DOPE   H2S 5960   4.280   1.654  13.020 -0.8498  0.6859  0.1084
   47DOPE    C3 5961   4.685   1.629  12.874 -0.1663 -0.1434  0.2214
   47DOPE    HX 5962   4.674   1.739  12.859 -0.2567 -0.2206 -0.2881
   47DOPE    HY 5963   4.781   1.592  12.834 -0.4573 -1.1647  0.4448
   47DOPE   O31 5964   4.666   1.594  13.015  0.5878 -0.3565 -0.0491
   47DOPE   C31 5965   4.716   1.478  13.068  0.3353 -0.4625  0.3577
   47DOPE   O32 5966   4.760   1.390  12.996  0.3547  0.0501 -0.1379
   47DOPE   C32 5967   4.692   1.476  13.219 -0.6974  0.7768 -0.5111
   47DOPE   H2X 5968   4.646   1.382  13.257  1.9317 -1.6833 -2.9574
   47DOPE   H2Y 5969   4.794   1.475  13.262 -0.7876 -0.8149 -0.2949
   47DOPE   C23 5970   4.188   1.468  13.077 -0.5305  0.4068  0.3911
   47DOPE   H3R 5971   4.182   1.363  13.041  1.2444 -0.3488  2.1158
   47DOPE   H3S 5972   4.083   1.495  13.103 -0.8671 -2.0187  1.8745
   47DOPE   C24 5973   4.265   1.473  13.210 -0.5225  0.4056  0.2136
   47DOPE   H4R 5974   4.271   1.575  13.254  2.1990 -0.0034  0.9262
   47DOPE   H4S 5975   4.370   1.443  13.192 -0.2724  0.5633  1.2945
   47DOPE   C25 5976   4.187   1.385  13.304  0.6898  0.4541 -0.0727
   47DOPE   H5R 5977   4.195   1.281  13.268  2.1160  0.3837  0.3724
   47DOPE   H5S 5978   4.084   1.419  13.326  0.8147  2.1456 -1.8778
   47DOPE   C26 5979   4.258   1.372  13.436  0.6712  0.1544 -0.3886
   47DOPE   H6R 5980   4.276   1.474  13.477 -1.1407 -0.5857  2.5469
   47DOPE   H6S 5981   4.360   1.332  13.419  1.5550  2.1140  0.0425
   47DOPE   C27 5982   4.180   1.285  13.531  0.0664 -0.1676 -0.3683
   47DOPE   H7R 5983   4.142   1.194  13.480 -1.5270 -0.9249  2.0335
   47DOPE   H7S 5984   4.090   1.344  13.559 -0.1056 -0.3264 -0.5828
   47DOPE   C28 5985   4.260   1.258  13.659  0.0808 -0.4375 -0.0448
   47DOPE   H8R 5986   4.301   1.357  13.687 -0.5690 -0.2411  0.2330
   47DOPE   H8S 5987   4.345   1.190  13.634  1.2735  0.4111  1.4872
   47DOPE   C29 5988   4.169   1.203  13.768  0.4212 -0.1922 -0.0105
   47DOPE   H9R 5989   4.073   1.159  13.740 -0.8204  2.1337  0.3134
   47DOPE  C210 5990   4.215   1.195  13.893 -0.0575  0.2288  0.0085
   47DOPE  H10R 5991   4.165   1.134  13.969  1.4463  0.6681  1.4256
   47DOPE  C211 5992   4.343   1.266  13.938  0.8601  0.8449  0.2267
   47DOPE  H11R 5993   4.353   1.370  13.901  0.2691  0.6667 -0.4584
   47DOPE  H11S 5994   4.437   1.218  13.904  0.0608 -0.7318  0.1238
   47DOPE  C212 5995   4.334   1.293  14.091  0.0062  0.3000 -0.5891
   47DOPE  H12R 5996   4.347   1.193  14.137 -1.0938  0.1346 -0.6063
   47DOPE  H12S 5997   4.241   1.346  14.120 -0.6311 -0.6246 -0.9164
   47DOPE  C213 5998   4.451   1.384  14.144  0.1602  0.3108  0.4121
   47DOPE  H13R 5999   4.422   1.486  14.109  1.2991  1.2055  1.9585
   47DOPE  H13S 6000   4.543   1.349  14.092 -1.1132 -2.0213 -0.3797
   47DOPE  C214 6001   4.471   1.400  14.295 -0.2223 -0.1040  0.7904
   47DOPE  H14R 6002   4.525   1.494  14.319  0.5163 -0.8503  2.1870
   47DOPE  H14S 6003   4.523   1.313  14.341 -0.0494  0.6349  2.0613
   47DOPE  C215 6004   4.337   1.419  14.375 -0.8985  0.7199  0.7365
   47DOPE  H15R 6005   4.293   1.318  14.370  2.8125 -1.0371 -3.0173
   47DOPE  H15S 6006   4.268   1.487  14.320 -1.4454  0.7413  1.4456
   47DOPE  C216 6007   4.362   1.464  14.521 -0.2671  0.0013 -0.1029
   47DOPE  H16R 6008   4.452   1.411  14.559 -0.2828 -0.0257 -0.1032
   47DOPE  H16S 6009   4.274   1.426  14.577  0.8042  0.9648  2.3364
   47DOPE  C217 6010   4.390   1.614  14.533  0.2130  0.4414  0.4527
   47DOPE  H17R 6011   4.300   1.668  14.495  1.5140  1.7442 -0.8671
   47DOPE  H17S 6012   4.474   1.643  14.467 -0.6010  2.7146  0.3202
   47DOPE  C218 6013   4.404   1.667  14.669  0.3447  0.0777 -0.3710
   47DOPE  H18R 6014   4.305   1.670  14.719 -0.4500  3.2733 -1.8764
   47DOPE  H18S 6015   4.442   1.771  14.668 -0.6823  0.4661 -0.3161
   47DOPE  H18T 6016   4.474   1.607  14.732 -0.0380 -0.6888 -0.6655
   47DOPE   C33 6017   4.620   1.599  13.278 -0.3077 -0.6958  0.4032
   47DOPE   H3X 6018   4.512   1.592  13.254 -0.5218 -0.8748  1.3890
   47DOPE   H3Y 6019   4.664   1.692  13.236 -1.3003  0.6047  2.1159
   47DOPE   C34 6020   4.619   1.603  13.435  0.0935 -0.2313  0.4621
   47DOPE   H4X 6021   4.582   1.512  13.488 -2.6630  1.3199  1.3585
   47DOPE   H4Y 6022   4.723   1.621  13.470  0.7293  1.7567 -2.1636
   47DOPE   C35 6023   4.538   1.727  13.490  0.3785 -0.0529  0.0834
   47DOPE   H5X 6024   4.431   1.702  13.471 -0.0395  2.2922 -1.0807
   47DOPE   H5Y 6025   4.568   1.815  13.429  1.1245  0.6858  1.4681
   47DOPE   C36 6026   4.556   1.754  13.639 -0.0812 -0.2195  0.5035
   47DOPE   H6X 6027   4.479   1.824  13.678  0.4732 -0.0943  1.3897
   47DOPE   H6Y 6028   4.655   1.802  13.653 -0.8174  2.0468 -1.4178
   47DOPE   C37 6029   4.529   1.641  13.730 -0.1926  0.7806  0.2736
   47DOPE   H7X 6030   4.431   1.595  13.704  0.1363 -0.3732  0.9733
   47DOPE   H7Y 6031   4.593   1.553  13.709  0.7671  2.1165 -2.9873
   47DOPE   C38 6032   4.521   1.691  13.873  0.1464  0.0693 -0.0322
   47DOPE   H8X 6033   4.477   1.606  13.929 -0.0331 -0.2091 -0.5858
   47DOPE   H8Y 6034   4.451   1.777  13.871  0.0613  0.1027 -3.8121
   47DOPE   C39 6035   4.652   1.726  13.943 -0.3383  0.0577  0.1275
   47DOPE   H9X 6036   4.739   1.742  13.878  0.0394  2.5872  1.1413
   47DOPE  C310 6037   4.673   1.759  14.073 -0.4861 -0.0089 -0.1617
   47DOPE  H10X 6038   4.771   1.790  14.114 -0.8574 -0.5319  1.1569
   47DOPE  C311 6039   4.575   1.758  14.182 -0.3382 -0.0239  0.0030
   47DOPE  H11X 6040   4.481   1.713  14.144 -0.1189  0.5042 -1.1941
   47DOPE  H11Y 6041   4.613   1.695  14.266 -1.2493 -2.2861 -1.1770
   47DOPE  C312 6042   4.557   1.900  14.235 -0.4285 -0.2758 -0.4332
   47DOPE  H12X 6043   4.485   1.897  14.320  1.5221 -0.6180  1.2738
   47DOPE  H12Y 6044   4.511   1.960  14.154  0.1768  0.0052 -0.5749
   47DOPE  C313 6045   4.680   1.975  14.295 -0.0360 -0.3151 -0.1564
   47DOPE  H13X 6046   4.693   1.928  14.395 -1.3413 -0.2084  0.0840
   47DOPE  H13Y 6047   4.770   1.972  14.230  0.2499  2.1680  0.0496
   47DOPE  C314 6048   4.664   2.126  14.332 -0.9834 -0.0406  0.4423
   47DOPE  H14X 6049   4.636   2.167  14.233  0.8928  0.4754  0.0947
   47DOPE  H14Y 6050   4.761   2.169  14.366 -1.1782  0.2759  0.6009
   47DOPE  C315 6051   4.562   2.136  14.440  0.2927 -0.2525 -0.3988
   47DOPE  H15X 6052   4.603   2.114  14.541  0.9142  1.1640 -0.3133
   47DOPE  H15Y 6053   4.477   2.067  14.420  0.5691 -0.8033  0.3229
   47DOPE  C316 6054   4.522   2.287  14.443 -0.1428  0.5848  0.0694
   47DOPE  H16X 6055   4.474   2.305  14.344  0.7509 -1.0945 -0.7015
   47DOPE  H16Y 6056   4.610   2.353  14.464 -2.0027  2.6468  1.9179
   47DOPE  C317 6057   4.419   2.315  14.550 -0.3357 -0.0454 -0.0999
   47DOPE  H17X 6058   4.374   2.413  14.524  0.5742  0.9598  1.8998
   47DOPE  H17Y 6059   4.333   2.244  14.546 -0.0750 -0.3953  0.4761
   47DOPE  C318 6060   4.478   2.319  14.692  0.5034  0.4398  0.1280
   47DOPE  H18X 6061   4.569   2.382  14.696  0.8971  0.0039 -1.2718
   47DOPE  H18Y 6062   4.404   2.353  14.768  1.9714  0.7972  1.4392
   47DOPE  H18Z 6063   4.507   2.215  14.719 -1.1573 -0.2936 -0.7629
   48DOPE     N 6064   2.396   4.324  12.873 -0.7769 -0.2254 -0.2733
   48DOPE   HN1 6065   2.395   4.220  12.882 -1.2524 -0.1363  0.9145
   48DOPE   HN2 6066   2.305   4.358  12.837 -0.1161  0.2827 -1.5023
   48DOPE   HN3 6067   2.473   4.367  12.818  1.4993 -2.8879  0.5775
   48DOPE   C12 6068   2.421   4.373  13.014  0.8082 -0.5263  0.3637
   48DOPE  H12A 6069   2.516   4.330  13.053  0.1960  0.7220  3.4663
   48DOPE  H12B 6070   2.334   4.343  13.077 -0.2910  0.8983 -0.4284
   48DOPE   C11 6071   2.441   4.527  13.017  0.1927  0.3593  0.4795
   48DOPE  H11A 6072   2.541   4.556  12.980  0.1774 -1.3879 -1.1078
   48DOPE  H11B 6073   2.449   4.557  13.124 -0.1804  4.5564 -0.5236
   48DOPE     P 6074   2.207   4.648  13.023 -0.3172 -0.1832 -0.0615
   48DOPE   O13 6075   2.098   4.671  12.927 -0.1517 -0.0820 -0.5833
   48DOPE   O14 6076   2.248   4.770  13.104 -0.3625  0.0568 -0.1314
   48DOPE   O11 6077   2.160   4.536  13.132  0.3343  0.2418 -0.4886
   48DOPE   O12 6078   2.335   4.589  12.948 -0.4160  0.4454 -0.0759
   48DOPE    C1 6079   2.025   4.482  13.126  0.4487  0.7700  0.8778
   48DOPE    HA 6080   2.022   4.379  13.169  1.0984  0.2388 -0.3118
   48DOPE    HB 6081   1.988   4.473  13.021 -0.4355  0.4986  1.2012
   48DOPE    C2 6082   1.916   4.567  13.203 -0.3872 -0.1246  0.0209
   48DOPE    HS 6083   1.914   4.664  13.149  1.6743 -0.3947 -0.6181
   48DOPE   O21 6084   1.946   4.568  13.346  0.0455 -0.1536 -0.4768
   48DOPE   C21 6085   1.901   4.676  13.411  0.0230 -0.3983  0.1751
   48DOPE   O22 6086   1.840   4.767  13.353 -0.0122  0.0073 -0.2453
   48DOPE   C22 6087   1.921   4.652  13.559  0.0607 -0.0726  0.0768
   48DOPE   H2R 6088   2.031   4.634  13.568 -0.4630 -2.9323  2.1124
   48DOPE   H2S 6089   1.869   4.560  13.592  0.4691 -1.3865 -2.6530
   48DOPE    C3 6090   1.781   4.503  13.181  0.2167 -0.2295  0.2174
   48DOPE    HX 6091   1.766   4.508  13.071 -0.8368 -1.3623  0.2874
   48DOPE    HY 6092   1.696   4.558  13.226 -0.9739 -2.4675  0.8467
   48DOPE   O31 6093   1.776   4.367  13.218  0.5849  0.5248  0.1587
   48DOPE   C31 6094   1.744   4.344  13.348  0.3989 -0.3109 -0.3911
   48DOPE   O32 6095   1.703   4.430  13.420 -0.1733  0.1005 -0.1975
   48DOPE   C32 6096   1.770   4.204  13.378 -0.4539  0.2024  0.1983
   48DOPE   H2X 6097   1.768   4.142  13.286 -1.4423  3.4432 -2.1290
   48DOPE   H2Y 6098   1.872   4.202  13.422 -0.0247 -0.6721 -0.8017
   48DOPE   C23 6099   1.880   4.775  13.645 -0.3500  0.6739  0.0512
   48DOPE   H3R 6100   1.773   4.803  13.632 -0.3760  0.5451 -0.0214
   48DOPE   H3S 6101   1.939   4.862  13.609  1.2518 -0.3470  0.0818
   48DOPE   C24 6102   1.911   4.732  13.790  0.5299  0.7865  0.1998
   48DOPE   H4R 6103   2.016   4.696  13.802  0.2273 -0.0582  0.3414
   48DOPE   H4S 6104   1.834   4.655  13.809  1.3024 -0.2094 -0.5903
   48DOPE   C25 6105   1.883   4.836  13.899  0.6194  0.5630 -0.3049
   48DOPE   H5R 6106   1.781   4.877  13.884  0.0457 -0.9803 -0.7720
   48DOPE   H5S 6107   1.961   4.916  13.889  1.4102  0.3558  2.9045
   48DOPE   C26 6108   1.892   4.767  14.037 -0.0487 -0.3796  0.4487
   48DOPE   H6R 6109   1.978   4.697  14.024  0.1075 -0.0787 -0.1678
   48DOPE   H6S 6110   1.804   4.701  14.053 -1.1458  1.1905  1.1333
   48DOPE   C27 6111   1.922   4.870  14.148  0.0475 -0.3397  0.6683
   48DOPE   H7R 6112   1.833   4.936  14.136  0.0918 -0.6523 -2.0779
   48DOPE   H7S 6113   2.018   4.920  14.124  1.6259 -3.6771 -0.6013
   48DOPE   C28 6114   1.932   4.798  14.276 -0.4495 -0.6673  0.4108
   48DOPE   H8R 6115   2.012   4.727  14.246 -1.4193 -1.6848  0.1714
   48DOPE   H8S 6116   1.838   4.751  14.314 -1.4369  0.9222 -0.0039
   48DOPE   C29 6117   1.987   4.900  14.375  0.4743 -0.7690  0.2002
   48DOPE   H9R 6118   1.976   5.005  14.343  0.9665 -0.4376  1.0774
   48DOPE  C210 6119   2.055   4.886  14.490 -0.1722  0.4357  0.0680
   48DOPE  H10R 6120   2.095   4.972  14.546 -2.1430  0.8434  0.9471
   48DOPE  C211 6121   2.079   4.751  14.549  0.2096 -0.4061 -1.1002
   48DOPE  H11R 6122   2.178   4.738  14.598 -0.2719 -1.2907 -0.3157
   48DOPE  H11S 6123   2.088   4.674  14.469  0.6958 -1.0196 -0.4654
   48DOPE  C212 6124   1.970   4.700  14.641 -0.2960 -0.0541 -0.4131
   48DOPE  H12R 6125   2.003   4.600  14.675 -2.5568 -0.3817  0.9831
   48DOPE  H12S 6126   1.874   4.694  14.586 -1.1468  0.3218  0.9966
   48DOPE  C213 6127   1.952   4.784  14.769 -0.0254 -0.1203 -0.3792
   48DOPE  H13R 6128   1.892   4.719  14.836 -1.1966  0.8353 -0.4564
   48DOPE  H13S 6129   1.889   4.873  14.745  0.5827  0.2902 -0.4717
   48DOPE  C214 6130   2.078   4.810  14.854  0.2081  0.0563 -0.4560
   48DOPE  H14R 6131   2.141   4.887  14.805  0.0252 -1.0377 -2.5164
   48DOPE  H14S 6132   2.129   4.712  14.864 -0.5378 -0.3292 -0.3408
   48DOPE  C215 6133   2.041   4.857  14.999 -0.6876 -0.0085  0.8091
   48DOPE  H15R 6134   1.981   4.782  15.055 -3.9001  0.8437 -1.2311
   48DOPE  H15S 6135   1.985   4.952  14.992  0.7128  0.7697 -0.4775
   48DOPE  C216 6136   2.169   4.879  15.074 -0.1731 -0.6578 -0.1483
   48DOPE  H16R 6137   2.224   4.965  15.029  0.1409  0.3155  1.9763
   48DOPE  H16S 6138   2.228   4.789  15.047 -1.9701 -2.1941  0.9113
   48DOPE  C217 6139   2.158   4.906  15.224  0.0212 -0.5883 -0.3314
   48DOPE  H17R 6140   2.249   4.889  15.286 -0.2401 -0.2915  0.1395
   48DOPE  H17S 6141   2.086   4.837  15.274  0.5756 -0.1225  1.1755
   48DOPE  C218 6142   2.109   5.051  15.246  0.2026 -0.9041 -0.3402
   48DOPE  H18R 6143   2.004   5.066  15.213  0.2142  2.9555  0.8937
   48DOPE  H18S 6144   2.169   5.124  15.187  1.7924 -1.5566  0.4004
   48DOPE  H18T 6145   2.113   5.082  15.352  2.1003 -1.3058 -0.2603
   48DOPE   C33 6146   1.657   4.144  13.467 -0.3006 -0.8170 -0.3656
   48DOPE   H3X 6147   1.659   4.033  13.471  0.4174 -0.8147 -0.6287
   48DOPE   H3Y 6148   1.553   4.178  13.448 -0.0524  1.8128  2.2875
   48DOPE   C34 6149   1.680   4.178  13.614 -0.7641  0.6409  0.0493
   48DOPE   H4X 6150   1.777   4.139  13.651 -2.2606 -0.7839  2.8280
   48DOPE   H4Y 6151   1.690   4.288  13.625 -0.0209  0.4560  1.4611
   48DOPE   C35 6152   1.571   4.137  13.716 -0.4102 -0.0334  0.0741
   48DOPE   H5X 6153   1.617   4.077  13.797 -0.6271 -0.6548 -0.2536
   48DOPE   H5Y 6154   1.497   4.075  13.661 -1.8743  0.1647  1.7546
   48DOPE   C36 6155   1.490   4.263  13.772  1.0808  0.8367  0.0439
   48DOPE   H6X 6156   1.453   4.306  13.677 -1.3134 -0.3694  0.3414
   48DOPE   H6Y 6157   1.552   4.338  13.825  2.4723  0.8141 -1.4961
   48DOPE   C37 6158   1.366   4.238  13.862  0.1233  0.6439  0.4681
   48DOPE   H7X 6159   1.292   4.320  13.850  0.3646  0.5363 -2.6358
   48DOPE   H7Y 6160   1.309   4.155  13.815  1.9561 -0.4270  0.0358
   48DOPE   C38 6161   1.401   4.217  14.007 -0.2909 -0.5941  0.1536
   48DOPE   H8X 6162   1.441   4.319  14.027 -0.7312  0.3218 -3.0621
   48DOPE   H8Y 6163   1.484   4.143  14.011  0.7785  0.3639 -2.3003
   48DOPE   C39 6164   1.284   4.168  14.087  0.7205  0.1464 -0.3748
   48DOPE   H9X 6165   1.229   4.078  14.057  1.3404 -0.7519  1.0607
   48DOPE  C310 6166   1.222   4.231  14.187 -0.4431 -0.3727 -0.1499
   48DOPE  H10X 6167   1.128   4.186  14.221  0.2269 -0.4202  1.7045
   48DOPE  C311 6168   1.264   4.363  14.248 -0.0490  0.0624  0.2465
   48DOPE  H11X 6169   1.353   4.406  14.197  0.8934  0.5464  2.2020
   48DOPE  H11Y 6170   1.184   4.437  14.224  0.6814  0.0646 -2.6088
   48DOPE  C312 6171   1.281   4.363  14.403  0.2163  0.6396 -0.5974
   48DOPE  H12X 6172   1.200   4.300  14.447  3.1961 -2.3301  1.0975
   48DOPE  H12Y 6173   1.264   4.464  14.446 -2.2004 -0.3060  0.9121
   48DOPE  C313 6174   1.418   4.325  14.458  0.0637 -0.6556 -0.0613
   48DOPE  H13X 6175   1.454   4.229  14.414  0.3885 -0.8388  0.5843
   48DOPE  H13Y 6176   1.472   4.419  14.434 -1.6932  0.7690  1.2674
   48DOPE  C314 6177   1.411   4.312  14.611  0.9080 -0.0257  0.3181
   48DOPE  H14X 6178   1.384   4.207  14.635  1.7965 -0.0335  1.3874
   48DOPE  H14Y 6179   1.332   4.380  14.649  0.8828 -0.4463  1.0468
   48DOPE  C315 6180   1.530   4.351  14.693 -0.6479  0.1496 -0.0518
   48DOPE  H15X 6181   1.550   4.460  14.691 -0.4006  0.1025 -1.8412
   48DOPE  H15Y 6182   1.614   4.294  14.647  1.0194  1.8635  0.7130
   48DOPE  C316 6183   1.518   4.305  14.839 -0.3052 -0.3206 -0.3176
   48DOPE  H16X 6184   1.609   4.294  14.901 -1.6183  1.3976  2.1339
   48DOPE  H16Y 6185   1.479   4.201  14.831  1.1732 -0.8237 -1.4315
   48DOPE  C317 6186   1.426   4.395  14.927  0.0023  0.0676  0.7258
   48DOPE  H17X 6187   1.459   4.501  14.928 -0.3238  0.1718  1.9282
   48DOPE  H17Y 6188   1.322   4.405  14.892  0.0303 -2.1637 -0.1189
   48DOPE  C318 6189   1.414   4.350  15.069 -0.0501  0.1223 -0.7559
   48DOPE  H18X 6190   1.346   4.412  15.131 -0.9801 -0.7599 -0.8762
   48DOPE  H18Y 6191   1.370   4.249  15.082  1.8042 -0.6861 -0.3896
   48DOPE  H18Z 6192   1.512   4.358  15.121 -0.2722 -0.5734 -0.2263
   49DOPE     N 6193   4.731   2.664  12.424  0.3446 -0.2066 -0.7186
   49DOPE   HN1 6194   4.635   2.632  12.401 -0.3931 -0.0069  1.8548
   49DOPE   HN2 6195   4.791   2.678  12.340 -1.4042  1.3153 -1.7849
   49DOPE   HN3 6196   4.778   2.581  12.465 -0.0559  0.2316  0.6625
   49DOPE   C12 6197   4.741   2.777  12.522  0.5816 -0.4890 -0.1849
   49DOPE  H12A 6198   4.727   2.870  12.463 -1.4985  0.0309  1.0336
   49DOPE  H12B 6199   4.846   2.789  12.557  0.2529  0.6840  0.4426
   49DOPE   C11 6200   4.638   2.770  12.636  0.2573 -0.2730  0.3128
   49DOPE  H11A 6201   4.655   2.853  12.708  0.9357 -0.2287  0.1126
   49DOPE  H11B 6202   4.652   2.682  12.702 -0.9078  0.0885  1.0756
   49DOPE     P 6203   4.414   2.874  12.560 -0.2085 -0.0614  0.3013
   49DOPE   O13 6204   4.310   2.840  12.465 -0.1309 -0.8942 -0.4892
   49DOPE   O14 6205   4.489   3.000  12.526  0.0508  0.1930 -0.4873
   49DOPE   O11 6206   4.345   2.898  12.693  0.2949  0.2297 -0.1111
   49DOPE   O12 6207   4.503   2.757  12.582 -0.4065 -0.1843  0.6487
   49DOPE    C1 6208   4.270   2.785  12.743  0.6603 -0.0086 -0.1558
   49DOPE    HA 6209   4.281   2.686  12.693  0.5068  0.2867 -0.7769
   49DOPE    HB 6210   4.161   2.802  12.729  0.1923 -2.1772  0.5061
   49DOPE    C2 6211   4.283   2.776  12.901 -0.2574  0.2252 -0.9603
   49DOPE    HS 6212   4.211   2.697  12.930 -0.3581  0.0759 -1.6119
   49DOPE   O21 6213   4.241   2.902  12.950  0.3707 -0.2140 -0.2690
   49DOPE   C21 6214   4.188   2.899  13.078 -0.0863  0.4566  0.4697
   49DOPE   O22 6215   4.174   2.796  13.141  0.0385 -0.1961 -0.0201
   49DOPE   C22 6216   4.159   3.042  13.126  0.3580  0.5687  0.2341
   49DOPE   H2R 6217   4.112   3.094  13.039  0.5620 -0.6541 -0.6237
   49DOPE   H2S 6218   4.254   3.096  13.143  0.1603  0.7917  0.6340
   49DOPE    C3 6219   4.421   2.727  12.951 -0.2447 -0.9268  0.0598
   49DOPE    HX 6220   4.482   2.819  12.945  1.2947 -1.9212 -0.3248
   49DOPE    HY 6221   4.458   2.655  12.874 -0.4672 -1.6575  0.6219
   49DOPE   O31 6222   4.411   2.680  13.082  0.1449 -0.2702 -0.3721
   49DOPE   C31 6223   4.377   2.552  13.083  0.0356 -0.2348  0.0253
   49DOPE   O32 6224   4.351   2.483  12.984 -0.9417  0.0781 -0.8805
   49DOPE   C32 6225   4.393   2.496  13.227  0.0150  0.8567 -0.3039
   49DOPE   H2X 6226   4.497   2.507  13.264  0.1775 -0.5653 -0.3023
   49DOPE   H2Y 6227   4.325   2.551  13.295  0.8826 -0.5316  1.7601
   49DOPE   C23 6228   4.069   3.062  13.247  0.3563  0.1253 -0.4481
   49DOPE   H3R 6229   3.976   3.001  13.250  0.2955  0.1613 -1.3929
   49DOPE   H3S 6230   4.037   3.165  13.272  0.5369 -0.4838  2.7219
   49DOPE   C24 6231   4.141   3.025  13.386  0.5468 -0.4182 -0.0985
   49DOPE   H4R 6232   4.241   3.074  13.385 -0.4717  1.8120  0.0103
   49DOPE   H4S 6233   4.153   2.915  13.388  0.0087 -0.4767  0.2432
   49DOPE   C25 6234   4.066   3.071  13.515 -0.4990  0.3880  0.1423
   49DOPE   H5R 6235   3.975   3.007  13.513  1.4532 -2.5607 -0.7259
   49DOPE   H5S 6236   4.044   3.179  13.498  0.4563  0.4393 -0.8958
   49DOPE   C26 6237   4.154   3.035  13.638  0.0501  0.1269  0.5988
   49DOPE   H6R 6238   4.258   3.072  13.630  0.5000 -1.1981  0.0139
   49DOPE   H6S 6239   4.135   2.927  13.619  1.0744  0.2875 -1.6613
   49DOPE   C27 6240   4.089   3.092  13.773  0.4159 -0.2809  0.5779
   49DOPE   H7R 6241   3.980   3.069  13.771  0.3152  0.2038 -1.3167
   49DOPE   H7S 6242   4.112   3.201  13.778 -1.4495  0.1398  1.1938
   49DOPE   C28 6243   4.145   3.033  13.904 -0.1596  0.1931 -0.0280
   49DOPE   H8R 6244   4.254   3.027  13.887  0.0527  0.8963  0.9790
   49DOPE   H8S 6245   4.115   2.926  13.902  2.6036 -0.6467 -1.5976
   49DOPE   C29 6246   4.101   3.106  14.024 -0.3735 -0.2155  0.5230
   49DOPE   H9R 6247   4.098   3.214  14.007  0.9625 -0.1333  0.7032
   49DOPE  C210 6248   4.075   3.048  14.144 -0.1071 -0.1301 -0.0711
   49DOPE  H10R 6249   4.041   3.114  14.225  1.4037 -1.2648  1.5307
   49DOPE  C211 6250   4.085   2.909  14.203 -0.0070  0.8377  0.5692
   49DOPE  H11R 6251   4.141   2.851  14.127 -1.5426  2.7566 -2.1770
   49DOPE  H11S 6252   3.982   2.868  14.198 -0.2000  1.4412 -2.7800
   49DOPE  C212 6253   4.171   2.902  14.335 -0.4237 -0.5614 -0.2018
   49DOPE  H12R 6254   4.271   2.947  14.316 -1.5227  2.1260 -0.1399
   49DOPE  H12S 6255   4.192   2.795  14.356 -2.5365 -0.6199  2.0832
   49DOPE  C213 6256   4.102   2.971  14.456 -0.0911  0.1732  0.8028
   49DOPE  H13R 6257   3.992   2.962  14.455  0.0675 -2.4300  1.0226
   49DOPE  H13S 6258   4.132   3.078  14.457  0.2378  0.0884  2.3442
   49DOPE  C214 6259   4.153   2.908  14.588  0.1025  0.0851 -0.9183
   49DOPE  H14R 6260   4.263   2.890  14.587  0.4616  0.9732  3.2541
   49DOPE  H14S 6261   4.106   2.808  14.593  0.2370  0.0841  0.8339
   49DOPE  C215 6262   4.127   3.000  14.712 -0.4544 -0.6084  0.2650
   49DOPE  H15R 6263   4.019   3.018  14.734  0.2720  1.2679  2.7482
   49DOPE  H15S 6264   4.175   3.096  14.682 -0.1343 -1.3367 -1.7295
   49DOPE  C216 6265   4.214   2.947  14.831 -0.7140  0.1779  0.1120
   49DOPE  H16R 6266   4.223   3.024  14.910 -1.2060 -0.3976  0.7457
   49DOPE  H16S 6267   4.318   2.935  14.794 -0.1072 -0.5594  1.9450
   49DOPE  C217 6268   4.170   2.814  14.899 -0.1805  0.4370 -0.5573
   49DOPE  H17R 6269   4.191   2.741  14.818 -0.4046  1.6217 -1.7151
   49DOPE  H17S 6270   4.060   2.813  14.914  0.0937  1.2303  1.8504
   49DOPE  C218 6271   4.245   2.792  15.029 -0.1095  0.1941  0.1398
   49DOPE  H18R 6272   4.352   2.766  15.009  0.0194 -0.4309  1.5291
   49DOPE  H18S 6273   4.205   2.705  15.085  2.0373 -0.7127  0.3782
   49DOPE  H18T 6274   4.238   2.873  15.105 -1.4254 -0.3512  0.6262
   49DOPE   C33 6275   4.356   2.343  13.225  0.5724 -0.5445 -0.2152
   49DOPE   H3X 6276   4.420   2.286  13.154 -0.1150 -3.3931  1.2781
   49DOPE   H3Y 6277   4.254   2.319  13.187  0.4327  1.3782 -1.1355
   49DOPE   C34 6278   4.388   2.263  13.350  0.3536  0.1422 -0.3238
   49DOPE   H4X 6279   4.334   2.166  13.344 -0.1697  0.1533  2.4946
   49DOPE   H4Y 6280   4.496   2.243  13.363  0.5170  0.7773 -0.7076
   49DOPE   C35 6281   4.338   2.319  13.486  0.1399 -0.0865  0.3720
   49DOPE   H5X 6282   4.228   2.333  13.494  0.1681  0.1155  0.4069
   49DOPE   H5Y 6283   4.389   2.416  13.505 -1.4340  0.2095  3.7229
   49DOPE   C36 6284   4.385   2.229  13.605  0.5915 -0.0340  1.0698
   49DOPE   H6X 6285   4.493   2.204  13.595  0.6198  0.5618 -0.2905
   49DOPE   H6Y 6286   4.318   2.140  13.602  1.6619 -0.8376 -1.2019
   49DOPE   C37 6287   4.368   2.294  13.738 -0.5533  0.1357 -0.1397
   49DOPE   H7X 6288   4.441   2.377  13.740 -1.6837  1.3003 -2.4477
   49DOPE   H7Y 6289   4.265   2.331  13.754 -1.2489 -2.3562  1.9377
   49DOPE   C38 6290   4.405   2.199  13.858 -0.4047  0.0322 -0.5945
   49DOPE   H8X 6291   4.405   2.255  13.954 -0.5993 -1.0798  0.0706
   49DOPE   H8Y 6292   4.511   2.168  13.854 -0.2980  0.4741 -1.9801
   49DOPE   C39 6293   4.307   2.087  13.855  0.7925  0.2693  0.4836
   49DOPE   H9X 6294   4.314   2.022  13.767 -1.7570  0.0591  0.3660
   49DOPE  C310 6295   4.215   2.046  13.942  0.2556 -0.2649  0.2445
   49DOPE  H10X 6296   4.148   1.965  13.910 -0.9141  2.2399 -4.5785
   49DOPE  C311 6297   4.193   2.107  14.079 -0.6005  0.6474 -0.5360
   49DOPE  H11X 6298   4.274   2.177  14.108 -0.6028  0.6003 -0.4157
   49DOPE  H11Y 6299   4.096   2.162  14.083  0.1546  1.9677  0.0362
   49DOPE  C312 6300   4.188   1.988  14.180  0.0249 -0.4685  0.1565
   49DOPE  H12X 6301   4.292   1.952  14.197  0.6260  1.4665  0.9039
   49DOPE  H12Y 6302   4.123   1.912  14.133 -0.9754  1.2004 -1.2633
   49DOPE  C313 6303   4.126   2.035  14.310 -0.2916  0.1042 -0.2059
   49DOPE  H13X 6304   4.185   2.117  14.357  0.4317 -2.3862  3.6357
   49DOPE  H13Y 6305   4.021   2.072  14.299  0.3002  1.6387 -1.1055
   49DOPE  C314 6306   4.135   1.928  14.424  0.4147 -0.2596  0.5353
   49DOPE  H14X 6307   4.235   1.880  14.419  0.2139 -0.5734 -0.6643
   49DOPE  H14Y 6308   4.064   1.848  14.396  1.3397 -0.2322 -2.0961
   49DOPE  C315 6309   4.105   2.002  14.557 -0.1380  0.0184 -0.3609
   49DOPE  H15X 6310   4.004   2.048  14.553 -0.1705 -0.1041 -1.5089
   49DOPE  H15Y 6311   4.176   2.086  14.572 -0.6293  0.0500  2.0402
   49DOPE  C316 6312   4.127   1.906  14.669 -0.0996  0.1376  0.3137
   49DOPE  H16X 6313   4.237   1.904  14.688  0.8240 -1.1514 -4.0473
   49DOPE  H16Y 6314   4.096   1.802  14.647 -0.3034  0.4077 -0.7165
   49DOPE  C317 6315   4.042   1.948  14.788  0.0141  0.1378  0.2788
   49DOPE  H17X 6316   3.936   1.957  14.756 -1.2370 -0.0164  3.9342
   49DOPE  H17Y 6317   4.054   1.866  14.862  0.2601  0.9924  1.2100
   49DOPE  C318 6318   4.066   2.080  14.861 -0.5145  0.2172 -0.5253
   49DOPE  H18X 6319   4.171   2.078  14.897 -1.1311 -2.1128  1.4074
   49DOPE  H18Y 6320   4.051   2.169  14.797  0.6302  0.2772 -0.7364
   49DOPE  H18Z 6321   4.011   2.087  14.957  3.0623  3.1162  1.5848
   50DOPE     N 6322   3.686   6.612  12.677  0.1223  0.6555  0.3598
   50DOPE   HN1 6323   3.669   6.706  12.718  1.6517  1.1698 -0.1213
   50DOPE   HN2 6324   3.723   6.557  12.757 -0.5854 -2.1251 -1.1083
   50DOPE   HN3 6325   3.770   6.628  12.619 -1.0898 -0.6752 -1.9032
   50DOPE   C12 6326   3.557   6.566  12.606  0.5648  0.2367 -0.7973
   50DOPE  H12A 6327   3.595   6.477  12.551 -2.7364 -3.0513  1.7668
   50DOPE  H12B 6328   3.532   6.654  12.544  3.0797  1.7767  0.2049
   50DOPE   C11 6329   3.455   6.523  12.711 -0.0445  0.3046  0.1017
   50DOPE  H11A 6330   3.416   6.608  12.772  0.2021  0.5463 -0.0733
   50DOPE  H11B 6331   3.500   6.452  12.784  3.0543 -0.7493 -2.5793
   50DOPE     P 6332   3.200   6.481  12.675 -0.2934 -0.0427  0.2752
   50DOPE   O13 6333   3.122   6.372  12.622 -0.2750  0.5697 -0.2105
   50DOPE   O14 6334   3.162   6.614  12.623 -0.1924  0.1769 -0.2499
   50DOPE   O11 6335   3.189   6.490  12.835  0.1291 -0.3536  0.0155
   50DOPE   O12 6336   3.352   6.447  12.641 -0.4053 -0.3311 -0.1882
   50DOPE    C1 6337   3.051   6.497  12.877 -0.1677  0.0509 -0.5630
   50DOPE    HA 6338   3.046   6.445  12.975 -0.0621  3.9226  1.6966
   50DOPE    HB 6339   2.971   6.448  12.817 -1.8878 -0.1786  1.7476
   50DOPE    C2 6340   3.007   6.645  12.902  0.2729  0.0025 -0.2695
   50DOPE    HS 6341   2.994   6.686  12.799 -2.0944 -0.1656 -0.0997
   50DOPE   O21 6342   3.104   6.722  12.968  0.2987  0.1720  0.5184
   50DOPE   C21 6343   3.078   6.854  12.977 -0.2114  0.8988 -0.1355
   50DOPE   O22 6344   2.981   6.907  12.929 -0.7108 -0.6225  0.5434
   50DOPE   C22 6345   3.165   6.920  13.081  0.1688  0.3905 -0.3224
   50DOPE   H2R 6346   3.215   7.006  13.033  1.4729  0.0153  0.3188
   50DOPE   H2S 6347   3.247   6.851  13.109 -1.1922 -0.6194  1.4449
   50DOPE    C3 6348   2.861   6.653  12.971 -0.0072  0.3862 -0.1461
   50DOPE    HX 6349   2.808   6.561  12.938  1.6956 -0.0213 -2.0224
   50DOPE    HY 6350   2.818   6.744  12.924  1.0700  0.9889 -0.0036
   50DOPE   O31 6351   2.873   6.671  13.113  0.2614  0.6281 -0.1557
   50DOPE   C31 6352   2.888   6.570  13.194 -0.5162 -0.3776  0.0411
   50DOPE   O32 6353   2.895   6.451  13.156  0.6422 -0.0327  0.1404
   50DOPE   C32 6354   2.881   6.624  13.337 -0.3318 -0.0661 -0.1657
   50DOPE   H2X 6355   2.979   6.662  13.373  0.0798 -0.9249 -0.3516
   50DOPE   H2Y 6356   2.811   6.711  13.338 -1.7514 -1.1307 -1.2463
   50DOPE   C23 6357   3.079   6.967  13.206  0.1688 -0.1869  0.1874
   50DOPE   H3R 6358   3.002   6.896  13.243  0.6139 -0.1581  1.2070
   50DOPE   H3S 6359   3.033   7.063  13.175  0.8103  0.2482  0.5509
   50DOPE   C24 6360   3.178   6.987  13.330  0.2495  0.2729 -0.3794
   50DOPE   H4R 6361   3.266   7.044  13.294  0.0654  0.4403 -0.5684
   50DOPE   H4S 6362   3.226   6.891  13.362  2.3819  0.9071 -1.5128
   50DOPE   C25 6363   3.128   7.071  13.448 -0.3651 -0.0892  0.0819
   50DOPE   H5R 6364   3.055   7.014  13.509 -0.7187  1.2826  0.9967
   50DOPE   H5S 6365   3.072   7.158  13.407  0.1042  0.0163 -0.3535
   50DOPE   C26 6366   3.241   7.127  13.531  0.0943  0.1458  0.8015
   50DOPE   H6R 6367   3.294   7.198  13.464 -0.2215 -0.3539  0.0054
   50DOPE   H6S 6368   3.300   7.039  13.563  0.9985  0.7264  0.7653
   50DOPE   C27 6369   3.198   7.188  13.669 -0.2425 -0.3507  0.2468
   50DOPE   H7R 6370   3.127   7.273  13.653  1.1759  1.0389  1.0581
   50DOPE   H7S 6371   3.286   7.221  13.728  1.2078 -0.2650 -1.8580
   50DOPE   C28 6372   3.120   7.085  13.755 -0.6893 -1.2369  0.3477
   50DOPE   H8R 6373   3.199   7.008  13.766  1.2400  0.6674  0.6247
   50DOPE   H8S 6374   3.030   7.050  13.701 -0.7764 -1.0106  0.3474
   50DOPE   C29 6375   3.077   7.156  13.881  0.2572  0.4045  0.0766
   50DOPE   H9R 6376   2.994   7.228  13.874  1.8076  2.3053  0.4747
   50DOPE  C210 6377   3.128   7.140  14.001  0.3418  0.3578 -0.5871
   50DOPE  H10R 6378   3.082   7.176  14.094  2.1277 -1.9390  1.3450
   50DOPE  C211 6379   3.249   7.065  14.038 -0.1209 -0.3222  0.0527
   50DOPE  H11R 6380   3.336   7.135  14.038  0.2589 -0.7842  1.0035
   50DOPE  H11S 6381   3.275   6.983  13.969  0.0794 -0.1508 -0.0769
   50DOPE  C212 6382   3.236   6.997  14.177  0.0702  1.1772  0.4402
   50DOPE  H12R 6383   3.319   6.924  14.181 -0.0223  1.0770  0.5630
   50DOPE  H12S 6384   3.142   6.939  14.185  1.3391 -0.8066  1.7815
   50DOPE  C213 6385   3.256   7.098  14.300  0.5635  0.6260  0.2198
   50DOPE  H13R 6386   3.174   7.172  14.310 -0.4547 -0.5877  1.1261
   50DOPE  H13S 6387   3.353   7.152  14.289  1.2361 -0.4835  0.5080
   50DOPE  C214 6388   3.255   7.012  14.431 -0.5770 -0.0676  0.1747
   50DOPE  H14R 6389   3.303   6.913  14.414  1.5201  1.1155 -1.2892
   50DOPE  H14S 6390   3.149   6.994  14.461 -0.0406 -1.7137  1.1926
   50DOPE  C215 6391   3.327   7.084  14.551 -1.0832  0.2542 -0.3695
   50DOPE  H15R 6392   3.425   7.128  14.522 -0.9437  0.2275  0.0512
   50DOPE  H15S 6393   3.363   6.995  14.606 -1.0072  0.8344  0.5426
   50DOPE  C216 6394   3.243   7.170  14.638  0.2544  0.5673  0.1007
   50DOPE  H16R 6395   3.139   7.134  14.648  0.9012 -0.8860  2.6945
   50DOPE  H16S 6396   3.239   7.273  14.598 -0.2554  1.1479  1.5789
   50DOPE  C217 6397   3.272   7.178  14.790  0.2720 -0.0812  0.4070
   50DOPE  H17R 6398   3.382   7.193  14.803  0.6703 -1.5326 -0.9130
   50DOPE  H17S 6399   3.233   7.088  14.842  2.2185 -0.4702  1.2920
   50DOPE  C218 6400   3.206   7.303  14.848  0.0943 -0.6263  0.1626
   50DOPE  H18R 6401   3.234   7.403  14.808 -2.3284 -0.3793 -1.1159
   50DOPE  H18S 6402   3.221   7.284  14.957  0.3480 -1.1375  0.0406
   50DOPE  H18T 6403   3.096   7.311  14.831  0.0177 -0.1182  0.8092
   50DOPE   C33 6404   2.824   6.503  13.422 -0.3360 -0.0645 -1.0680
   50DOPE   H3X 6405   2.898   6.421  13.436 -0.0060  0.0147 -2.2201
   50DOPE   H3Y 6406   2.736   6.450  13.378 -1.2715 -1.2371  1.9422
   50DOPE   C34 6407   2.777   6.561  13.561 -0.7052  0.9548 -0.1367
   50DOPE   H4X 6408   2.712   6.650  13.544 -0.8918  0.7163 -0.6924
   50DOPE   H4Y 6409   2.719   6.490  13.624  1.9924 -0.6963  0.6458
   50DOPE   C35 6410   2.900   6.591  13.650  0.2089  0.2811 -0.1058
   50DOPE   H5X 6411   2.972   6.656  13.597 -0.0216  0.6236 -0.0047
   50DOPE   H5Y 6412   2.953   6.497  13.677  0.4607  1.4124  4.0080
   50DOPE   C36 6413   2.865   6.658  13.783 -0.2318 -0.6391  0.1237
   50DOPE   H6X 6414   2.779   6.616  13.840 -0.8568  1.5712  0.9181
   50DOPE   H6Y 6415   2.844   6.767  13.775  2.1593 -0.0994  0.5342
   50DOPE   C37 6416   2.991   6.663  13.874  0.1108  0.6141 -0.9118
   50DOPE   H7X 6417   2.997   6.568  13.932  3.1160  0.3293 -1.5378
   50DOPE   H7Y 6418   3.089   6.664  13.824  1.4388 -1.6439  1.3653
   50DOPE   C38 6419   2.993   6.780  13.965  0.0784 -0.3560 -0.5395
   50DOPE   H8X 6420   3.010   6.869  13.901  0.1723  0.3383  0.4458
   50DOPE   H8Y 6421   3.084   6.783  14.028  0.1921  4.1779 -0.6427
   50DOPE   C39 6422   2.872   6.780  14.060 -0.2575 -0.1803 -0.4597
   50DOPE   H9X 6423   2.774   6.808  14.019  0.3324 -0.6588 -2.2582
   50DOPE  C310 6424   2.889   6.723  14.182  0.3498 -0.6184  0.1434
   50DOPE  H10X 6425   2.805   6.728  14.252 -0.3799 -0.4140 -0.7300
   50DOPE  C311 6426   3.018   6.664  14.242 -0.3800  0.3098 -0.0457
   50DOPE  H11X 6427   3.014   6.553  14.237  1.0852 -0.1211  4.2543
   50DOPE  H11Y 6428   3.114   6.687  14.191  0.7012 -1.2686  1.1713
   50DOPE  C312 6429   3.024   6.708  14.391 -0.2799  0.1781 -0.0099
   50DOPE  H12X 6430   3.016   6.818  14.406  0.0071 -0.0727  2.2934
   50DOPE  H12Y 6431   3.130   6.696  14.423  0.1743  1.7314 -0.8058
   50DOPE  C313 6432   2.930   6.628  14.479 -0.1419 -0.1045 -0.0626
   50DOPE  H13X 6433   2.832   6.621  14.427 -0.5939 -0.7044  0.8290
   50DOPE  H13Y 6434   2.958   6.522  14.500 -2.3719 -0.7899 -0.2443
   50DOPE  C314 6435   2.910   6.701  14.612  0.1798 -0.4503 -0.0568
   50DOPE  H14X 6436   2.822   6.655  14.661  0.1848 -1.8606 -1.2821
   50DOPE  H14Y 6437   2.886   6.808  14.596  0.7249 -0.4939 -1.3114
   50DOPE  C315 6438   3.025   6.701  14.706 -0.2470 -0.6506 -0.6658
   50DOPE  H15X 6439   3.117   6.716  14.646  0.1466  1.6333  0.3977
   50DOPE  H15Y 6440   3.029   6.599  14.749 -1.6933 -0.5182 -0.1592
   50DOPE  C316 6441   3.023   6.804  14.812 -0.1740 -0.3796 -0.3388
   50DOPE  H16X 6442   2.933   6.784  14.874 -1.3481  0.4052 -1.7461
   50DOPE  H16Y 6443   3.010   6.906  14.771  2.6267 -0.1666 -0.9412
   50DOPE  C317 6444   3.146   6.818  14.904  0.5225  1.1626 -0.0336
   50DOPE  H17X 6445   3.240   6.807  14.845  0.3588  1.9172 -0.4454
   50DOPE  H17Y 6446   3.144   6.920  14.948  1.7244  1.6298 -1.0121
   50DOPE  C318 6447   3.163   6.713  15.013  0.7710  0.6605  0.7304
   50DOPE  H18X 6448   3.208   6.620  14.973  0.2536  0.7508 -0.1130
   50DOPE  H18Y 6449   3.241   6.745  15.084  2.1982  0.1700 -0.5524
   50DOPE  H18Z 6450   3.065   6.692  15.061 -0.1402  1.6330 -0.5871
   51DOPE     N 6451   5.572   2.005  12.724 -0.3834  0.2456 -0.3164
   51DOPE   HN1 6452   5.635   2.060  12.662  2.0572  1.0366  2.6320
   51DOPE   HN2 6453   5.628   1.989  12.810  0.7930 -0.5513 -1.2097
   51DOPE   HN3 6454   5.536   1.918  12.680 -1.0454  0.7735 -0.8323
   51DOPE   C12 6455   5.440   2.077  12.767 -0.4365  0.3407 -0.5081
   51DOPE  H12A 6456   5.428   2.167  12.703  1.0582 -0.7589 -2.4768
   51DOPE  H12B 6457   5.467   2.110  12.869  0.4155 -1.0367 -0.2593
   51DOPE   C11 6458   5.322   1.983  12.777  0.0769 -0.0446 -0.2298
   51DOPE  H11A 6459   5.305   1.954  12.671  2.1185 -1.1363 -0.2961
   51DOPE  H11B 6460   5.239   2.041  12.824  1.4015  1.3605  0.4500
   51DOPE     P 6461   5.272   1.746  12.859  0.2700 -0.3950  0.1193
   51DOPE   O13 6462   5.270   1.689  12.724 -0.5419 -0.1470  0.7801
   51DOPE   O14 6463   5.146   1.786  12.927  0.5889  0.0203 -0.1764
   51DOPE   O11 6464   5.354   1.651  12.958  0.6558 -0.1867 -0.9328
   51DOPE   O12 6465   5.371   1.870  12.855 -0.3066 -0.1343 -0.3499
   51DOPE    C1 6466   5.501   1.645  12.961  0.1938 -0.7798  0.2195
   51DOPE    HA 6467   5.543   1.730  12.905 -1.0589  0.3444  0.9086
   51DOPE    HB 6468   5.535   1.549  12.918  0.7693 -0.0501 -0.9843
   51DOPE    C2 6469   5.551   1.655  13.110 -0.2778  0.5357  0.8742
   51DOPE    HS 6470   5.658   1.684  13.104 -0.9553  2.8773 -2.8477
   51DOPE   O21 6471   5.534   1.535  13.172 -0.0346  0.3530 -1.2663
   51DOPE   C21 6472   5.618   1.434  13.154 -0.0282  0.9989  0.1803
   51DOPE   O22 6473   5.723   1.448  13.092 -0.2898 -0.2436 -0.4845
   51DOPE   C22 6474   5.565   1.311  13.216  0.2773 -0.2563  0.3810
   51DOPE   H2R 6475   5.638   1.231  13.190  0.4323 -0.0867  0.2931
   51DOPE   H2S 6476   5.463   1.298  13.172  0.3743 -2.2827  0.6488
   51DOPE    C3 6477   5.482   1.771  13.187 -0.3192  0.0199 -0.1299
   51DOPE    HX 6478   5.371   1.765  13.181 -0.4318  0.6985  1.0342
   51DOPE    HY 6479   5.504   1.866  13.133  0.2649  0.1186  0.2731
   51DOPE   O31 6480   5.524   1.790  13.325 -0.4474  0.3176  0.0565
   51DOPE   C31 6481   5.454   1.717  13.410 -0.0762  0.0595  0.1288
   51DOPE   O32 6482   5.343   1.669  13.384 -0.2853 -0.2109 -0.7044
   51DOPE   C32 6483   5.527   1.729  13.545 -0.4842  0.5470  0.5301
   51DOPE   H2X 6484   5.632   1.703  13.516 -0.6099  1.4441 -0.7912
   51DOPE   H2Y 6485   5.527   1.834  13.579  0.0063  0.4455  0.8551
   51DOPE   C23 6486   5.561   1.303  13.374  0.2557  0.2906  0.0577
   51DOPE   H3R 6487   5.515   1.397  13.411 -1.5901 -0.6053  0.1592
   51DOPE   H3S 6488   5.664   1.291  13.415  1.6067 -0.0004 -3.0996
   51DOPE   C24 6489   5.481   1.187  13.437  0.2313 -0.5931  0.2409
   51DOPE   H4R 6490   5.546   1.098  13.427  1.2162  0.1050  0.3061
   51DOPE   H4S 6491   5.395   1.168  13.368  2.0441 -2.1638 -1.7207
   51DOPE   C25 6492   5.444   1.214  13.584 -0.2770  0.5810 -0.2459
   51DOPE   H5R 6493   5.401   1.123  13.630  1.4873  1.0651  2.6322
   51DOPE   H5S 6494   5.364   1.289  13.600 -1.9512 -1.0625 -0.5971
   51DOPE   C26 6495   5.563   1.252  13.669 -0.3849  0.5594 -0.5170
   51DOPE   H6R 6496   5.537   1.271  13.776 -2.6901  0.2795 -0.9740
   51DOPE   H6S 6497   5.607   1.348  13.635  0.6273  0.2214 -0.1810
   51DOPE   C27 6498   5.676   1.144  13.677  0.5785  1.0836  0.2750
   51DOPE   H7R 6499   5.721   1.108  13.582  1.1029 -2.0309  1.5736
   51DOPE   H7S 6500   5.633   1.048  13.713  1.0937  0.0567 -1.7251
   51DOPE   C28 6501   5.795   1.170  13.772 -0.0451 -0.0838 -0.6255
   51DOPE   H8R 6502   5.858   1.079  13.778  0.5222  0.3460  0.2382
   51DOPE   H8S 6503   5.760   1.182  13.877 -0.2244  0.1042 -0.7048
   51DOPE   C29 6504   5.879   1.286  13.729  0.4558 -0.0028  0.1222
   51DOPE   H9R 6505   5.852   1.323  13.629 -1.5591  0.7320  0.8840
   51DOPE  C210 6506   5.958   1.355  13.812 -0.0923 -0.0070 -0.3862
   51DOPE  H10R 6507   6.023   1.437  13.777 -0.4732 -0.1721 -1.5261
   51DOPE  C211 6508   5.997   1.312  13.952 -0.2037 -0.2083 -0.8904
   51DOPE  H11R 6509   6.102   1.342  13.971 -0.4759 -0.4406  1.2349
   51DOPE  H11S 6510   5.994   1.202  13.962 -1.7944 -0.2307 -1.2492
   51DOPE  C212 6511   5.927   1.374  14.076  0.1627 -0.0167 -0.2915
   51DOPE  H12R 6512   5.818   1.357  14.069 -0.0524  0.1069  1.9440
   51DOPE  H12S 6513   5.936   1.485  14.080 -2.5597  0.2351  2.4985
   51DOPE  C213 6514   5.974   1.317  14.211  0.2637 -0.7356  0.0780
   51DOPE  H13R 6515   6.083   1.337  14.206  0.1096  1.2979  2.7457
   51DOPE  H13S 6516   5.960   1.207  14.211  1.2541 -0.8761 -0.6002
   51DOPE  C214 6517   5.916   1.375  14.336  0.2227 -0.6507  0.0546
   51DOPE  H14R 6518   5.810   1.342  14.331  0.6194 -1.7372 -2.6339
   51DOPE  H14S 6519   5.908   1.486  14.342 -0.1888 -0.7253  4.0102
   51DOPE  C215 6520   5.981   1.331  14.465 -0.1543 -0.8906 -0.9334
   51DOPE  H15R 6521   6.090   1.354  14.471 -0.5909  1.5443 -1.2673
   51DOPE  H15S 6522   5.982   1.221  14.473  0.6131 -0.9406 -1.5464
   51DOPE  C216 6523   5.923   1.386  14.591  0.2563  0.3898 -0.4407
   51DOPE  H16R 6524   5.823   1.342  14.607  0.4550 -0.1302 -0.6126
   51DOPE  H16S 6525   5.919   1.497  14.588  0.2080  0.3952 -0.1972
   51DOPE  C217 6526   5.995   1.338  14.719  0.3661 -0.0531 -0.0410
   51DOPE  H17R 6527   6.097   1.382  14.713 -0.3454  1.4379 -2.0875
   51DOPE  H17S 6528   5.991   1.228  14.705  1.4194  0.1288 -2.1233
   51DOPE  C218 6529   5.930   1.390  14.846  0.2282  0.6787 -0.1582
   51DOPE  H18R 6530   5.915   1.500  14.851  0.7058  0.7131  2.6043
   51DOPE  H18S 6531   5.981   1.355  14.939 -0.6812 -2.2842 -0.6692
   51DOPE  H18T 6532   5.823   1.362  14.850  0.5678 -0.6538  0.1541
   51DOPE   C33 6533   5.465   1.625  13.636  0.7860  0.0961 -0.3832
   51DOPE   H3X 6534   5.490   1.523  13.598 -1.0308  0.4611 -2.8083
   51DOPE   H3Y 6535   5.354   1.620  13.647  0.9167 -0.3268  0.9532
   51DOPE   C34 6536   5.518   1.623  13.778  0.0168 -0.3087  0.0329
   51DOPE   H4X 6537   5.477   1.711  13.832 -0.4872 -0.6634  0.2469
   51DOPE   H4Y 6538   5.492   1.534  13.840  1.7763  0.9848  2.8146
   51DOPE   C35 6539   5.664   1.655  13.792  0.3284 -0.3181 -0.3293
   51DOPE   H5X 6540   5.695   1.756  13.757  3.1071 -0.9870 -0.0110
   51DOPE   H5Y 6541   5.722   1.589  13.724 -0.6297 -1.2087 -0.3088
   51DOPE   C36 6542   5.708   1.651  13.941  0.1414  0.5762  0.0246
   51DOPE   H6X 6543   5.818   1.641  13.952 -0.0801 -2.3207  0.4123
   51DOPE   H6Y 6544   5.662   1.561  13.987  0.7928  1.2340  2.0796
   51DOPE   C37 6545   5.659   1.776  14.016 -0.0402 -0.1652 -0.0210
   51DOPE   H7X 6546   5.664   1.864  13.948 -0.5647 -0.1000  0.0169
   51DOPE   H7Y 6547   5.553   1.749  14.037  0.5221 -0.6011  2.4866
   51DOPE   C38 6548   5.721   1.811  14.151 -0.3479  0.6292 -0.4885
   51DOPE   H8X 6549   5.670   1.902  14.188 -0.4663  0.0347  0.8552
   51DOPE   H8Y 6550   5.825   1.843  14.131  0.3370 -0.7531  0.6911
   51DOPE   C39 6551   5.721   1.703  14.263 -0.0537 -0.7360 -0.3906
   51DOPE   H9X 6552   5.708   1.596  14.238  0.2097 -0.5758 -1.2425
   51DOPE  C310 6553   5.742   1.731  14.387 -0.0143  0.2043  0.5273
   51DOPE  H10X 6554   5.755   1.650  14.460  0.3439  0.0165  0.2559
   51DOPE  C311 6555   5.770   1.868  14.438  0.5447 -0.6112 -0.0302
   51DOPE  H11X 6556   5.836   1.930  14.373 -1.5938  1.8800 -0.0015
   51DOPE  H11Y 6557   5.678   1.929  14.444 -0.6045 -2.0080 -2.3462
   51DOPE  C312 6558   5.842   1.859  14.574 -0.2614 -0.6630  0.1707
   51DOPE  H12X 6559   5.863   1.960  14.615  1.0744 -1.7761  2.4142
   51DOPE  H12Y 6560   5.934   1.798  14.558  0.8348  0.8798  0.3689
   51DOPE  C313 6561   5.745   1.801  14.680 -1.1832 -0.1338 -0.2370
   51DOPE  H13X 6562   5.646   1.852  14.674 -1.3078 -0.3551 -0.0396
   51DOPE  H13Y 6563   5.737   1.695  14.649 -0.1807 -0.1994 -0.2810
   51DOPE  C314 6564   5.814   1.818  14.816  0.3017 -0.2541  0.0032
   51DOPE  H14X 6565   5.822   1.928  14.827  2.1969 -0.1024 -2.1876
   51DOPE  H14Y 6566   5.919   1.780  14.811  0.8141  1.0962  0.0836
   51DOPE  C315 6567   5.740   1.759  14.936  0.1410 -1.4238 -0.8595
   51DOPE  H15X 6568   5.684   1.667  14.909 -0.9358 -1.1394  0.3096
   51DOPE  H15Y 6569   5.660   1.833  14.958  1.1074 -0.9000  1.2095
   51DOPE  C316 6570   5.822   1.739  15.066  0.3855  0.4401  0.2888
   51DOPE  H16X 6571   5.906   1.809  15.087 -0.7433  1.9653 -0.1056
   51DOPE  H16Y 6572   5.860   1.635  15.064 -1.1456 -0.1217 -0.2177
   51DOPE  C317 6573   5.735   1.738  15.187  0.1590 -0.0545  0.1753
   51DOPE  H17X 6574   5.792   1.698  15.273 -2.3153 -3.7557  0.3308
   51DOPE  H17Y 6575   5.713   1.847  15.195 -1.8456 -0.4138 -0.0432
   51DOPE  C318 6576   5.604   1.655  15.175 -0.0449 -0.6851  0.3786
   51DOPE  H18X 6577   5.520   1.695  15.114  0.6306 -0.1143 -0.1993
   51DOPE  H18Y 6578   5.619   1.553  15.133 -2.2218 -0.0139 -2.2688
   51DOPE  H18Z 6579   5.569   1.639  15.279  0.1874 -0.4777  0.4885
   52DOPE     N 6580   3.608   0.603  13.055  0.0584  0.3244 -0.0576
   52DOPE   HN1 6581   3.697   0.582  13.105  0.6656  0.5748 -0.9914
   52DOPE   HN2 6582   3.589   0.705  13.055 -3.6002 -0.2000 -1.4850
   52DOPE   HN3 6583   3.532   0.548  13.099  0.3683  0.8462  1.1622
   52DOPE   C12 6584   3.635   0.571  12.909  0.1616  0.2833 -0.1867
   52DOPE  H12A 6585   3.728   0.627  12.887  0.5920  0.3222  1.5697
   52DOPE  H12B 6586   3.547   0.590  12.845  0.6475 -0.1291 -0.9853
   52DOPE   C11 6587   3.674   0.421  12.891  0.2200  0.0245  0.5105
   52DOPE  H11A 6588   3.775   0.400  12.932  0.6406  2.1267  0.6939
   52DOPE  H11B 6589   3.683   0.414  12.780  2.2250  0.6835  0.5721
   52DOPE     P 6590   3.512   0.208  12.875  0.0399 -0.1773 -0.2695
   52DOPE   O13 6591   3.622   0.138  12.798 -0.2454 -0.0170 -0.4546
   52DOPE   O14 6592   3.384   0.235  12.802 -0.0709 -0.2977 -0.0149
   52DOPE   O11 6593   3.478   0.121  12.997  0.0326  0.5891  0.4627
   52DOPE   O12 6594   3.573   0.338  12.937  0.3272  0.4740 -0.8456
   52DOPE    C1 6595   3.579   0.051  13.079  0.3999 -0.2553  0.2521
   52DOPE    HA 6596   3.679   0.068  13.034 -1.2951  1.8024 -3.1502
   52DOPE    HB 6597   3.562  -0.059  13.068  0.4908 -0.4128  1.5477
   52DOPE    C2 6598   3.576   0.102  13.225  0.0954  0.0336 -0.0480
   52DOPE    HS 6599   3.670   0.072  13.276  0.4960  0.1714 -0.6947
   52DOPE   O21 6600   3.461   0.052  13.296 -0.0666 -0.4301 -0.8150
   52DOPE   C21 6601   3.468  -0.076  13.337  0.6321 -0.0955 -0.6583
   52DOPE   O22 6602   3.561  -0.151  13.324  0.1172 -0.7001  0.0646
   52DOPE   C22 6603   3.334  -0.109  13.407 -0.3637  0.2239 -0.0697
   52DOPE   H2R 6604   3.327  -0.219  13.421  1.0240  0.1497  0.1042
   52DOPE   H2S 6605   3.252  -0.083  13.336 -0.1274  0.8104 -0.1259
   52DOPE    C3 6606   3.583   0.256  13.226 -0.0970  0.0164 -0.1366
   52DOPE    HX 6607   3.490   0.301  13.187  0.6606  0.6952 -1.1955
   52DOPE    HY 6608   3.670   0.285  13.163  0.6393 -1.6483  0.0401
   52DOPE   O31 6609   3.618   0.309  13.358  0.0150  0.5374 -0.5456
   52DOPE   C31 6610   3.586   0.432  13.382 -0.0905 -0.2889 -0.3793
   52DOPE   O32 6611   3.519   0.503  13.312 -0.4460 -0.2470 -0.3264
   52DOPE   C32 6612   3.651   0.478  13.509 -0.3457  0.2965  0.1814
   52DOPE   H2X 6613   3.761   0.469  13.495 -0.0244 -0.1035  2.4909
   52DOPE   H2Y 6614   3.619   0.583  13.530 -0.5921  0.4032 -0.6887
   52DOPE   C23 6615   3.320  -0.030  13.544 -0.2913  0.2868 -0.2250
   52DOPE   H3R 6616   3.212  -0.026  13.569 -0.2348 -0.6842  0.2111
   52DOPE   H3S 6617   3.360   0.074  13.543  0.6508 -0.0647 -0.7760
   52DOPE   C24 6618   3.393  -0.105  13.666  0.9011 -0.1038  0.4694
   52DOPE   H4R 6619   3.495  -0.133  13.633  1.3892  2.3675 -0.2915
   52DOPE   H4S 6620   3.348  -0.206  13.677 -0.1637  0.1468 -1.1138
   52DOPE   C25 6621   3.402  -0.015  13.786  0.8785 -0.3172  0.1047
   52DOPE   H5R 6622   3.300   0.010  13.822  0.3745 -1.5249 -0.4510
   52DOPE   H5S 6623   3.461   0.076  13.761  0.1265  0.5301  1.3069
   52DOPE   C26 6624   3.464  -0.092  13.908 -0.3000 -0.1044  0.0234
   52DOPE   H6R 6625   3.571  -0.111  13.885 -0.7269 -0.5396 -1.8254
   52DOPE   H6S 6626   3.411  -0.189  13.917 -0.1884 -0.2450 -0.7243
   52DOPE   C27 6627   3.446  -0.011  14.037 -0.1248 -0.3763 -0.1552
   52DOPE   H7R 6628   3.343   0.032  14.038  0.7206  1.8579 -1.3290
   52DOPE   H7S 6629   3.511   0.078  14.024  1.2913 -1.7327 -3.2069
   52DOPE   C28 6630   3.496  -0.075  14.169  0.3602 -0.4792 -0.0496
   52DOPE   H8R 6631   3.606  -0.081  14.156  0.1255  0.7657 -3.5811
   52DOPE   H8S 6632   3.451  -0.177  14.177  0.9842 -0.9306 -1.9067
   52DOPE   C29 6633   3.462   0.011  14.288  0.3008  0.2482 -0.5779
   52DOPE   H9R 6634   3.461   0.119  14.267  0.9717  0.6063  1.0691
   52DOPE  C210 6635   3.402  -0.026  14.404  0.3747  0.1404  0.2579
   52DOPE  H10R 6636   3.388   0.051  14.481 -1.0398  1.6451 -1.4196
   52DOPE  C211 6637   3.353  -0.168  14.441 -0.0168 -0.0476 -0.8486
   52DOPE  H11R 6638   3.367  -0.241  14.358  3.4725 -1.9541  1.1643
   52DOPE  H11S 6639   3.245  -0.164  14.467  0.5936  1.2879  1.8226
   52DOPE  C212 6640   3.439  -0.227  14.554 -0.1338 -0.0911  0.2245
   52DOPE  H12R 6641   3.547  -0.240  14.531  0.0121  0.8264  0.3721
   52DOPE  H12S 6642   3.400  -0.327  14.584  0.2176 -0.0570  0.8084
   52DOPE  C213 6643   3.435  -0.144  14.684 -0.5744  0.5163  0.0990
   52DOPE  H13R 6644   3.330  -0.149  14.720 -0.2369  2.3756  1.4734
   52DOPE  H13S 6645   3.460  -0.038  14.665  0.3945  0.5406  1.3276
   52DOPE  C214 6646   3.524  -0.209  14.792 -0.1609 -0.0107  0.1190
   52DOPE  H14R 6647   3.629  -0.203  14.757  0.4019 -0.5293  1.6251
   52DOPE  H14S 6648   3.502  -0.318  14.783 -0.2991  0.0759 -0.5977
   52DOPE  C215 6649   3.516  -0.135  14.926 -0.3121 -0.6390 -0.6633
   52DOPE  H15R 6650   3.416  -0.086  14.930  0.1012  0.2577 -0.9983
   52DOPE  H15S 6651   3.605  -0.071  14.942  0.4841 -2.1872  1.5669
   52DOPE  C216 6652   3.522  -0.245  15.042 -0.4383  0.0734  0.0472
   52DOPE  H16R 6653   3.609  -0.309  15.017  0.5564  1.0688  0.8468
   52DOPE  H16S 6654   3.436  -0.313  15.028  1.0388 -1.9161  0.2923
   52DOPE  C217 6655   3.524  -0.187  15.183 -0.1470 -0.1029 -0.1491
   52DOPE  H17R 6656   3.428  -0.131  15.192 -0.8764 -1.2871 -0.2734
   52DOPE  H17S 6657   3.609  -0.116  15.192  0.5488 -1.0694  1.3575
   52DOPE  C218 6658   3.519  -0.290  15.298 -0.1453  0.4902  0.3257
   52DOPE  H18R 6659   3.504  -0.244  15.398  1.0741  0.1997  0.6555
   52DOPE  H18S 6660   3.435  -0.360  15.278 -0.4740  1.3279 -1.3988
   52DOPE  H18T 6661   3.611  -0.352  15.304 -0.5875 -0.7884 -3.3642
   52DOPE   C33 6662   3.616   0.403  13.640  0.7242 -0.5636  0.2121
   52DOPE   H3X 6663   3.626   0.294  13.627 -1.1175 -0.6334 -1.0111
   52DOPE   H3Y 6664   3.507   0.409  13.661  1.0774 -1.5427  2.5748
   52DOPE   C34 6665   3.692   0.452  13.762 -1.1717 -0.4967  0.3713
   52DOPE   H4X 6666   3.802   0.441  13.753 -1.4357 -3.0080 -0.7527
   52DOPE   H4Y 6667   3.686   0.563  13.757  1.2832 -0.3525 -0.6184
   52DOPE   C35 6668   3.654   0.390  13.891 -0.1004  0.2376 -0.2442
   52DOPE   H5X 6669   3.636   0.281  13.888  0.0039  0.1881  0.5562
   52DOPE   H5Y 6670   3.561   0.441  13.925 -0.6606  0.6855 -2.3215
   52DOPE   C36 6671   3.764   0.405  13.997 -0.2606 -0.2064 -0.6761
   52DOPE   H6X 6672   3.783   0.515  13.998 -0.2080 -0.2161 -0.5972
   52DOPE   H6Y 6673   3.858   0.349  13.976  0.3405  0.1649  0.8928
   52DOPE   C37 6674   3.710   0.352  14.136  0.4155 -0.2118  0.1761
   52DOPE   H7X 6675   3.629   0.420  14.170  1.5314  1.8235 -1.0796
   52DOPE   H7Y 6676   3.673   0.248  14.123 -1.8227  0.7246 -1.7708
   52DOPE   C38 6677   3.818   0.347  14.240  0.1205  0.8959  0.0758
   52DOPE   H8X 6678   3.868   0.447  14.244  2.2645 -0.1399  0.3044
   52DOPE   H8Y 6679   3.901   0.285  14.202  0.1227  1.3657 -0.7352
   52DOPE   C39 6680   3.773   0.296  14.370  0.3124  0.5723 -1.1460
   52DOPE   H9X 6681   3.737   0.193  14.355 -0.2637  0.6585 -0.3833
   52DOPE  C310 6682   3.759   0.369  14.483 -0.7185 -0.1241 -0.4529
   52DOPE  H10X 6683   3.726   0.320  14.576  4.0219 -1.0675  0.9957
   52DOPE  C311 6684   3.810   0.503  14.501  0.2087 -0.3179 -0.6422
   52DOPE  H11X 6685   3.912   0.505  14.458 -0.4050 -1.8752 -2.2973
   52DOPE  H11Y 6686   3.752   0.569  14.433 -0.6462 -0.4490 -0.0554
   52DOPE  C312 6687   3.814   0.556  14.640 -0.4460 -0.4731 -0.0114
   52DOPE  H12X 6688   3.731   0.519  14.703 -0.8093  2.8876  1.6819
   52DOPE  H12Y 6689   3.805   0.667  14.637  1.0272 -0.2742  1.3347
   52DOPE  C313 6690   3.947   0.523  14.720  0.1377 -0.4121  0.9717
   52DOPE  H13X 6691   3.968   0.413  14.723 -0.9072 -0.8100 -2.2050
   52DOPE  H13Y 6692   4.036   0.563  14.667  0.6048 -1.5335  0.8612
   52DOPE  C314 6693   3.957   0.570  14.854 -0.3663 -0.3875 -1.2591
   52DOPE  H14X 6694   3.884   0.512  14.916  0.9481  0.5086  1.2895
   52DOPE  H14Y 6695   3.930   0.677  14.871 -0.5840 -0.5869 -0.2792
   52DOPE  C315 6696   4.097   0.560  14.920 -0.2991 -0.0012 -0.5296
   52DOPE  H15X 6697   4.157   0.632  14.860 -0.0057  0.5746  0.4263
   52DOPE  H15Y 6698   4.140   0.459  14.901  1.7135  0.4862  1.1077
   52DOPE  C316 6699   4.095   0.582  15.070  0.1661 -0.4187 -0.4225
   52DOPE  H16X 6700   4.033   0.671  15.089  1.0402  0.2805 -0.7768
   52DOPE  H16Y 6701   4.197   0.611  15.102  0.7975 -3.0768  0.3037
   52DOPE  C317 6702   4.069   0.461  15.156  0.1500 -0.3015  0.1748
   52DOPE  H17X 6703   3.970   0.419  15.129 -0.0124 -1.4872  2.3395
   52DOPE  H17Y 6704   4.133   0.381  15.116 -2.4501 -1.3391 -2.2094
   52DOPE  C318 6705   4.090   0.488  15.306 -0.1823  0.2964 -0.3163
   52DOPE  H18X 6706   4.080   0.391  15.359  0.2939  0.5482  0.2501
   52DOPE  H18Y 6707   4.189   0.533  15.328 -0.6104  1.0510  0.1220
   52DOPE  H18Z 6708   4.012   0.554  15.350  0.8297  0.7928  0.7822
   53DOPE     N 6709   0.844   2.345  12.282  0.2496  0.0715  0.3759
   53DOPE   HN1 6710   0.907   2.424  12.260 -0.3782  0.8697  1.3791
   53DOPE   HN2 6711   0.810   2.325  12.186 -1.7923  0.7611  0.9130
   53DOPE   HN3 6712   0.775   2.383  12.349 -1.2198 -1.2053 -0.3387
   53DOPE   C12 6713   0.906   2.224  12.350 -0.2335 -0.1863  0.4318
   53DOPE  H12A 6714   0.986   2.185  12.283  0.8450  1.0407  0.9704
   53DOPE  H12B 6715   0.828   2.146  12.368 -0.8779 -0.1184 -1.7685
   53DOPE   C11 6716   0.968   2.265  12.483  0.0442  0.2928  0.2339
   53DOPE  H11A 6717   0.993   2.177  12.546  1.6444  1.7422  1.7397
   53DOPE  H11B 6718   0.888   2.328  12.527  0.0196  0.1947  0.3286
   53DOPE     P 6719   1.131   2.461  12.549  0.0149  0.1306 -0.2483
   53DOPE   O13 6720   1.045   2.581  12.528  0.2240  0.0787  0.3228
   53DOPE   O14 6721   1.276   2.483  12.538 -0.0975 -0.3692  0.5182
   53DOPE   O11 6722   1.101   2.406  12.695 -0.2380 -0.1033  0.6257
   53DOPE   O12 6723   1.086   2.341  12.450 -0.3478 -0.0851 -0.5259
   53DOPE    C1 6724   1.177   2.290  12.735  0.9871 -0.4290  0.2945
   53DOPE    HA 6725   1.258   2.263  12.663  0.3520 -0.9863 -0.2212
   53DOPE    HB 6726   1.105   2.206  12.738 -1.4599  1.5135 -0.5261
   53DOPE    C2 6727   1.254   2.313  12.873  0.7428  0.0380 -0.5865
   53DOPE    HS 6728   1.321   2.225  12.888  0.1552 -0.1616  0.9717
   53DOPE   O21 6729   1.172   2.314  12.992  0.0863  0.0918 -0.4299
   53DOPE   C21 6730   1.114   2.199  13.017  0.4748  0.0327  0.8522
   53DOPE   O22 6731   1.150   2.096  12.963 -0.1102 -0.4433 -0.1184
   53DOPE   C22 6732   1.002   2.215  13.117  0.3454 -0.2051  0.3179
   53DOPE   H2R 6733   0.907   2.175  13.077  0.9369 -0.2903 -1.0368
   53DOPE   H2S 6734   0.988   2.322  13.141 -0.8041 -0.3850  0.5248
   53DOPE    C3 6735   1.360   2.422  12.868 -0.0672  0.0320  0.4514
   53DOPE    HX 6736   1.315   2.514  12.825 -0.1372 -0.6585 -1.0288
   53DOPE    HY 6737   1.441   2.395  12.796  0.7990  2.4231  0.4424
   53DOPE   O31 6738   1.417   2.440  12.999  0.0583 -0.0708 -0.0384
   53DOPE   C31 6739   1.354   2.526  13.080  0.2876  0.3810  0.1199
   53DOPE   O32 6740   1.252   2.587  13.053  0.0464  0.2720  0.4248
   53DOPE   C32 6741   1.436   2.537  13.210  0.3499  0.5854  0.4083
   53DOPE   H2X 6742   1.482   2.436  13.220 -1.9128 -0.5963 -0.3471
   53DOPE   H2Y 6743   1.511   2.618  13.199  1.5394 -0.7069 -1.5153
   53DOPE   C23 6744   1.035   2.134  13.242  0.0114 -0.2593 -0.1920
   53DOPE   H3R 6745   1.034   2.024  13.224 -1.0203 -0.2753 -0.0877
   53DOPE   H3S 6746   0.955   2.148  13.318  2.3688 -2.0048  2.8302
   53DOPE   C24 6747   1.159   2.178  13.325 -0.2507  0.4097  0.0223
   53DOPE   H4R 6748   1.151   2.282  13.364  0.2534  0.4158  0.1284
   53DOPE   H4S 6749   1.250   2.161  13.263 -0.1084 -3.1959  0.9911
   53DOPE   C25 6750   1.177   2.082  13.440 -0.6213 -0.6089 -0.4613
   53DOPE   H5R 6751   1.284   2.094  13.470 -0.8073  1.5680 -0.4924
   53DOPE   H5S 6752   1.169   1.974  13.417 -0.9385 -1.1395  1.9090
   53DOPE   C26 6753   1.084   2.109  13.556 -0.8070  0.3389  0.2596
   53DOPE   H6R 6754   0.980   2.088  13.524 -0.1955  0.2458 -1.8163
   53DOPE   H6S 6755   1.108   2.215  13.579 -0.3330  0.0014  1.3575
   53DOPE   C27 6756   1.111   2.006  13.669 -1.1777 -0.3670 -0.3291
   53DOPE   H7R 6757   1.215   1.968  13.663 -0.5134  1.4031 -0.5758
   53DOPE   H7S 6758   1.050   1.914  13.656 -0.2859 -1.1904  1.1233
   53DOPE   C28 6759   1.076   2.060  13.807 -0.0014  0.2878 -0.0107
   53DOPE   H8R 6760   0.968   2.086  13.805  0.2555  1.5577  1.2735
   53DOPE   H8S 6761   1.122   2.160  13.818 -1.0759  0.6518  1.5458
   53DOPE   C29 6762   1.111   1.963  13.918 -0.0749  0.3857  0.4301
   53DOPE   H9R 6763   1.056   1.868  13.914  1.7875 -0.7479  0.3151
   53DOPE  C210 6764   1.215   1.959  13.998 -0.4026  0.3214  0.4560
   53DOPE  H10R 6765   1.232   1.866  14.055 -0.8475  0.0917  0.2181
   53DOPE  C211 6766   1.307   2.081  14.014 -0.0546  1.0011  0.7446
   53DOPE  H11R 6767   1.276   2.172  13.959 -0.1824  1.0814  0.9458
   53DOPE  H11S 6768   1.403   2.040  13.977  0.5308  2.3746  0.6721
   53DOPE  C212 6769   1.304   2.124  14.159  0.2362  0.3072 -0.4051
   53DOPE  H12R 6770   1.202   2.161  14.182 -0.2632 -2.1326  1.7406
   53DOPE  H12S 6771   1.371   2.213  14.165  1.8823 -0.8101 -1.1973
   53DOPE  C213 6772   1.361   2.027  14.259 -0.3634 -0.1321  0.0526
   53DOPE  H13R 6773   1.470   2.008  14.254  0.4102  2.8182  2.5225
   53DOPE  H13S 6774   1.311   1.928  14.252  0.8128 -0.9444  2.1930
   53DOPE  C214 6775   1.349   2.069  14.408  0.2997  0.3989  0.3467
   53DOPE  H14R 6776   1.241   2.079  14.430  0.1985  1.6939 -0.6417
   53DOPE  H14S 6777   1.389   2.173  14.415  0.4991  0.2710  1.3984
   53DOPE  C215 6778   1.393   1.972  14.520 -0.1105  0.3989 -0.5280
   53DOPE  H15R 6779   1.495   1.929  14.504  0.4499  1.1642  0.8499
   53DOPE  H15S 6780   1.326   1.884  14.527  0.0636  0.2904 -0.2002
   53DOPE  C216 6781   1.398   2.036  14.658  0.0186  0.7299 -0.0620
   53DOPE  H16R 6782   1.479   2.113  14.658 -0.1462  1.0332  3.0213
   53DOPE  H16S 6783   1.437   1.954  14.722  1.3970  0.9910 -0.5422
   53DOPE  C217 6784   1.277   2.114  14.706  0.2645  0.5698 -0.1164
   53DOPE  H17R 6785   1.183   2.056  14.693 -0.4895  1.8999 -0.8119
   53DOPE  H17S 6786   1.262   2.199  14.636 -0.4705 -1.5551 -2.7106
   53DOPE  C218 6787   1.299   2.171  14.855  0.6966  0.0421  0.9223
   53DOPE  H18R 6788   1.261   2.091  14.923  1.2293  2.6874  4.6186
   53DOPE  H18S 6789   1.236   2.259  14.879  0.8522  0.3871  0.0931
   53DOPE  H18T 6790   1.407   2.178  14.877  1.0736 -2.5765  0.2322
   53DOPE   C33 6791   1.361   2.577  13.347 -0.3441  0.2913  0.7009
   53DOPE   H3X 6792   1.293   2.496  13.380  0.2709  0.1671  1.7219
   53DOPE   H3Y 6793   1.300   2.669  13.332 -0.3450  0.1146 -0.4742
   53DOPE   C34 6794   1.462   2.624  13.453 -0.6387 -0.1625  0.1308
   53DOPE   H4X 6795   1.549   2.555  13.441 -0.9536 -0.6067  0.3889
   53DOPE   H4Y 6796   1.481   2.733  13.444 -0.6284 -0.1628  0.1492
   53DOPE   C35 6797   1.411   2.597  13.595  0.4410 -0.1744 -0.2175
   53DOPE   H5X 6798   1.386   2.489  13.603 -1.5433  0.2250 -0.4684
   53DOPE   H5Y 6799   1.322   2.661  13.612  0.1688 -0.6681  0.2475
   53DOPE   C36 6800   1.518   2.644  13.691 -0.2315  0.7533 -0.2143
   53DOPE   H6X 6801   1.539   2.748  13.655 -1.3346  1.6395  1.5997
   53DOPE   H6Y 6802   1.613   2.587  13.690  0.0198  1.0282  2.4771
   53DOPE   C37 6803   1.479   2.649  13.841 -0.1753 -0.1986 -0.2615
   53DOPE   H7X 6804   1.372   2.676  13.843 -0.1340 -0.0230 -0.4114
   53DOPE   H7Y 6805   1.490   2.549  13.889 -0.8887  0.6902  1.8982
   53DOPE   C38 6806   1.570   2.743  13.929  0.5250  0.3546  0.6363
   53DOPE   H8X 6807   1.502   2.749  14.016 -3.0736 -0.0937 -1.8960
   53DOPE   H8Y 6808   1.568   2.839  13.873 -0.5822  0.3143  0.5878
   53DOPE   C39 6809   1.704   2.683  13.966 -0.0965  0.1007 -0.6498
   53DOPE   H9X 6810   1.783   2.702  13.891 -0.5755 -1.3122 -1.5539
   53DOPE  C310 6811   1.740   2.601  14.064 -0.2973 -0.1260  0.7492
   53DOPE  H10X 6812   1.847   2.577  14.071  0.3963  0.3930 -4.2859
   53DOPE  C311 6813   1.653   2.556  14.173  1.5929  0.0233  0.1392
   53DOPE  H11X 6814   1.579   2.637  14.192  0.8165 -0.9045  1.2075
   53DOPE  H11Y 6815   1.588   2.474  14.135 -0.5239  0.8941  1.6650
   53DOPE  C312 6816   1.719   2.535  14.315  0.1228  0.6061  0.2279
   53DOPE  H12X 6817   1.750   2.633  14.359  0.3596  0.0718  1.2914
   53DOPE  H12Y 6818   1.816   2.482  14.300 -1.1263 -2.4221  2.0527
   53DOPE  C313 6819   1.615   2.464  14.404 -0.1782  0.0699  0.4592
   53DOPE  H13X 6820   1.559   2.539  14.465 -2.2607 -1.1662  0.1493
   53DOPE  H13Y 6821   1.540   2.418  14.336 -1.4179  0.1585  1.7257
   53DOPE  C314 6822   1.672   2.351  14.478 -0.4199  0.2623 -0.2520
   53DOPE  H14X 6823   1.753   2.306  14.418  1.7151 -0.3797  2.8641
   53DOPE  H14Y 6824   1.595   2.273  14.499  0.7601 -0.4473  1.6970
   53DOPE  C315 6825   1.729   2.393  14.614  0.1628  0.2452  0.3865
   53DOPE  H15X 6826   1.806   2.471  14.597  0.5220  0.4539  2.6598
   53DOPE  H15Y 6827   1.788   2.307  14.652  1.5119  1.2535  0.6276
   53DOPE  C316 6828   1.624   2.432  14.728  0.6665  0.2597  0.3794
   53DOPE  H16X 6829   1.548   2.351  14.729 -0.7833  1.5639  1.6477
   53DOPE  H16Y 6830   1.571   2.528  14.711  0.3461  0.1569  0.7715
   53DOPE  C317 6831   1.682   2.437  14.865 -0.4851 -0.3755 -0.2292
   53DOPE  H17X 6832   1.600   2.447  14.938  0.6384 -0.9194  1.1656
   53DOPE  H17Y 6833   1.730   2.340  14.892  1.7875  0.5179 -0.7848
   53DOPE  C318 6834   1.803   2.535  14.879  0.5630 -0.5598  0.4352
   53DOPE  H18X 6835   1.889   2.496  14.822  1.6683 -0.0750  1.7187
   53DOPE  H18Y 6836   1.768   2.634  14.843 -0.6030 -1.2314 -0.3559
   53DOPE  H18Z 6837   1.831   2.541  14.987 -0.8606 -0.3352  0.8174
   54DOPE     N 6838   2.810   6.094  12.970 -0.6377  0.8020  0.4293
   54DOPE   HN1 6839   2.828   6.099  13.072 -1.5922 -0.4527  0.6782
   54DOPE   HN2 6840   2.758   6.005  12.955  0.1115  0.6169 -1.3992
   54DOPE   HN3 6841   2.888   6.104  12.902 -1.8297 -0.1624 -1.1557
   54DOPE   C12 6842   2.715   6.209  12.941  0.4771  0.1826  0.0104
   54DOPE  H12A 6843   2.764   6.304  12.911 -0.6021  0.9072  0.4924
   54DOPE  H12B 6844   2.642   6.211  13.024 -2.0466 -0.1817 -2.0666
   54DOPE   C11 6845   2.627   6.155  12.826 -0.0651  0.0135 -0.2361
   54DOPE  H11A 6846   2.583   6.053  12.828  0.9497 -0.4232  0.2652
   54DOPE  H11B 6847   2.691   6.145  12.735 -1.1411 -2.3532 -0.8020
   54DOPE     P 6848   2.569   6.391  12.732 -0.2336 -0.2273 -0.4750
   54DOPE   O13 6849   2.465   6.423  12.629  0.0103  0.0414  0.9335
   54DOPE   O14 6850   2.707   6.382  12.687 -0.0558  0.2238  0.4975
   54DOPE   O11 6851   2.566   6.500  12.847  0.1394 -0.2392 -0.2750
   54DOPE   O12 6852   2.528   6.257  12.804 -0.6965 -0.1972  0.1229
   54DOPE    C1 6853   2.440   6.549  12.894 -0.7227 -0.7535  0.1296
   54DOPE    HA 6854   2.363   6.471  12.876  0.1503 -1.5477 -0.2397
   54DOPE    HB 6855   2.406   6.637  12.833  0.4206  0.6473  1.4423
   54DOPE    C2 6856   2.444   6.577  13.050  0.3932  0.4087  0.0479
   54DOPE    HS 6857   2.337   6.590  13.078  0.8270  1.0446  1.4887
   54DOPE   O21 6858   2.530   6.686  13.084 -0.3426  0.5642  0.4928
   54DOPE   C21 6859   2.481   6.809  13.073 -0.3505 -0.9517  0.0464
   54DOPE   O22 6860   2.372   6.842  13.026  0.1106 -0.0730 -0.3415
   54DOPE   C22 6861   2.589   6.895  13.148  0.6939 -0.3351 -0.3815
   54DOPE   H2R 6862   2.676   6.914  13.081  0.3013  0.1065 -0.7698
   54DOPE   H2S 6863   2.633   6.842  13.235  0.0321  2.1963  1.6422
   54DOPE    C3 6864   2.482   6.445  13.127 -0.5815 -0.0833 -0.3515
   54DOPE    HX 6865   2.593   6.441  13.125 -0.6154 -3.0523 -1.8024
   54DOPE    HY 6866   2.452   6.357  13.065  0.4114 -1.0730  0.5135
   54DOPE   O31 6867   2.459   6.445  13.269  0.5125  0.2987  0.7540
   54DOPE   C31 6868   2.400   6.338  13.324 -0.1542  0.1589  0.3975
   54DOPE   O32 6869   2.371   6.239  13.259  0.0281 -0.3232 -0.4553
   54DOPE   C32 6870   2.386   6.357  13.473 -0.2251  0.5616 -1.1102
   54DOPE   H2X 6871   2.479   6.397  13.518 -0.7721  0.1687  0.4306
   54DOPE   H2Y 6872   2.302   6.426  13.498 -2.5241 -1.6409 -2.2499
   54DOPE   C23 6873   2.529   7.022  13.215 -0.0071 -0.3174 -0.3917
   54DOPE   H3R 6874   2.433   6.998  13.265  0.5605  0.2002  0.9968
   54DOPE   H3S 6875   2.521   7.098  13.134  2.2782 -0.7300 -1.0607
   54DOPE   C24 6876   2.618   7.080  13.324  0.4137  0.4378  0.0894
   54DOPE   H4R 6877   2.562   7.170  13.359  0.8751  0.2494  1.3302
   54DOPE   H4S 6878   2.719   7.113  13.293  1.0127 -0.4275  1.0659
   54DOPE   C25 6879   2.638   6.991  13.445 -0.7176  0.4215  0.2077
   54DOPE   H5R 6880   2.716   6.914  13.428  1.1259  1.7277  2.1857
   54DOPE   H5S 6881   2.540   6.950  13.477 -1.4578  1.9347 -0.0507
   54DOPE   C26 6882   2.709   7.070  13.556  0.1252 -0.7463 -0.2361
   54DOPE   H6R 6883   2.761   7.163  13.525 -0.1905 -0.6864 -0.5955
   54DOPE   H6S 6884   2.793   7.004  13.588  0.7979 -0.7940 -1.9997
   54DOPE   C27 6885   2.617   7.107  13.679  0.0053  0.6977  0.7446
   54DOPE   H7R 6886   2.547   7.024  13.704  0.6398  0.4127  1.6268
   54DOPE   H7S 6887   2.548   7.182  13.635  2.7635  2.0129 -1.7159
   54DOPE   C28 6888   2.697   7.153  13.802  0.8677 -0.3378  0.2212
   54DOPE   H8R 6889   2.767   7.225  13.755  0.2169 -0.0294 -0.3081
   54DOPE   H8S 6890   2.760   7.074  13.846  0.0587 -0.9255  0.3537
   54DOPE   C29 6891   2.611   7.232  13.904 -0.4324 -0.5930 -0.0877
   54DOPE   H9R 6892   2.554   7.316  13.863  0.6626  0.4786  0.5188
   54DOPE  C210 6893   2.611   7.215  14.035  0.2760  0.3814  0.4388
   54DOPE  H10R 6894   2.551   7.282  14.098  0.3342  0.5883  0.2778
   54DOPE  C211 6895   2.689   7.118  14.117 -0.3184 -0.1352  0.1807
   54DOPE  H11R 6896   2.785   7.083  14.074 -0.9016 -0.6688 -0.7233
   54DOPE  H11S 6897   2.639   7.019  14.122 -0.3993 -0.0337  2.1535
   54DOPE  C212 6898   2.709   7.179  14.255 -0.4351  0.2110  0.1801
   54DOPE  H12R 6899   2.612   7.176  14.310 -0.8670 -0.8519 -0.6062
   54DOPE  H12S 6900   2.738   7.286  14.245  2.4578 -0.6753 -1.9373
   54DOPE  C213 6901   2.826   7.101  14.332  0.6138  1.0454 -0.5763
   54DOPE  H13R 6902   2.909   7.065  14.267 -1.7331 -2.5560 -1.8985
   54DOPE  H13S 6903   2.773   7.011  14.369  0.0225  0.3772 -2.8498
   54DOPE  C214 6904   2.880   7.182  14.456 -0.4764  0.4326 -0.2490
   54DOPE  H14R 6905   2.940   7.263  14.410  0.4452 -0.5325 -0.8043
   54DOPE  H14S 6906   2.957   7.117  14.502 -0.4043 -0.0402 -0.9988
   54DOPE  C215 6907   2.785   7.233  14.561 -0.0634  0.3256 -0.3535
   54DOPE  H15R 6908   2.714   7.152  14.586 -2.1020  1.6940 -1.3627
   54DOPE  H15S 6909   2.741   7.323  14.513  1.3127  0.7094 -0.9600
   54DOPE  C216 6910   2.856   7.276  14.685  0.6606 -0.2046  0.0187
   54DOPE  H16R 6911   2.952   7.320  14.654  0.6716  0.4060  0.8862
   54DOPE  H16S 6912   2.873   7.181  14.741  0.9759  0.1989  0.6206
   54DOPE  C217 6913   2.774   7.368  14.774 -0.2059  0.5160 -0.2019
   54DOPE  H17R 6914   2.684   7.313  14.809 -0.9428 -0.6223 -3.4879
   54DOPE  H17S 6915   2.733   7.448  14.709 -0.4999  0.9792  0.5402
   54DOPE  C218 6916   2.850   7.443  14.885  0.0470  1.0276  0.4257
   54DOPE  H18R 6917   2.890   7.367  14.955  1.2616 -0.6004 -1.8945
   54DOPE  H18S 6918   2.786   7.515  14.940  0.5858  0.8144  1.3377
   54DOPE  H18T 6919   2.936   7.498  14.840 -1.2279  0.1536 -3.5646
   54DOPE   C33 6920   2.346   6.220  13.538 -0.1515 -0.3781  0.3490
   54DOPE   H3X 6921   2.439   6.159  13.530  0.6844  0.8920  0.0389
   54DOPE   H3Y 6922   2.265   6.169  13.481 -0.9135  0.3540  0.7555
   54DOPE   C34 6923   2.307   6.216  13.684 -0.2842 -0.3815 -0.3770
   54DOPE   H4X 6924   2.397   6.238  13.745 -1.1875  0.3421  0.7526
   54DOPE   H4Y 6925   2.224   6.290  13.695 -1.1019 -1.3093 -0.2116
   54DOPE   C35 6926   2.263   6.073  13.721 -0.8149  0.9190  0.4965
   54DOPE   H5X 6927   2.336   5.989  13.708  0.2355  1.1937  3.5723
   54DOPE   H5Y 6928   2.178   6.049  13.654  1.5629  0.4058 -2.5722
   54DOPE   C36 6929   2.216   6.062  13.870 -0.3377  0.1488  0.2790
   54DOPE   H6X 6930   2.169   5.963  13.888  0.8169 -0.0369  2.5982
   54DOPE   H6Y 6931   2.137   6.135  13.897 -1.5019 -1.3847  1.1868
   54DOPE   C37 6932   2.328   6.071  13.978  0.3913 -0.1319 -0.2234
   54DOPE   H7X 6933   2.397   5.988  13.951 -0.1676 -0.5765 -0.3135
   54DOPE   H7Y 6934   2.381   6.165  13.951  0.4203  0.5898  2.1543
   54DOPE   C38 6935   2.292   6.065  14.135 -0.3281  0.2746 -0.1140
   54DOPE   H8X 6936   2.255   5.960  14.139  1.6923 -0.4734  0.2326
   54DOPE   H8Y 6937   2.217   6.138  14.173  1.3425  1.7215  0.5339
   54DOPE   C39 6938   2.423   6.098  14.204 -0.2833  0.4298 -0.1641
   54DOPE   H9X 6939   2.489   6.166  14.148  0.2080 -0.5101 -0.7623
   54DOPE  C310 6940   2.478   6.017  14.296 -0.4622  0.0456  0.3043
   54DOPE  H10X 6941   2.569   6.058  14.342 -1.4807  0.0685  2.4744
   54DOPE  C311 6942   2.419   5.904  14.378  0.1961 -0.2678  0.8200
   54DOPE  H11X 6943   2.331   5.865  14.323 -0.7831  1.6260  0.9749
   54DOPE  H11Y 6944   2.498   5.828  14.393  1.8609  1.2247 -0.0687
   54DOPE  C312 6945   2.362   5.959  14.512  0.5395 -0.1266  0.3666
   54DOPE  H12X 6946   2.281   6.034  14.504  1.1913  0.8750  2.4218
   54DOPE  H12Y 6947   2.442   6.010  14.570 -0.3566 -0.5248  1.9986
   54DOPE  C313 6948   2.312   5.850  14.610 -0.3611 -0.3739  1.1519
   54DOPE  H13X 6949   2.214   5.806  14.583  0.4089 -1.9935  0.9040
   54DOPE  H13Y 6950   2.372   5.757  14.619 -2.6731 -2.2116 -0.8653
   54DOPE  C314 6951   2.296   5.894  14.757  0.3589  0.1928 -0.1592
   54DOPE  H14X 6952   2.221   5.976  14.749 -1.3373 -1.2566  0.1405
   54DOPE  H14Y 6953   2.391   5.935  14.795  1.1743 -2.4106  0.8365
   54DOPE  C315 6954   2.235   5.793  14.854  0.2687  0.5738  0.6095
   54DOPE  H15X 6955   2.308   5.724  14.900  0.6154  1.2798  1.1332
   54DOPE  H15Y 6956   2.155   5.740  14.797 -0.0180  0.2058  1.3357
   54DOPE  C316 6957   2.167   5.864  14.972 -0.2663  0.0557  0.2306
   54DOPE  H16X 6958   2.073   5.920  14.955 -0.3912  0.7747  2.8060
   54DOPE  H16Y 6959   2.246   5.929  15.018  2.1208 -2.9808  0.7389
   54DOPE  C317 6960   2.122   5.759  15.075  0.3849  0.9477 -0.5229
   54DOPE  H17X 6961   2.062   5.682  15.022 -0.2083  1.5885 -0.7928
   54DOPE  H17Y 6962   2.211   5.701  15.109 -0.6829 -1.3891 -1.4604
   54DOPE  C318 6963   2.036   5.829  15.189  0.6428  0.0442  0.5872
   54DOPE  H18X 6964   2.106   5.867  15.265 -1.2233  1.0348  1.8986
   54DOPE  H18Y 6965   1.962   5.906  15.157  1.6521  1.2183  1.0289
   54DOPE  H18Z 6966   1.976   5.745  15.230 -4.1418  1.4014 -2.6591
   55DOPE     N 6967   5.639   3.209  12.247 -0.1022 -0.6006  0.3788
   55DOPE   HN1 6968   5.558   3.202  12.183  0.6801 -0.7397 -0.6175
   55DOPE   HN2 6969   5.719   3.216  12.181 -1.2592 -1.0206 -1.1326
   55DOPE   HN3 6970   5.633   3.117  12.293  2.4483 -1.2598 -0.4441
   55DOPE   C12 6971   5.610   3.325  12.341 -0.2769  0.1406  0.0357
   55DOPE  H12A 6972   5.641   3.423  12.298 -0.7430  1.0105  1.5918
   55DOPE  H12B 6973   5.671   3.309  12.432 -0.4110 -0.8194 -0.0342
   55DOPE   C11 6974   5.458   3.322  12.384 -0.3611 -0.6048  0.6443
   55DOPE  H11A 6975   5.387   3.343  12.302 -0.6469  0.6841  1.2080
   55DOPE  H11B 6976   5.452   3.408  12.453  0.6635 -1.1665  1.4727
   55DOPE     P 6977   5.291   3.140  12.465  0.5673 -0.0243 -0.0216
   55DOPE   O13 6978   5.288   3.067  12.590 -0.5677 -0.1885  0.5242
   55DOPE   O14 6979   5.279   3.071  12.334 -0.1667  0.5008 -0.4746
   55DOPE   O11 6980   5.195   3.267  12.454 -0.3318 -0.6100 -0.1936
   55DOPE   O12 6981   5.431   3.211  12.465 -0.0759  0.3875  0.1901
   55DOPE    C1 6982   5.176   3.364  12.562 -0.1346 -0.0360  0.7268
   55DOPE    HA 6983   5.148   3.462  12.518  0.9748 -0.3069 -0.6857
   55DOPE    HB 6984   5.271   3.381  12.618 -0.2704  2.4457  0.3284
   55DOPE    C2 6985   5.058   3.316  12.663 -0.0505 -0.0925  0.2856
   55DOPE    HS 6986   5.027   3.402  12.726  0.2650 -0.9779  1.6939
   55DOPE   O21 6987   5.087   3.209  12.750  0.2808  0.4417 -0.4417
   55DOPE   C21 6988   5.181   3.225  12.836 -0.6409  0.5963 -0.5168
   55DOPE   O22 6989   5.222   3.337  12.873 -0.0432  0.2075 -0.3895
   55DOPE   C22 6990   5.213   3.087  12.896 -0.7141  0.2860 -0.4145
   55DOPE   H2R 6991   5.220   3.021  12.807  0.9356 -0.5117  0.2686
   55DOPE   H2S 6992   5.123   3.050  12.950  0.8048 -1.9686  0.7666
   55DOPE    C3 6993   4.935   3.279  12.578 -0.6664  0.1691  0.0976
   55DOPE    HX 6994   4.965   3.182  12.533 -0.2276  0.3499  0.0019
   55DOPE    HY 6995   4.918   3.361  12.506 -4.5908  0.4592  1.1294
   55DOPE   O31 6996   4.806   3.280  12.660  0.2631 -0.0062 -0.6443
   55DOPE   C31 6997   4.775   3.153  12.692 -0.2055  0.8516 -0.8934
   55DOPE   O32 6998   4.841   3.055  12.660 -0.0179 -0.0808  0.1601
   55DOPE   C32 6999   4.662   3.146  12.793 -0.3440  0.6759 -0.0108
   55DOPE   H2X 7000   4.635   3.247  12.829 -0.8029  0.7898 -0.6646
   55DOPE   H2Y 7001   4.571   3.096  12.753 -0.0784  2.0077 -2.4963
   55DOPE   C23 7002   5.353   3.080  12.976  0.0083  0.5565  0.3951
   55DOPE   H3R 7003   5.432   3.142  12.930 -0.0179  1.4903  1.5718
   55DOPE   H3S 7004   5.392   2.975  12.975  1.9361  1.1815 -2.2627
   55DOPE   C24 7005   5.334   3.114  13.126 -0.7791  0.0134  0.1244
   55DOPE   H4R 7006   5.257   3.041  13.161 -0.8556  0.1868  0.3273
   55DOPE   H4S 7007   5.285   3.213  13.143 -0.0173  1.0384 -3.0503
   55DOPE   C25 7008   5.470   3.111  13.203 -0.4602  0.1147  0.1343
   55DOPE   H5R 7009   5.527   3.206  13.195  1.3072 -0.8344  0.8995
   55DOPE   H5S 7010   5.538   3.029  13.172  3.4130  2.5702  1.4807
   55DOPE   C26 7011   5.448   3.088  13.356  0.2764 -0.7875 -0.7450
   55DOPE   H6R 7012   5.381   3.001  13.374 -1.0753  0.8141  2.9245
   55DOPE   H6S 7013   5.394   3.177  13.395  0.3102 -1.1370  0.1076
   55DOPE   C27 7014   5.578   3.061  13.436  0.6306  0.1080 -0.6191
   55DOPE   H7R 7015   5.661   3.130  13.407  2.1374 -2.0261 -1.7366
   55DOPE   H7S 7016   5.606   2.957  13.411 -1.3574 -0.8962  1.0954
   55DOPE   C28 7017   5.562   3.066  13.592 -0.4129 -0.5871 -0.8981
   55DOPE   H8R 7018   5.529   3.166  13.627 -1.5748 -1.0918 -0.5153
   55DOPE   H8S 7019   5.664   3.057  13.635  0.1203 -1.5317 -2.2922
   55DOPE   C29 7020   5.462   2.965  13.651 -0.1922 -0.3435  0.4259
   55DOPE   H9R 7021   5.397   2.915  13.578 -1.3014  0.2698  0.9802
   55DOPE  C210 7022   5.439   2.955  13.783 -0.2986  0.1630  0.1860
   55DOPE  H10R 7023   5.372   2.870  13.805 -0.7515  0.6261  0.6208
   55DOPE  C211 7024   5.498   3.041  13.897 -0.7639  0.4417 -0.2107
   55DOPE  H11R 7025   5.460   3.143  13.875  0.3782  1.2382  1.2982
   55DOPE  H11S 7026   5.606   3.059  13.877 -0.8917 -0.4736 -1.9366
   55DOPE  C212 7027   5.455   2.998  14.044 -1.0420  0.1396  0.1990
   55DOPE  H12R 7028   5.487   2.893  14.063 -0.1987  0.6649  1.8698
   55DOPE  H12S 7029   5.346   3.002  14.066 -1.3954  1.4924 -1.5396
   55DOPE  C213 7030   5.527   3.093  14.152 -0.5954  0.3099  0.6359
   55DOPE  H13R 7031   5.516   3.197  14.116 -0.3548  0.2893  0.5003
   55DOPE  H13S 7032   5.634   3.063  14.154  0.2505  2.9727  0.1168
   55DOPE  C214 7033   5.480   3.061  14.288 -0.8489 -0.4955  0.9921
   55DOPE  H14R 7034   5.467   2.951  14.297 -2.2481 -0.3817  0.6222
   55DOPE  H14S 7035   5.379   3.106  14.303 -0.9761 -0.4821  0.1016
   55DOPE  C215 7036   5.559   3.112  14.411  0.0303 -0.7045  0.4072
   55DOPE  H15R 7037   5.584   3.217  14.385  2.0632 -0.5637  2.6017
   55DOPE  H15S 7038   5.653   3.055  14.429  0.9610  0.6103 -0.1057
   55DOPE  C216 7039   5.479   3.110  14.540  1.0782 -0.6018  0.4990
   55DOPE  H16R 7040   5.371   3.136  14.529  1.5373  0.7326 -1.2971
   55DOPE  H16S 7041   5.519   3.175  14.621  1.4189 -1.3258  0.9178
   55DOPE  C217 7042   5.484   2.979  14.620 -0.3069 -0.4562 -0.0826
   55DOPE  H17R 7043   5.591   2.951  14.634 -0.4335 -0.9911 -0.1482
   55DOPE  H17S 7044   5.436   2.897  14.562 -1.6352  0.0462  0.2764
   55DOPE  C218 7045   5.413   2.985  14.756 -0.3690 -0.4771  0.6309
   55DOPE  H18R 7046   5.316   3.029  14.724  0.7966 -0.4122 -3.4943
   55DOPE  H18S 7047   5.456   3.064  14.820 -1.6076 -1.6134  2.9679
   55DOPE  H18T 7048   5.403   2.880  14.790  0.1921 -0.6576  0.2530
   55DOPE   C33 7049   4.703   3.063  12.917  0.4219  0.7564 -0.6553
   55DOPE   H3X 7050   4.798   3.096  12.964 -0.1589 -4.0481  5.0195
   55DOPE   H3Y 7051   4.718   2.955  12.897 -1.0539  0.3369  0.2807
   55DOPE   C34 7052   4.583   3.067  13.020  0.1777  0.4066 -0.4988
   55DOPE   H4X 7053   4.555   3.170  13.052 -2.8367  0.2259 -2.1655
   55DOPE   H4Y 7054   4.486   3.037  12.976 -0.5893  0.5649  1.0324
   55DOPE   C35 7055   4.615   2.975  13.144  0.1531 -0.0001  0.2897
   55DOPE   H5X 7056   4.720   3.000  13.174  0.2622  1.7563 -1.3041
   55DOPE   H5Y 7057   4.612   2.869  13.113 -0.3770 -0.2201  1.0605
   55DOPE   C36 7058   4.530   2.981  13.270 -0.6289  0.8426 -0.1033
   55DOPE   H6X 7059   4.425   2.974  13.237 -0.6832 -2.6842  0.3553
   55DOPE   H6Y 7060   4.559   3.073  13.326  0.2483  0.3044  0.3688
   55DOPE   C37 7061   4.552   2.849  13.355  0.3910  0.5627  0.3667
   55DOPE   H7X 7062   4.530   2.756  13.298  1.7630  0.7100 -0.4472
   55DOPE   H7Y 7063   4.658   2.844  13.388  0.3447 -1.9357  0.3383
   55DOPE   C38 7064   4.464   2.837  13.479 -0.7735 -0.5436  0.2564
   55DOPE   H8X 7065   4.356   2.825  13.455 -0.7679 -0.8142  0.3556
   55DOPE   H8Y 7066   4.465   2.930  13.540 -2.3856  0.2458 -0.8562
   55DOPE   C39 7067   4.501   2.716  13.560  0.2086  0.4736 -0.4980
   55DOPE   H9X 7068   4.518   2.626  13.500 -0.4376  0.4249 -0.6169
   55DOPE  C310 7069   4.527   2.697  13.691  0.3541 -0.5758  0.3348
   55DOPE  H10X 7070   4.562   2.599  13.726 -0.3998 -0.5626  1.1647
   55DOPE  C311 7071   4.501   2.798  13.797 -0.2063  0.3561  0.0289
   55DOPE  H11X 7072   4.582   2.788  13.872  2.2001  1.6176 -2.2689
   55DOPE  H11Y 7073   4.515   2.901  13.760  2.2824  0.3661  0.8778
   55DOPE  C312 7074   4.379   2.761  13.874  0.6975  0.2583  0.3341
   55DOPE  H12X 7075   4.288   2.756  13.810  2.4574 -0.8362 -2.2683
   55DOPE  H12Y 7076   4.361   2.839  13.951 -0.9467  0.3825 -0.1302
   55DOPE  C313 7077   4.379   2.628  13.961  0.1350 -0.3913  0.6657
   55DOPE  H13X 7078   4.280   2.609  14.006  0.6777 -1.3375  1.5065
   55DOPE  H13Y 7079   4.397   2.538  13.897  1.2419  0.9450 -0.9914
   55DOPE  C314 7080   4.489   2.621  14.071 -0.8934 -0.1831 -0.4609
   55DOPE  H14X 7081   4.587   2.672  14.060  1.5261 -3.6668  2.4337
   55DOPE  H14Y 7082   4.518   2.514  14.084 -0.9269 -0.1325  0.0278
   55DOPE  C315 7083   4.424   2.679  14.203 -0.3623  0.2269  0.7081
   55DOPE  H15X 7084   4.328   2.628  14.226 -0.4158 -0.4957 -0.9782
   55DOPE  H15Y 7085   4.394   2.783  14.181  0.5651  0.3056 -0.2877
   55DOPE  C316 7086   4.525   2.650  14.317  1.0357 -0.4141  0.1521
   55DOPE  H16X 7087   4.625   2.698  14.304 -0.2975  2.2863 -1.0552
   55DOPE  H16Y 7088   4.532   2.541  14.332  0.1825 -0.5275 -0.2403
   55DOPE  C317 7089   4.468   2.697  14.452 -0.2589 -0.3862 -0.6154
   55DOPE  H17X 7090   4.443   2.805  14.442  1.3373 -0.1452 -2.4553
   55DOPE  H17Y 7091   4.374   2.639  14.465 -1.5592  1.5902 -0.7816
   55DOPE  C318 7092   4.559   2.669  14.574  0.0106 -0.1667  0.3879
   55DOPE  H18X 7093   4.497   2.663  14.666  0.5464 -0.1629  0.7575
   55DOPE  H18Y 7094   4.604   2.568  14.559 -0.5125 -0.5692  1.4223
   55DOPE  H18Z 7095   4.641   2.744  14.579  1.0426 -1.3394  3.1141
   56DOPE     N 7096   4.170   3.300  12.356  0.6446  0.5171  0.4688
   56DOPE   HN1 7097   4.235   3.279  12.277  1.2865 -1.3928  1.4499
   56DOPE   HN2 7098   4.146   3.401  12.355 -0.7954  0.2083 -1.4826
   56DOPE   HN3 7099   4.220   3.268  12.442  1.7634  0.2021 -0.2732
   56DOPE   C12 7100   4.044   3.227  12.337  0.4183  0.4407 -0.0429
   56DOPE  H12A 7101   4.051   3.131  12.392 -2.8421  0.1015 -0.0457
   56DOPE  H12B 7102   4.018   3.216  12.229 -1.7291 -0.4118  0.5073
   56DOPE   C11 7103   3.931   3.307  12.412 -0.0352  0.5723 -0.1905
   56DOPE  H11A 7104   3.834   3.252  12.417  0.0105  0.5899  2.0874
   56DOPE  H11B 7105   3.919   3.401  12.355  4.0524  0.9107 -0.7569
   56DOPE     P 7106   3.926   3.250  12.664  0.2438 -0.5177 -0.0758
   56DOPE   O13 7107   3.786   3.289  12.686 -0.1191  0.3237  0.3290
   56DOPE   O14 7108   4.019   3.261  12.774 -0.0320  0.6698 -0.1967
   56DOPE   O11 7109   3.935   3.103  12.600  0.2639 -0.0539  0.7247
   56DOPE   O12 7110   3.976   3.341  12.544  0.3631  0.2128  0.2997
   56DOPE    C1 7111   3.929   2.986  12.682 -0.2960 -0.0068 -0.0707
   56DOPE    HA 7112   4.008   2.987  12.760  0.2687  1.9369 -0.6169
   56DOPE    HB 7113   3.948   2.895  12.621  0.8468  0.0196  0.2275
   56DOPE    C2 7114   3.804   2.965  12.765  0.0127  0.3786 -0.7389
   56DOPE    HS 7115   3.720   3.005  12.705 -0.3203  2.9006  1.2319
   56DOPE   O21 7116   3.815   3.031  12.887 -0.1140 -0.0900 -0.2447
   56DOPE   C21 7117   3.709   3.042  12.962 -0.8329  0.4569  0.4567
   56DOPE   O22 7118   3.598   3.030  12.916 -0.4047 -0.2800 -0.2050
   56DOPE   C22 7119   3.746   3.061  13.103 -0.2861  0.3888 -0.5763
   56DOPE   H2R 7120   3.829   3.134  13.115 -0.9210  0.8058  1.9403
   56DOPE   H2S 7121   3.787   2.965  13.142  1.1597  1.5227  0.8479
   56DOPE    C3 7122   3.779   2.810  12.799 -0.5970  0.1587  0.4375
   56DOPE    HX 7123   3.768   2.761  12.700 -2.2017  0.4495  0.4410
   56DOPE    HY 7124   3.679   2.809  12.847 -2.2982 -1.0074 -2.7895
   56DOPE   O31 7125   3.880   2.749  12.882  0.1558 -0.0611  0.0653
   56DOPE   C31 7126   3.843   2.628  12.923  0.7593 -0.6863  0.1118
   56DOPE   O32 7127   3.729   2.585  12.907  0.2056  0.9462 -0.2587
   56DOPE   C32 7128   3.960   2.570  13.003  1.1897  0.2831 -0.7339
   56DOPE   H2X 7129   4.032   2.549  12.921 -0.5740  1.7748 -2.7897
   56DOPE   H2Y 7130   4.010   2.639  13.075 -0.7587 -1.6279  2.7105
   56DOPE   C23 7131   3.635   3.095  13.204  0.6082  0.0253 -0.0092
   56DOPE   H3R 7132   3.555   3.019  13.191 -0.4095  1.0346  0.2130
   56DOPE   H3S 7133   3.581   3.185  13.167 -0.1076  0.3076  1.6326
   56DOPE   C24 7134   3.665   3.107  13.348  0.2361  0.3925 -0.6820
   56DOPE   H4R 7135   3.583   3.161  13.399 -0.1992 -0.8575 -0.0149
   56DOPE   H4S 7136   3.762   3.156  13.373 -0.5759  0.2375  3.5103
   56DOPE   C25 7137   3.665   2.968  13.419  0.9756  0.5941 -0.3807
   56DOPE   H5R 7138   3.742   2.899  13.379  1.5411  0.7703  0.3647
   56DOPE   H5S 7139   3.573   2.917  13.383 -0.5446  1.1426  2.4563
   56DOPE   C26 7140   3.660   2.965  13.569 -0.3835 -0.1920  0.4841
   56DOPE   H6R 7141   3.578   3.032  13.601  1.5321  2.0887  0.8427
   56DOPE   H6S 7142   3.755   3.015  13.597  0.1796 -1.6040  1.2102
   56DOPE   C27 7143   3.658   2.825  13.634 -0.2752 -0.5049  0.3452
   56DOPE   H7R 7144   3.734   2.752  13.597  1.9672  1.4472  0.8513
   56DOPE   H7S 7145   3.560   2.775  13.618 -0.1554 -0.3631 -0.9266
   56DOPE   C28 7146   3.694   2.836  13.789 -0.1057  0.3805  0.4710
   56DOPE   H8R 7147   3.777   2.910  13.800  0.9138 -0.6632  0.0783
   56DOPE   H8S 7148   3.727   2.733  13.818 -3.4739 -1.1861 -0.7997
   56DOPE   C29 7149   3.575   2.876  13.874  0.1121  0.5261  0.8844
   56DOPE   H9R 7150   3.528   2.970  13.840 -1.4710 -0.8194 -0.8668
   56DOPE  C210 7151   3.506   2.800  13.961 -0.4945  0.0202 -0.3524
   56DOPE  H10R 7152   3.425   2.855  14.011 -0.6921 -0.1422 -0.4900
   56DOPE  C211 7153   3.540   2.659  14.022  0.2283 -0.0751  0.3691
   56DOPE  H11R 7154   3.644   2.625  14.007 -0.0935 -0.4268 -1.3776
   56DOPE  H11S 7155   3.475   2.591  13.962  0.3892  0.3447 -0.2977
   56DOPE  C212 7156   3.485   2.660  14.164 -0.6927  0.5187  0.3805
   56DOPE  H12R 7157   3.376   2.685  14.169 -0.1809  3.2545 -0.2995
   56DOPE  H12S 7158   3.541   2.737  14.221  0.7961  0.0785 -0.4473
   56DOPE  C213 7159   3.496   2.519  14.226  0.5525 -0.2743 -0.7417
   56DOPE  H13R 7160   3.602   2.485  14.220  0.6756  0.0549 -0.4794
   56DOPE  H13S 7161   3.435   2.452  14.162 -1.4757  1.3540 -0.5957
   56DOPE  C214 7162   3.456   2.504  14.375 -0.6094 -0.1384 -0.1287
   56DOPE  H14R 7163   3.489   2.405  14.412 -1.6229 -1.2053 -1.9138
   56DOPE  H14S 7164   3.345   2.506  14.381 -0.7005 -2.3239 -0.2267
   56DOPE  C215 7165   3.494   2.626  14.455 -0.3334 -0.4942 -0.0675
   56DOPE  H15R 7166   3.447   2.716  14.410  2.1344  1.1808  0.5219
   56DOPE  H15S 7167   3.601   2.647  14.434 -0.4256 -0.6559 -0.7502
   56DOPE  C216 7168   3.467   2.609  14.605  0.0666 -0.1028  0.3492
   56DOPE  H16R 7169   3.509   2.513  14.644 -0.9051 -0.7743 -0.2116
   56DOPE  H16S 7170   3.357   2.599  14.616  0.0107 -1.8212 -1.1915
   56DOPE  C217 7171   3.525   2.723  14.683 -0.3157 -0.1930 -0.2147
   56DOPE  H17R 7172   3.508   2.823  14.638  0.6518 -0.7284 -1.8513
   56DOPE  H17S 7173   3.635   2.704  14.686  0.0467  1.4167 -1.6520
   56DOPE  C218 7174   3.474   2.720  14.826 -0.5741 -0.0185  0.0394
   56DOPE  H18R 7175   3.375   2.769  14.827 -0.3102  0.5462  1.5642
   56DOPE  H18S 7176   3.553   2.755  14.897  1.3437 -2.6950 -0.6091
   56DOPE  H18T 7177   3.458   2.614  14.856  0.5721 -0.4073 -0.6393
   56DOPE   C33 7178   3.944   2.440  13.085 -0.2663  0.6170 -0.7603
   56DOPE   H3X 7179   4.047   2.405  13.105 -0.7674  0.7443  2.7603
   56DOPE   H3Y 7180   3.884   2.363  13.031  0.0325  0.8965 -1.5041
   56DOPE   C34 7181   3.892   2.461  13.234 -0.2502  0.9033  0.5040
   56DOPE   H4X 7182   3.795   2.512  13.219 -1.3149 -1.4010 -1.0899
   56DOPE   H4Y 7183   3.883   2.357  13.273  0.9613 -0.0639 -1.6105
   56DOPE   C35 7184   3.986   2.549  13.322 -0.1152  0.1090  0.2739
   56DOPE   H5X 7185   3.984   2.657  13.298 -1.2523  0.1755  0.6281
   56DOPE   H5Y 7186   4.085   2.504  13.298 -1.3240 -1.4829 -2.2119
   56DOPE   C36 7187   3.966   2.530  13.470  0.2896 -0.5992 -0.4975
   56DOPE   H6X 7188   3.995   2.427  13.500 -0.3802 -0.6670 -0.0492
   56DOPE   H6Y 7189   3.860   2.545  13.502  0.8504 -0.5293  1.4167
   56DOPE   C37 7190   4.046   2.631  13.559 -0.3521 -0.4309  0.2906
   56DOPE   H7X 7191   4.155   2.611  13.550  0.3166  2.1561  1.6014
   56DOPE   H7Y 7192   4.022   2.737  13.533 -1.4451 -0.5145  0.8982
   56DOPE   C38 7193   4.005   2.616  13.710  0.0727  0.0550 -0.3633
   56DOPE   H8X 7194   3.896   2.636  13.719 -0.6063 -3.1774 -0.1889
   56DOPE   H8Y 7195   4.059   2.693  13.769  1.1094 -1.0906  0.2267
   56DOPE   C39 7196   4.020   2.483  13.784  0.3078 -0.0232  0.8109
   56DOPE   H9X 7197   4.066   2.405  13.721 -0.0123 -0.6914  1.3902
   56DOPE  C310 7198   4.004   2.460  13.915  0.0020  0.4273 -0.5601
   56DOPE  H10X 7199   4.025   2.359  13.952  0.9968  0.2501 -1.5452
   56DOPE  C311 7200   3.959   2.577  14.015  0.4637 -0.0091  0.1634
   56DOPE  H11X 7201   4.043   2.640  14.049 -0.3170  1.3349 -0.3160
   56DOPE  H11Y 7202   3.880   2.638  13.967  0.7540  0.2525  0.0193
   56DOPE  C312 7203   3.892   2.506  14.141 -0.5516  0.6428  0.1037
   56DOPE  H12X 7204   3.811   2.437  14.111  1.1051 -1.0291 -0.7193
   56DOPE  H12Y 7205   3.846   2.592  14.194 -1.7203  0.9433 -1.3344
   56DOPE  C313 7206   3.990   2.434  14.227 -0.4478  0.8291 -0.1400
   56DOPE  H13X 7207   4.015   2.336  14.182  1.1122  1.4508 -0.6727
   56DOPE  H13Y 7208   4.089   2.484  14.231 -0.2642  0.4658 -0.1798
   56DOPE  C314 7209   3.941   2.406  14.370 -0.2781  0.6924 -0.5453
   56DOPE  H14X 7210   4.019   2.342  14.417  1.8854  2.9687 -0.8653
   56DOPE  H14Y 7211   3.845   2.349  14.376  0.3498 -0.3081  0.5051
   56DOPE  C315 7212   3.927   2.526  14.459 -0.0759  1.2339 -0.2949
   56DOPE  H15X 7213   3.858   2.601  14.415 -1.3494  0.5273  0.4571
   56DOPE  H15Y 7214   4.030   2.569  14.456  2.2686 -3.6228  1.1900
   56DOPE  C316 7215   3.885   2.487  14.600  0.0036  0.0965 -0.3130
   56DOPE  H16X 7216   3.935   2.393  14.633  0.0314  0.4174  0.5906
   56DOPE  H16Y 7217   3.774   2.489  14.598 -0.0161 -0.4729 -2.2466
   56DOPE  C317 7218   3.935   2.588  14.700  0.0253 -0.5108  0.1195
   56DOPE  H17X 7219   4.043   2.609  14.682 -0.7278  2.0782 -1.8247
   56DOPE  H17Y 7220   3.881   2.683  14.683 -1.4050 -1.6893 -2.5690
   56DOPE  C318 7221   3.912   2.537  14.843  0.5788  0.0464 -0.1100
   56DOPE  H18X 7222   3.938   2.613  14.919 -1.0593  1.5974 -1.0183
   56DOPE  H18Y 7223   3.804   2.520  14.860  0.4129  1.9947  1.0988
   56DOPE  H18Z 7224   3.967   2.444  14.869 -0.9989 -0.7371  0.5052
   57DOPE     N 7225   1.867   4.088  12.666 -0.3302  0.5966 -0.0713
   57DOPE   HN1 7226   1.845   4.186  12.638  0.7845  1.2558  1.2689
   57DOPE   HN2 7227   1.965   4.069  12.638 -1.2864 -1.0950 -2.6079
   57DOPE   HN3 7228   1.819   4.029  12.595  2.3490  1.2403 -2.6148
   57DOPE   C12 7229   1.830   4.054  12.813  0.0136 -0.1000 -0.2455
   57DOPE  H12A 7230   1.849   3.946  12.829 -1.4918 -0.8083 -2.6619
   57DOPE  H12B 7231   1.727   4.088  12.834  0.2731  1.5218 -1.3604
   57DOPE   C11 7232   1.914   4.152  12.899  0.2288 -0.0199  0.0399
   57DOPE  H11A 7233   1.892   4.133  13.006  0.4225  0.1894  0.1184
   57DOPE  H11B 7234   1.875   4.254  12.877  1.7311  0.4499 -0.6204
   57DOPE     P 7235   2.148   4.041  12.914 -0.1142 -0.1858 -0.3813
   57DOPE   O13 7236   2.292   4.085  12.928 -0.0670 -0.1201 -0.0041
   57DOPE   O14 7237   2.118   3.932  12.821 -0.2756  0.6449  0.4616
   57DOPE   O11 7238   2.086   3.998  13.055 -0.4262 -0.6307  0.1821
   57DOPE   O12 7239   2.054   4.155  12.870 -0.3647 -0.4750 -0.5331
   57DOPE    C1 7240   2.101   4.094  13.164  0.3089  0.3366 -0.2441
   57DOPE    HA 7241   2.004   4.124  13.210  1.6844  1.9700  1.7998
   57DOPE    HB 7242   2.151   4.186  13.128  1.0233  0.1221  0.1726
   57DOPE    C2 7243   2.179   4.039  13.279  0.7349  0.9606  0.0927
   57DOPE    HS 7244   2.270   3.990  13.238 -0.4625  0.8001 -2.5833
   57DOPE   O21 7245   2.089   3.960  13.362 -0.9290  0.1389  0.6807
   57DOPE   C21 7246   2.158   3.853  13.409  0.6147  0.3408  0.5465
   57DOPE   O22 7247   2.266   3.823  13.373  0.0022  0.3044 -0.4774
   57DOPE   C22 7248   2.068   3.768  13.498  0.0379  0.5108  0.2992
   57DOPE   H2R 7249   2.126   3.735  13.586 -0.9014  2.3281  1.6567
   57DOPE   H2S 7250   2.030   3.693  13.424  1.4703  0.6295 -0.5825
   57DOPE    C3 7251   2.241   4.157  13.372 -0.2220 -0.4425  0.8902
   57DOPE    HX 7252   2.276   4.232  13.298 -3.6745  1.1368  0.6238
   57DOPE    HY 7253   2.330   4.120  13.426  0.5923 -0.3969 -0.3759
   57DOPE   O31 7254   2.134   4.224  13.446 -0.8821  0.8429 -0.0481
   57DOPE   C31 7255   2.129   4.201  13.584 -0.3273  0.7300  0.5498
   57DOPE   O32 7256   2.189   4.113  13.646  0.3398 -0.1897  0.3729
   57DOPE   C32 7257   2.029   4.297  13.659  0.4611  0.0452 -0.1953
   57DOPE   H2X 7258   2.082   4.395  13.660 -0.2787  0.4458  0.5871
   57DOPE   H2Y 7259   1.933   4.305  13.605 -0.1175 -0.1633  0.7776
   57DOPE   C23 7260   1.960   3.845  13.573 -0.0312 -0.0992  0.0585
   57DOPE   H3R 7261   1.887   3.889  13.501 -0.9717 -0.2036  0.9304
   57DOPE   H3S 7262   1.999   3.929  13.634 -3.8832  2.8874 -1.1078
   57DOPE   C24 7263   1.879   3.743  13.661  0.2213  0.0848 -0.0923
   57DOPE   H4R 7264   1.856   3.653  13.600 -0.6530 -1.2473  2.0723
   57DOPE   H4S 7265   1.788   3.796  13.696  0.9532  1.0956  0.3264
   57DOPE   C25 7266   1.928   3.696  13.800 -0.5637  0.5050  0.2788
   57DOPE   H5R 7267   1.917   3.784  13.867  0.5248 -0.4327  1.7415
   57DOPE   H5S 7268   2.033   3.662  13.784 -1.1675 -0.8243 -1.1953
   57DOPE   C26 7269   1.856   3.573  13.852  0.3857  0.1551  0.6130
   57DOPE   H6R 7270   1.860   3.484  13.786 -3.2762 -0.2631  0.7501
   57DOPE   H6S 7271   1.747   3.590  13.866  0.2959 -0.1803  0.3282
   57DOPE   C27 7272   1.925   3.534  13.983  0.0883 -0.6838 -0.4762
   57DOPE   H7R 7273   1.932   3.621  14.053 -0.5526 -0.0900 -1.1228
   57DOPE   H7S 7274   2.027   3.499  13.961  0.0987 -1.3417  0.5516
   57DOPE   C28 7275   1.862   3.413  14.052 -0.5773 -0.4222 -0.0604
   57DOPE   H8R 7276   1.944   3.366  14.109  1.2098  0.9029 -1.4344
   57DOPE   H8S 7277   1.839   3.332  13.979 -4.0271 -0.3508  0.7661
   57DOPE   C29 7278   1.742   3.440  14.136  0.2994 -0.3389  0.4762
   57DOPE   H9R 7279   1.652   3.464  14.078 -0.2654  1.3977  1.9752
   57DOPE  C210 7280   1.720   3.430  14.265  0.0507  0.5306 -0.2930
   57DOPE  H10R 7281   1.619   3.460  14.299 -0.3043 -0.0662 -0.7896
   57DOPE  C211 7282   1.813   3.385  14.375  0.1035  0.4021 -0.4010
   57DOPE  H11R 7283   1.827   3.462  14.454 -2.2122 -1.3532  1.9320
   57DOPE  H11S 7284   1.914   3.368  14.334  0.4367 -0.7381  0.8205
   57DOPE  C212 7285   1.757   3.261  14.449 -0.0070 -0.6708  0.5419
   57DOPE  H12R 7286   1.741   3.180  14.375  1.7608 -0.6356  0.0854
   57DOPE  H12S 7287   1.655   3.281  14.488 -0.1305 -0.5701  0.1765
   57DOPE  C213 7288   1.854   3.214  14.560 -0.4461 -0.1905  0.2243
   57DOPE  H13R 7289   1.866   3.300  14.629  2.0204  0.8244 -1.3234
   57DOPE  H13S 7290   1.956   3.201  14.519 -0.1140  0.5558  0.8014
   57DOPE  C214 7291   1.798   3.093  14.641 -0.5608 -0.6572  0.0923
   57DOPE  H14R 7292   1.770   3.006  14.577  0.4387 -0.6907 -0.3057
   57DOPE  H14S 7293   1.703   3.133  14.682 -0.8436 -0.9952 -0.2148
   57DOPE  C215 7294   1.893   3.051  14.750 -0.2523  0.1057  0.2930
   57DOPE  H15R 7295   1.926   3.143  14.802  2.5736 -0.5898 -0.0959
   57DOPE  H15S 7296   1.987   3.014  14.705  0.0067 -1.9047  2.2689
   57DOPE  C216 7297   1.826   2.952  14.843 -0.5982 -0.3051 -0.5674
   57DOPE  H16R 7298   1.794   2.865  14.783 -0.4477  1.2524 -3.0332
   57DOPE  H16S 7299   1.747   3.001  14.904  0.6264  1.6191 -0.4358
   57DOPE  C217 7300   1.920   2.907  14.957 -0.4367  0.1941  0.0891
   57DOPE  H17R 7301   1.990   2.988  14.987  1.7777 -1.9357  1.0211
   57DOPE  H17S 7302   1.985   2.829  14.913 -1.7242  0.5238 -2.5671
   57DOPE  C218 7303   1.852   2.841  15.078  0.0242 -0.1107 -0.4268
   57DOPE  H18R 7304   1.783   2.759  15.049 -2.0307  0.7001  1.8354
   57DOPE  H18S 7305   1.780   2.914  15.121 -0.0018 -0.3864  0.0013
   57DOPE  H18T 7306   1.924   2.802  15.152  0.4875 -1.5318 -1.5842
   57DOPE   C33 7307   1.977   4.256  13.797 -0.6839  0.1026  0.2454
   57DOPE   H3X 7308   2.073   4.250  13.854 -0.6196  0.0356  0.1307
   57DOPE   H3Y 7309   1.935   4.153  13.795 -1.2292  0.3361 -0.8593
   57DOPE   C34 7310   1.893   4.362  13.870 -0.0562 -0.1436  0.2769
   57DOPE   H4X 7311   1.944   4.461  13.874 -1.1945  0.4693 -0.0243
   57DOPE   H4Y 7312   1.794   4.371  13.822  0.2735 -0.5662 -0.5020
   57DOPE   C35 7313   1.867   4.312  14.013 -0.1643 -1.0019 -0.6186
   57DOPE   H5X 7314   1.958   4.323  14.076 -1.6046  1.5033  1.1701
   57DOPE   H5Y 7315   1.834   4.206  14.011 -2.3930 -0.3752  0.1772
   57DOPE   C36 7316   1.748   4.385  14.080 -0.5243  0.0385  0.2303
   57DOPE   H6X 7317   1.668   4.398  14.003  1.3330 -0.1186 -1.8201
   57DOPE   H6Y 7318   1.791   4.486  14.096  3.3632 -1.1588 -1.5386
   57DOPE   C37 7319   1.709   4.323  14.213  0.2049  0.3679 -0.1232
   57DOPE   H7X 7320   1.610   4.359  14.247 -0.0797 -0.8189  0.3669
   57DOPE   H7Y 7321   1.695   4.217  14.183 -0.3303  0.0033  1.2942
   57DOPE   C38 7322   1.814   4.329  14.322 -0.1912  0.5663  0.3239
   57DOPE   H8X 7323   1.797   4.424  14.377 -1.7340  2.0988 -2.5480
   57DOPE   H8Y 7324   1.917   4.329  14.280 -0.6535  2.2344 -0.9366
   57DOPE   C39 7325   1.789   4.219  14.425 -0.4123 -0.4543  0.1977
   57DOPE   H9X 7326   1.721   4.137  14.397 -1.7681  1.0194 -0.9989
   57DOPE  C310 7327   1.851   4.210  14.545  0.0035 -0.5941 -0.4079
   57DOPE  H10X 7328   1.842   4.122  14.609  1.1880 -0.3902  0.0655
   57DOPE  C311 7329   1.934   4.325  14.604  0.5394  0.0825  0.2827
   57DOPE  H11X 7330   1.990   4.377  14.523 -0.2105 -0.4994 -0.6314
   57DOPE  H11Y 7331   1.871   4.409  14.639 -0.0704 -0.1944 -0.1384
   57DOPE  C312 7332   2.037   4.288  14.707 -0.7192 -0.5773  0.5540
   57DOPE  H12X 7333   2.090   4.376  14.750 -1.1709  0.0328 -0.1216
   57DOPE  H12Y 7334   2.100   4.212  14.657 -1.8893 -0.9281 -0.4296
   57DOPE  C313 7335   1.984   4.233  14.841  0.1137  0.0229 -0.0939
   57DOPE  H13X 7336   1.919   4.143  14.830 -0.4598  0.4683 -0.3932
   57DOPE  H13Y 7337   2.067   4.200  14.907 -0.5977  0.9135  1.2986
   57DOPE  C314 7338   1.907   4.345  14.923 -0.0322  0.2334  0.7345
   57DOPE  H14X 7339   1.817   4.360  14.858 -0.2185 -3.5505 -0.1532
   57DOPE  H14Y 7340   1.972   4.434  14.914  0.3456 -0.0698  0.4558
   57DOPE  C315 7341   1.874   4.312  15.060  0.2425 -0.2364 -0.3021
   57DOPE  H15X 7342   1.970   4.292  15.113  0.6540 -1.0735 -1.3256
   57DOPE  H15Y 7343   1.805   4.226  15.067 -1.6317  1.1550 -0.9191
   57DOPE  C316 7344   1.823   4.433  15.135  0.2285 -0.1762 -0.2010
   57DOPE  H16X 7345   1.728   4.462  15.084 -1.2764 -2.9469  0.7698
   57DOPE  H16Y 7346   1.892   4.520  15.133 -0.3361  0.4085  2.2398
   57DOPE  C317 7347   1.789   4.427  15.282  0.3108  0.1288  0.4206
   57DOPE  H17X 7348   1.744   4.327  15.301  0.2904 -0.0637 -0.5639
   57DOPE  H17Y 7349   1.881   4.438  15.343  1.1408  1.8159 -1.0513
   57DOPE  C318 7350   1.700   4.545  15.337  0.0876  0.2183 -0.5457
   57DOPE  H18X 7351   1.631   4.585  15.260  0.0908 -0.0783 -0.7001
   57DOPE  H18Y 7352   1.635   4.531  15.426  0.4259 -1.4966 -0.5415
   57DOPE  H18Z 7353   1.766   4.630  15.366 -0.3139  0.1604  0.6017
   58DOPE     N 7354   2.579   2.960  12.541 -0.6319  0.2338 -0.1922
   58DOPE   HN1 7355   2.536   2.894  12.473  0.8144 -1.0709  0.0818
   58DOPE   HN2 7356   2.535   3.053  12.555  0.8441  0.7709  1.2175
   58DOPE   HN3 7357   2.679   2.964  12.510 -0.6132 -2.0661 -0.6304
   58DOPE   C12 7358   2.598   2.884  12.667  0.7811  0.8886  0.2902
   58DOPE  H12A 7359   2.574   2.957  12.747 -0.6588 -0.1377  0.8412
   58DOPE  H12B 7360   2.707   2.866  12.664  0.6692 -0.4896  2.3750
   58DOPE   C11 7361   2.514   2.757  12.674  0.3518  0.0031  0.1581
   58DOPE  H11A 7362   2.406   2.778  12.657  0.0618 -0.0805  1.6983
   58DOPE  H11B 7363   2.515   2.727  12.781  2.3457 -2.7849 -0.5366
   58DOPE     P 7364   2.534   2.499  12.606  0.0618  0.2410 -0.2862
   58DOPE   O13 7365   2.591   2.428  12.492  0.0700 -0.5093  0.0008
   58DOPE   O14 7366   2.391   2.480  12.623 -0.1135 -0.1960 -0.2845
   58DOPE   O11 7367   2.602   2.462  12.747 -0.0895  0.0216  0.8250
   58DOPE   O12 7368   2.567   2.653  12.583  0.2348 -0.6412 -0.2128
   58DOPE    C1 7369   2.610   2.321  12.778  0.3880 -0.4459  0.5590
   58DOPE    HA 7370   2.676   2.310  12.866 -0.2682 -1.2626  0.9662
   58DOPE    HB 7371   2.655   2.261  12.697 -0.5266  0.9816 -1.0724
   58DOPE    C2 7372   2.472   2.256  12.813  0.2279 -0.2297 -0.1345
   58DOPE    HS 7373   2.405   2.261  12.724  0.6379 -1.8385 -0.5759
   58DOPE   O21 7374   2.427   2.328  12.927  0.3201  0.6086  0.1920
   58DOPE   C21 7375   2.290   2.334  12.938 -0.1251 -0.5703  0.0894
   58DOPE   O22 7376   2.211   2.268  12.871 -0.1852 -0.1221 -0.0516
   58DOPE   C22 7377   2.254   2.438  13.036 -0.5397 -0.0191  1.2727
   58DOPE   H2R 7378   2.185   2.506  12.981 -1.1972 -1.0994  0.7257
   58DOPE   H2S 7379   2.345   2.495  13.063  0.9425 -1.0408 -1.2615
   58DOPE    C3 7380   2.490   2.102  12.855  0.1535  0.2382  0.1472
   58DOPE    HX 7381   2.510   2.046  12.761  0.0093  0.6956 -0.1532
   58DOPE    HY 7382   2.392   2.059  12.886 -0.8929  2.2669 -0.2202
   58DOPE   O31 7383   2.591   2.089  12.964  0.2494  0.1262 -0.0619
   58DOPE   C31 7384   2.586   1.971  13.025  0.5081 -0.4295 -0.6171
   58DOPE   O32 7385   2.529   1.871  12.992  0.1483  0.0255 -0.3332
   58DOPE   C32 7386   2.647   1.989  13.164 -0.2920  0.1487 -0.2732
   58DOPE   H2X 7387   2.671   1.893  13.214 -1.0346 -0.1785 -0.5323
   58DOPE   H2Y 7388   2.745   2.040  13.155 -1.3453  2.2007 -0.7570
   58DOPE   C23 7389   2.185   2.388  13.167  0.4202 -0.1338 -0.4841
   58DOPE   H3R 7390   2.199   2.465  13.246  1.7285  0.6668 -1.4629
   58DOPE   H3S 7391   2.228   2.294  13.206 -2.0299 -1.2133 -0.1874
   58DOPE   C24 7392   2.032   2.362  13.155 -0.2374  0.3908  0.1770
   58DOPE   H4R 7393   2.025   2.277  13.084  0.2609  0.1217  0.4448
   58DOPE   H4S 7394   1.976   2.452  13.122  1.6217  1.7707  0.6088
   58DOPE   C25 7395   1.955   2.331  13.290 -0.2344  0.4628  0.4310
   58DOPE   H5R 7396   1.996   2.237  13.333  2.8779  0.4488 -2.1175
   58DOPE   H5S 7397   1.848   2.310  13.269  0.0218 -2.1618  1.3108
   58DOPE   C26 7398   1.963   2.445  13.392 -0.1324  0.0609 -0.3581
   58DOPE   H6R 7399   2.067   2.484  13.400  1.4995 -3.4296 -1.9669
   58DOPE   H6S 7400   1.931   2.405  13.491 -1.8176  0.1519 -0.8324
   58DOPE   C27 7401   1.863   2.551  13.347  0.0363 -0.5012 -0.4880
   58DOPE   H7R 7402   1.764   2.500  13.339 -0.5496  0.5044  0.0961
   58DOPE   H7S 7403   1.886   2.604  13.253  0.0142 -0.7456 -0.6309
   58DOPE   C28 7404   1.857   2.668  13.452 -0.3399 -0.3206  0.3868
   58DOPE   H8R 7405   1.963   2.693  13.475 -0.5047 -0.8066  1.7166
   58DOPE   H8S 7406   1.807   2.639  13.547 -2.1517 -1.3825 -0.8317
   58DOPE   C29 7407   1.780   2.783  13.390  0.9425 -0.0139 -0.5131
   58DOPE   H9R 7408   1.724   2.748  13.302 -0.9624  0.2831  0.5208
   58DOPE  C210 7409   1.797   2.913  13.424  1.0577 -0.4605 -0.1914
   58DOPE  H10R 7410   1.740   2.993  13.374  2.8969 -0.4240 -2.4177
   58DOPE  C211 7411   1.886   2.957  13.535  0.4767 -0.0988 -0.0988
   58DOPE  H11R 7412   1.967   3.014  13.485 -0.2517  1.6678  0.6426
   58DOPE  H11S 7413   1.921   2.869  13.592  2.3990 -0.0401 -1.1017
   58DOPE  C212 7414   1.824   3.057  13.627  0.0352  0.4054  0.0866
   58DOPE  H12R 7415   1.725   3.026  13.666  0.3685  1.1068  1.5714
   58DOPE  H12S 7416   1.813   3.153  13.571  1.3778  0.3407 -0.3296
   58DOPE  C213 7417   1.909   3.103  13.750 -0.4875  0.4667  0.2953
   58DOPE  H13R 7418   1.895   3.213  13.761  0.0017  0.4282  1.5156
   58DOPE  H13S 7419   2.019   3.089  13.736 -0.3065  1.9605  0.0498
   58DOPE  C214 7420   1.880   3.013  13.867 -0.2612 -0.3867  0.5559
   58DOPE  H14R 7421   1.896   2.911  13.825  1.2839  0.6221 -1.4344
   58DOPE  H14S 7422   1.774   3.026  13.900 -1.3251 -1.2069 -2.2749
   58DOPE  C215 7423   1.966   3.048  13.982  0.3667  0.2503 -0.0312
   58DOPE  H15R 7424   1.964   3.158  14.002  0.5742  0.1479  0.5794
   58DOPE  H15S 7425   2.069   3.018  13.953 -0.1201 -0.8587 -0.6922
   58DOPE  C216 7426   1.914   2.982  14.111  0.1417  0.2486 -0.5237
   58DOPE  H16R 7427   1.897   2.874  14.087  2.1451 -0.4689  1.0503
   58DOPE  H16S 7428   1.815   3.026  14.135 -0.9033 -2.1653 -0.0746
   58DOPE  C217 7429   2.005   2.984  14.229 -0.6734  0.5601  0.0354
   58DOPE  H17R 7430   2.033   3.085  14.263 -0.8742  0.5281  0.2995
   58DOPE  H17S 7431   2.097   2.939  14.185 -2.7704 -1.6608 -2.4354
   58DOPE  C218 7432   1.954   2.898  14.341 -1.1681 -0.0117 -0.2283
   58DOPE  H18R 7433   2.016   2.899  14.433  1.1114 -1.0978 -1.6420
   58DOPE  H18S 7434   1.958   2.793  14.305  2.9162 -0.0759 -0.1354
   58DOPE  H18T 7435   1.850   2.924  14.367 -0.8680 -0.6382  1.7528
   58DOPE   C33 7436   2.561   2.071  13.260  0.2511 -0.6528  0.1472
   58DOPE   H3X 7437   2.514   2.156  13.207  0.6862  0.0785  0.8982
   58DOPE   H3Y 7438   2.625   2.113  13.341 -0.1463 -1.5983  0.9629
   58DOPE   C34 7439   2.453   1.991  13.319  0.1035  0.1743 -0.3001
   58DOPE   H4X 7440   2.392   1.928  13.250 -1.9877 -1.3548  2.7141
   58DOPE   H4Y 7441   2.518   1.928  13.382 -0.9541 -1.0128 -0.3604
   58DOPE   C35 7442   2.362   2.080  13.417  0.6092 -0.4133 -0.0086
   58DOPE   H5X 7443   2.303   2.151  13.355 -0.2280  0.5069  1.7361
   58DOPE   H5Y 7444   2.437   2.146  13.466  0.2204 -0.9220  1.3224
   58DOPE   C36 7445   2.266   2.010  13.512 -0.0021 -0.3406 -0.4107
   58DOPE   H6X 7446   2.230   2.100  13.567 -0.3242  0.9503 -2.6026
   58DOPE   H6Y 7447   2.328   1.944  13.576  1.6469  2.2471  0.8418
   58DOPE   C37 7448   2.162   1.927  13.446  0.1424  0.0984  0.3516
   58DOPE   H7X 7449   2.087   1.993  13.397 -0.7001 -1.3986 -0.4515
   58DOPE   H7Y 7450   2.213   1.876  13.363 -0.7851 -0.7449  0.2858
   58DOPE   C38 7451   2.104   1.830  13.541  0.5523  0.3974 -0.9397
   58DOPE   H8X 7452   2.192   1.770  13.572 -0.3129 -0.2841  0.2685
   58DOPE   H8Y 7453   2.038   1.761  13.484 -1.2435  0.3712  1.0628
   58DOPE   C39 7454   2.003   1.882  13.648 -0.8623  0.1066 -0.0843
   58DOPE   H9X 7455   1.915   1.938  13.615 -1.1824  0.7188  1.6919
   58DOPE  C310 7456   2.028   1.877  13.781 -0.0609 -0.3768  0.7161
   58DOPE  H10X 7457   1.957   1.934  13.842 -2.6860  1.2396 -3.4321
   58DOPE  C311 7458   2.147   1.813  13.850  0.1011 -0.2323 -0.6435
   58DOPE  H11X 7459   2.109   1.731  13.914  0.8626 -1.2677 -1.4873
   58DOPE  H11Y 7460   2.209   1.756  13.778  0.2482  0.7221 -1.3024
   58DOPE  C312 7461   2.242   1.906  13.932  0.2833 -0.0651  0.4622
   58DOPE  H12X 7462   2.287   1.971  13.853  0.3711 -0.5896  0.0782
   58DOPE  H12Y 7463   2.329   1.848  13.970  1.2972  1.0185 -0.1150
   58DOPE  C313 7464   2.166   1.978  14.047  0.3186  0.0269  0.0365
   58DOPE  H13X 7465   2.237   2.056  14.080  1.4308  0.1618 -2.4475
   58DOPE  H13Y 7466   2.074   2.025  14.005  1.5884  1.7231 -0.9652
   58DOPE  C314 7467   2.133   1.897  14.170 -0.0315 -0.1214  0.3967
   58DOPE  H14X 7468   2.222   1.891  14.237 -0.6856  0.6581  1.3663
   58DOPE  H14Y 7469   2.102   1.794  14.145 -0.3016 -0.7700  3.1171
   58DOPE  C315 7470   2.016   1.949  14.255 -0.3138  0.1488 -0.4364
   58DOPE  H15X 7471   1.915   1.926  14.214 -0.5902 -1.5056  1.0355
   58DOPE  H15Y 7472   2.022   2.057  14.279  0.6143  0.2450 -1.0655
   58DOPE  C316 7473   2.020   1.872  14.396  0.4706  0.0858  0.4181
   58DOPE  H16X 7474   2.121   1.873  14.442  0.4471 -1.3710  0.5579
   58DOPE  H16Y 7475   1.986   1.767  14.382  1.5550 -0.1002 -1.1287
   58DOPE  C317 7476   1.917   1.943  14.489 -0.2907 -0.2106 -0.3178
   58DOPE  H17X 7477   1.816   1.949  14.443  0.1426 -0.8792 -1.4167
   58DOPE  H17Y 7478   1.904   1.886  14.583 -0.6196  1.3557  0.6206
   58DOPE  C318 7479   1.964   2.081  14.544 -0.1608 -0.1770 -0.9067
   58DOPE  H18X 7480   2.066   2.087  14.588 -0.7021  0.1670  0.3474
   58DOPE  H18Y 7481   1.947   2.161  14.468 -2.7658 -0.4658 -0.7058
   58DOPE  H18Z 7482   1.902   2.107  14.633  0.7635  0.0950 -0.3149
   59DOPE     N 7483   2.402   4.990  13.153  0.7163 -0.1459  0.4915
   59DOPE   HN1 7484   2.454   4.967  13.066  2.2508 -0.0363  1.3448
   59DOPE   HN2 7485   2.330   4.915  13.164  2.7849 -2.2530  0.3289
   59DOPE   HN3 7486   2.354   5.083  13.157 -1.1481 -0.8839 -1.9921
   59DOPE   C12 7487   2.507   4.985  13.262  0.4741  0.0710 -0.1789
   59DOPE  H12A 7488   2.468   5.036  13.353 -2.1633  1.5992 -2.0178
   59DOPE  H12B 7489   2.587   5.051  13.222 -1.7346  1.7698 -2.1133
   59DOPE   C11 7490   2.563   4.842  13.262  0.0740  0.3052 -0.1321
   59DOPE  H11A 7491   2.478   4.772  13.281  0.1912  0.8300  2.7748
   59DOPE  H11B 7492   2.637   4.839  13.345  0.8036  2.0849 -0.6728
   59DOPE     P 7493   2.774   4.851  13.111 -0.3800 -0.3775  0.9761
   59DOPE   O13 7494   2.798   4.994  13.143  0.7257 -0.3754 -0.1064
   59DOPE   O14 7495   2.814   4.806  12.974 -0.4548  0.1335  0.1125
   59DOPE   O11 7496   2.845   4.770  13.222 -0.1447 -0.1602  0.3742
   59DOPE   O12 7497   2.622   4.816  13.126  0.1151 -0.1058 -0.3184
   59DOPE    C1 7498   2.831   4.627  13.228 -0.2076  0.1019 -0.5075
   59DOPE    HA 7499   2.913   4.583  13.167 -0.0222 -0.9366  0.4604
   59DOPE    HB 7500   2.730   4.588  13.201 -1.0410  0.0914  2.3437
   59DOPE    C2 7501   2.853   4.571  13.372  0.0664  0.0022 -0.0775
   59DOPE    HS 7502   2.851   4.461  13.363 -0.8999 -0.0300  0.4274
   59DOPE   O21 7503   2.756   4.614  13.459 -0.5658 -0.3361 -0.2702
   59DOPE   C21 7504   2.632   4.547  13.448  0.0931 -0.0228 -0.3436
   59DOPE   O22 7505   2.607   4.464  13.366 -0.3140 -0.2860  0.0400
   59DOPE   C22 7506   2.533   4.594  13.556 -0.8887 -0.3357  0.1448
   59DOPE   H2R 7507   2.477   4.682  13.519  1.0282  0.8679 -0.0656
   59DOPE   H2S 7508   2.595   4.628  13.643  1.4099  0.5686 -1.7352
   59DOPE    C3 7509   2.992   4.604  13.429  0.1144 -0.5627 -0.1992
   59DOPE    HX 7510   3.003   4.715  13.425  0.3099 -0.6157 -2.2133
   59DOPE    HY 7511   3.066   4.570  13.354  1.0364 -2.0345  1.3359
   59DOPE   O31 7512   3.012   4.564  13.560 -0.4679  0.7596 -0.5172
   59DOPE   C31 7513   3.127   4.586  13.614 -0.8640 -0.1648 -0.5578
   59DOPE   O32 7514   3.231   4.616  13.561  0.3177 -0.2398  0.2611
   59DOPE   C32 7515   3.115   4.568  13.760  0.1343 -0.2046 -0.2219
   59DOPE   H2X 7516   3.008   4.570  13.787  0.5038 -0.8965  1.4288
   59DOPE   H2Y 7517   3.160   4.471  13.791  0.2479 -1.1083 -2.9141
   59DOPE   C23 7518   2.438   4.481  13.590  0.7639 -0.5697  0.8537
   59DOPE   H3R 7519   2.490   4.386  13.615  0.5812 -0.8352  0.2572
   59DOPE   H3S 7520   2.371   4.461  13.503  0.6858  1.5523  0.3740
   59DOPE   C24 7521   2.359   4.536  13.710  0.0274 -0.1222  0.4599
   59DOPE   H4R 7522   2.254   4.503  13.694  0.1777  0.4810 -2.0772
   59DOPE   H4S 7523   2.352   4.647  13.717  0.4571 -0.0410 -0.3857
   59DOPE   C25 7524   2.399   4.467  13.839 -0.5234 -0.2253 -0.1443
   59DOPE   H5R 7525   2.503   4.498  13.863 -0.7669 -0.1413  0.8515
   59DOPE   H5S 7526   2.386   4.357  13.831  2.0851 -0.5918 -0.3560
   59DOPE   C26 7527   2.309   4.512  13.956  0.6232  0.7061 -0.2859
   59DOPE   H6R 7528   2.210   4.464  13.970  0.8525  0.5418  0.8548
   59DOPE   H6S 7529   2.280   4.619  13.958 -0.0717  0.5087  1.0015
   59DOPE   C27 7530   2.383   4.480  14.091  0.0377  0.1987  0.0892
   59DOPE   H7R 7531   2.486   4.521  14.089  1.0919 -2.2164  1.2418
   59DOPE   H7S 7532   2.404   4.371  14.103 -3.3616 -0.6140 -0.3588
   59DOPE   C28 7533   2.305   4.538  14.208  0.5180  0.4476  0.5465
   59DOPE   H8R 7534   2.238   4.622  14.182 -0.7203 -1.0412 -1.3949
   59DOPE   H8S 7535   2.376   4.575  14.285  3.3728  1.8758 -2.4739
   59DOPE   C29 7536   2.217   4.426  14.254 -0.1528 -0.2828  0.1316
   59DOPE   H9R 7537   2.150   4.386  14.177  2.0758 -1.7346 -1.1477
   59DOPE  C210 7538   2.229   4.373  14.377 -0.1851  0.1881 -0.2309
   59DOPE  H10R 7539   2.173   4.280  14.392  0.6706 -0.2644  0.1999
   59DOPE  C211 7540   2.324   4.420  14.481 -0.3359  0.0644 -0.0943
   59DOPE  H11R 7541   2.289   4.400  14.585  0.9209 -0.0123  0.3337
   59DOPE  H11S 7542   2.331   4.530  14.476 -1.2842  0.1685  0.6143
   59DOPE  C212 7543   2.460   4.353  14.460 -0.8166  0.1074  0.8946
   59DOPE  H12R 7544   2.540   4.396  14.523  0.2742 -0.8439  0.2093
   59DOPE  H12S 7545   2.491   4.371  14.355 -0.4096 -1.4377  0.7258
   59DOPE  C213 7546   2.441   4.200  14.481 -0.5318 -0.3114  0.1924
   59DOPE  H13R 7547   2.529   4.145  14.440 -0.8907 -0.6311 -0.1575
   59DOPE  H13S 7548   2.352   4.160  14.428 -1.0814 -0.1077  0.9525
   59DOPE  C214 7549   2.435   4.155  14.630 -0.1285  0.6510 -0.0782
   59DOPE  H14R 7550   2.332   4.165  14.671 -0.1986 -2.7567  0.9303
   59DOPE  H14S 7551   2.491   4.229  14.690  0.2693 -1.7351  2.6998
   59DOPE  C215 7552   2.482   4.010  14.658 -0.2824  0.2728  0.4874
   59DOPE  H15R 7553   2.593   4.002  14.651 -0.0638  0.0218  3.1819
   59DOPE  H15S 7554   2.434   3.942  14.584  1.1663 -1.4872  1.0717
   59DOPE  C216 7555   2.436   3.954  14.789  0.0026  0.2964 -0.4083
   59DOPE  H16R 7556   2.422   3.845  14.777 -1.1226  0.6284 -2.4782
   59DOPE  H16S 7557   2.336   3.998  14.809 -0.0219  0.3723 -0.7037
   59DOPE  C217 7558   2.535   3.976  14.904  0.0900 -0.4015  0.2435
   59DOPE  H17R 7559   2.525   4.081  14.938  0.2647 -0.7473  1.4231
   59DOPE  H17S 7560   2.639   3.949  14.874  1.4082 -0.6194  4.4276
   59DOPE  C218 7561   2.498   3.887  15.027 -0.1300  0.2158  0.6099
   59DOPE  H18R 7562   2.463   3.791  14.984 -2.2442  1.6645 -1.1345
   59DOPE  H18S 7563   2.408   3.930  15.075 -0.5574  1.1783 -0.9744
   59DOPE  H18T 7564   2.585   3.884  15.096 -0.5595 -2.8561  1.1577
   59DOPE   C33 7565   3.199   4.670  13.829  0.5760 -0.6938  0.1927
   59DOPE   H3X 7566   3.182   4.771  13.787 -0.3042 -0.0675  1.9404
   59DOPE   H3Y 7567   3.304   4.641  13.809  0.5094  0.6487 -2.5013
   59DOPE   C34 7568   3.186   4.666  13.980 -0.0581 -0.0621 -0.2594
   59DOPE   H4X 7569   3.226   4.756  14.031 -0.2737 -1.0854  1.8276
   59DOPE   H4Y 7570   3.078   4.662  14.004 -0.0161  1.3976  0.2468
   59DOPE   C35 7571   3.241   4.538  14.044 -0.3900  0.1774  0.4883
   59DOPE   H5X 7572   3.348   4.528  14.014 -0.4742  0.0925  0.2126
   59DOPE   H5Y 7573   3.190   4.446  14.007  2.8523 -1.2697 -0.7928
   59DOPE   C36 7574   3.228   4.550  14.202 -0.1731  0.3308 -0.0604
   59DOPE   H6X 7575   3.128   4.553  14.249  0.6353 -0.9101  1.8823
   59DOPE   H6Y 7576   3.280   4.643  14.231 -0.4742  0.3475  0.4299
   59DOPE   C37 7577   3.313   4.442  14.278 -0.4523 -0.5501 -0.0195
   59DOPE   H7X 7578   3.270   4.339  14.275  3.3800 -2.3619  0.9736
   59DOPE   H7Y 7579   3.409   4.437  14.222 -0.2926  2.4727 -0.1418
   59DOPE   C38 7580   3.340   4.474  14.431  0.1411  0.3981 -0.0347
   59DOPE   H8X 7581   3.245   4.493  14.485 -0.2632  1.1915 -0.9886
   59DOPE   H8Y 7582   3.396   4.570  14.438 -2.0747  1.8128 -0.5383
   59DOPE   C39 7583   3.427   4.363  14.493  0.1448  0.2498 -0.5240
   59DOPE   H9X 7584   3.485   4.293  14.432  0.8681  0.9707 -0.6919
   59DOPE  C310 7585   3.435   4.353  14.626  0.6666 -1.2901  0.1255
   59DOPE  H10X 7586   3.503   4.276  14.666  0.3432 -0.1929  2.9811
   59DOPE  C311 7587   3.375   4.430  14.742  0.5580 -0.4499  0.6632
   59DOPE  H11X 7588   3.339   4.526  14.701  1.5904 -0.7778 -1.1700
   59DOPE  H11Y 7589   3.287   4.376  14.781 -0.4429 -1.2968 -2.4483
   59DOPE  C312 7590   3.477   4.463  14.856 -0.1034  0.1740 -0.1620
   59DOPE  H12X 7591   3.526   4.557  14.821 -0.3387  0.2634 -0.2520
   59DOPE  H12Y 7592   3.552   4.382  14.863 -1.1068 -0.8442 -0.8783
   59DOPE  C313 7593   3.400   4.476  14.991  0.2870  0.0186  0.5259
   59DOPE  H13X 7594   3.302   4.528  14.987  1.0776  1.5127 -0.4787
   59DOPE  H13Y 7595   3.375   4.373  15.024  1.1412 -0.3833 -0.0344
   59DOPE  C314 7596   3.482   4.550  15.099 -0.6809 -0.3285  0.6123
   59DOPE  H14X 7597   3.511   4.645  15.049 -3.2433  1.0408  1.5743
   59DOPE  H14Y 7598   3.579   4.500  15.121  0.6162  2.2704  1.2166
   59DOPE  C315 7599   3.401   4.601  15.215  0.2911  0.3106 -0.0993
   59DOPE  H15X 7600   3.359   4.509  15.259 -2.0100  1.5672  0.4723
   59DOPE  H15Y 7601   3.313   4.660  15.182 -0.4383 -0.0597  1.1401
   59DOPE  C316 7602   3.478   4.699  15.305  0.2091 -0.3855  0.0897
   59DOPE  H16X 7603   3.510   4.793  15.254 -0.4351 -1.0587 -1.6245
   59DOPE  H16Y 7604   3.568   4.650  15.346 -1.1774 -2.0184  1.2909
   59DOPE  C317 7605   3.386   4.727  15.431  0.1272  0.0633  0.4433
   59DOPE  H17X 7606   3.290   4.773  15.401  0.1429  0.3053  0.7627
   59DOPE  H17Y 7607   3.366   4.628  15.479  0.7030 -1.1961 -1.7510
   59DOPE  C318 7608   3.458   4.808  15.535  0.4267 -0.1602  0.1631
   59DOPE  H18X 7609   3.459   4.916  15.511  1.1393 -0.0039  0.8657
   59DOPE  H18Y 7610   3.406   4.800  15.633 -1.8259 -1.4764 -1.0572
   59DOPE  H18Z 7611   3.560   4.777  15.566 -0.6414 -1.7318  2.4353
   60DOPE     N 7612   3.255   3.237  12.640  0.0180  0.1811  0.2514
   60DOPE   HN1 7613   3.200   3.324  12.651  1.8741  1.3985  0.3153
   60DOPE   HN2 7614   3.348   3.269  12.607  0.0482 -1.0071 -0.9236
   60DOPE   HN3 7615   3.206   3.176  12.571  0.6679  1.7578 -1.6940
   60DOPE   C12 7616   3.273   3.153  12.770 -0.0916  0.4005  1.9247
   60DOPE  H12A 7617   3.336   3.072  12.726 -0.6774  1.6642 -1.5856
   60DOPE  H12B 7618   3.173   3.111  12.795 -1.7298  0.3596 -3.4856
   60DOPE   C11 7619   3.335   3.232  12.881 -0.1075  0.0158 -0.8076
   60DOPE  H11A 7620   3.429   3.282  12.848  0.8991 -1.9349 -1.0338
   60DOPE  H11B 7621   3.377   3.169  12.962  2.7929  0.7630 -1.6267
   60DOPE     P 7622   3.119   3.309  13.022  0.1871 -0.3620 -0.4915
   60DOPE   O13 7623   2.995   3.341  12.943  0.6842 -0.4292 -0.3082
   60DOPE   O14 7624   3.138   3.375  13.151 -0.3131  0.1656  0.1170
   60DOPE   O11 7625   3.126   3.153  13.042 -0.0548 -0.0388 -0.2968
   60DOPE   O12 7626   3.242   3.337  12.929 -0.1634  0.0375  0.4190
   60DOPE    C1 7627   3.020   3.090  13.113  0.0734  0.3794 -0.1207
   60DOPE    HA 7628   2.998   2.992  13.066 -2.6359  0.9846 -0.2842
   60DOPE    HB 7629   2.923   3.145  13.114 -0.2693 -0.1643  1.9249
   60DOPE    C2 7630   3.041   3.050  13.260 -0.2292  0.0618  0.7758
   60DOPE    HS 7631   2.962   2.981  13.296  0.8840 -3.0631 -2.2518
   60DOPE   O21 7632   3.052   3.159  13.354  0.1319 -0.1199 -0.0859
   60DOPE   C21 7633   2.967   3.259  13.349  0.4493  0.6659 -0.5189
   60DOPE   O22 7634   2.859   3.263  13.292  0.1229 -0.1221  0.4372
   60DOPE   C22 7635   3.012   3.377  13.433  0.6445  0.2555  0.2756
   60DOPE   H2R 7636   2.996   3.466  13.368  0.7655 -0.1562 -0.3296
   60DOPE   H2S 7637   3.120   3.369  13.456  0.9288 -2.0708 -1.4550
   60DOPE    C3 7638   3.179   2.973  13.267  0.2266 -0.2016  0.1490
   60DOPE    HX 7639   3.259   3.040  13.228  0.9179 -1.5321 -0.7820
   60DOPE    HY 7640   3.156   2.889  13.198 -0.9102 -0.5826  0.9683
   60DOPE   O31 7641   3.207   2.921  13.401  0.4791 -0.7431  0.2580
   60DOPE   C31 7642   3.280   3.001  13.479  0.6648 -0.3423 -0.1016
   60DOPE   O32 7643   3.331   3.109  13.451 -0.0193  0.1473 -0.5080
   60DOPE   C32 7644   3.292   2.931  13.618  0.1227 -0.1464 -0.2995
   60DOPE   H2X 7645   3.334   2.830  13.600 -1.9471 -1.7512  2.9496
   60DOPE   H2Y 7646   3.369   2.990  13.672  1.2935 -1.8666 -0.0370
   60DOPE   C23 7647   2.925   3.393  13.565  0.5527  0.2993 -0.0521
   60DOPE   H3R 7648   2.824   3.351  13.546 -0.0492  1.7390 -0.1778
   60DOPE   H3S 7649   2.909   3.499  13.597  0.9295  0.7174 -1.2230
   60DOPE   C24 7650   2.985   3.318  13.679  0.5529  0.0229 -0.0175
   60DOPE   H4R 7651   3.093   3.338  13.700  0.1357  2.0335  0.4170
   60DOPE   H4S 7652   2.962   3.211  13.663 -2.3467  0.4916  0.4703
   60DOPE   C25 7653   2.902   3.333  13.813 -0.0369  0.3090 -0.3213
   60DOPE   H5R 7654   2.793   3.339  13.793  0.0870 -0.6232 -1.3672
   60DOPE   H5S 7655   2.929   3.425  13.870  0.5779 -0.1927  0.2188
   60DOPE   C26 7656   2.935   3.214  13.904  0.1102  0.2237  0.3646
   60DOPE   H6R 7657   3.040   3.177  13.913 -1.0136 -2.7599  3.4151
   60DOPE   H6S 7658   2.887   3.126  13.857  1.2846  0.8429 -2.1381
   60DOPE   C27 7659   2.883   3.235  14.047  0.2277  0.6852 -0.1579
   60DOPE   H7R 7660   2.781   3.275  14.029  0.8280  1.1077 -3.0757
   60DOPE   H7S 7661   2.942   3.300  14.115 -0.8399  2.5409 -0.9406
   60DOPE   C28 7662   2.873   3.097  14.120 -0.3090  0.2154 -0.4564
   60DOPE   H8R 7663   2.976   3.063  14.143 -0.7444  0.1603  1.5208
   60DOPE   H8S 7664   2.840   3.029  14.038  0.9105 -2.3371  1.0457
   60DOPE   C29 7665   2.773   3.102  14.236 -0.4748  0.0420  0.0642
   60DOPE   H9R 7666   2.668   3.088  14.208 -0.3207  1.1217 -1.1890
   60DOPE  C210 7667   2.809   3.106  14.365 -0.1655 -0.1469 -0.2272
   60DOPE  H10R 7668   2.727   3.119  14.437 -0.7796 -2.8701 -0.3274
   60DOPE  C211 7669   2.952   3.126  14.418 -0.1454  0.0448  0.1957
   60DOPE  H11R 7670   2.960   3.204  14.496 -0.6523 -0.9721  1.2933
   60DOPE  H11S 7671   3.019   3.160  14.336 -0.0360  0.5669  0.5002
   60DOPE  C212 7672   3.026   3.002  14.477  0.2277  0.5219  0.2314
   60DOPE  H12R 7673   3.136   3.017  14.485  0.7740 -2.0050 -1.5631
   60DOPE  H12S 7674   3.017   2.922  14.401  0.4500  1.5591 -0.9329
   60DOPE  C213 7675   2.963   2.958  14.613  0.0204 -0.0835  0.2978
   60DOPE  H13R 7676   3.024   2.879  14.662  0.6069  0.0105 -0.2773
   60DOPE  H13S 7677   2.864   2.921  14.579  1.2903 -0.7937 -3.0223
   60DOPE  C214 7678   2.938   3.072  14.724  0.1700  0.5112  0.6930
   60DOPE  H14R 7679   2.869   3.144  14.674 -0.1462  0.3147  0.8454
   60DOPE  H14S 7680   3.035   3.122  14.748  0.3245  1.5184 -1.7494
   60DOPE  C215 7681   2.882   3.011  14.856 -0.2618 -0.2272  0.1639
   60DOPE  H15R 7682   2.964   2.953  14.904  1.1365 -0.2019 -2.0869
   60DOPE  H15S 7683   2.792   2.952  14.826 -0.4780  1.2853 -2.4409
   60DOPE  C216 7684   2.817   3.126  14.940 -0.5220  0.2880 -0.2985
   60DOPE  H16R 7685   2.728   3.152  14.879  1.0983  0.8680 -2.5657
   60DOPE  H16S 7686   2.885   3.214  14.944 -1.1275  1.0433 -3.4046
   60DOPE  C217 7687   2.769   3.076  15.076  0.6566 -0.6379 -0.4706
   60DOPE  H17R 7688   2.734   3.162  15.135  2.9837 -0.0972  0.2099
   60DOPE  H17S 7689   2.856   3.043  15.136  1.2356  0.5286 -0.6456
   60DOPE  C218 7690   2.658   2.969  15.074 -0.4181 -0.2395  0.6624
   60DOPE  H18R 7691   2.634   2.936  15.178 -0.2079  1.4847  1.2986
   60DOPE  H18S 7692   2.678   2.871  15.027 -2.8860 -1.9043  2.8005
   60DOPE  H18T 7693   2.566   3.010  15.026  0.8064  1.2454 -0.5262
   60DOPE   C33 7694   3.158   2.923  13.697 -0.3267  0.5043  0.0640
   60DOPE   H3X 7695   3.081   2.879  13.630  1.5941 -3.2444  0.0751
   60DOPE   H3Y 7696   3.127   3.028  13.716  0.7507  0.9527 -0.5551
   60DOPE   C34 7697   3.162   2.835  13.823 -0.0095 -1.0568 -0.6686
   60DOPE   H4X 7698   3.200   2.735  13.793 -0.3648 -1.3355 -0.2152
   60DOPE   H4Y 7699   3.233   2.875  13.898 -0.6312  0.3800 -0.8206
   60DOPE   C35 7700   3.020   2.807  13.881  0.7082  0.4942  0.9510
   60DOPE   H5X 7701   2.957   2.768  13.797  0.1432 -0.0764  1.6271
   60DOPE   H5Y 7702   2.981   2.907  13.909  1.3271  1.3215 -0.9696
   60DOPE   C36 7703   3.022   2.716  13.997 -0.5809  0.3989  0.7816
   60DOPE   H6X 7704   3.103   2.641  13.984 -2.6148 -2.0586  1.4041
   60DOPE   H6Y 7705   2.922   2.668  14.003  0.4706 -1.7460  2.1177
   60DOPE   C37 7706   3.063   2.776  14.129  0.1106  0.2195 -0.0539
   60DOPE   H7X 7707   3.139   2.856  14.119  0.3602 -0.1910 -1.7848
   60DOPE   H7Y 7708   2.974   2.833  14.165  0.0914  0.7925 -0.9934
   60DOPE   C38 7709   3.109   2.672  14.241 -0.2293  0.2927  0.3530
   60DOPE   H8X 7710   3.150   2.717  14.334  1.9400 -2.1506  0.6714
   60DOPE   H8Y 7711   3.199   2.619  14.203 -0.6090  0.7962 -1.3300
   60DOPE   C39 7712   2.993   2.568  14.270 -0.7106  0.2391 -0.6004
   60DOPE   H9X 7713   2.957   2.500  14.191 -2.6821  0.7004 -0.1628
   60DOPE  C310 7714   2.949   2.546  14.399 -0.2206  0.0783 -0.5543
   60DOPE  H10X 7715   2.886   2.459  14.426 -0.0236  0.0762 -0.1015
   60DOPE  C311 7716   2.997   2.631  14.516  0.3353  0.1241 -0.5568
   60DOPE  H11X 7717   3.106   2.647  14.509  0.5485 -0.3597  1.1303
   60DOPE  H11Y 7718   2.941   2.727  14.517  0.8243  0.4218 -1.1899
   60DOPE  C312 7719   2.968   2.569  14.654 -0.4245 -0.0287 -0.8176
   60DOPE  H12X 7720   2.860   2.546  14.649 -0.5314  0.3919 -0.4956
   60DOPE  H12Y 7721   2.985   2.638  14.739 -0.3661 -0.7475 -0.2276
   60DOPE  C313 7722   3.055   2.446  14.684 -0.5402  0.0885 -0.0520
   60DOPE  H13X 7723   3.055   2.381  14.594  1.8078  0.0037 -0.0365
   60DOPE  H13Y 7724   3.160   2.480  14.691 -0.2735 -0.6588 -0.3333
   60DOPE  C314 7725   3.003   2.369  14.806 -0.2513  0.8760  0.5379
   60DOPE  H14X 7726   2.902   2.333  14.779  1.2288 -1.5139 -2.3969
   60DOPE  H14Y 7727   3.006   2.436  14.895  2.2041 -0.7065  1.7796
   60DOPE  C315 7728   3.091   2.255  14.850 -0.4461  0.3900 -0.3347
   60DOPE  H15X 7729   3.198   2.278  14.829 -0.2014 -1.4888 -1.4075
   60DOPE  H15Y 7730   3.077   2.165  14.787  1.1088 -0.4987  0.4972
   60DOPE  C316 7731   3.079   2.214  15.003  0.0504  0.0502  0.5126
   60DOPE  H16X 7732   2.975   2.234  15.036  1.1593  3.3050  2.5841
   60DOPE  H16Y 7733   3.151   2.280  15.057 -1.1272 -1.0737  3.6869
   60DOPE  C317 7734   3.137   2.072  15.020  0.1506 -0.7653  0.5513
   60DOPE  H17X 7735   3.067   1.997  14.977  1.4298 -3.1887  2.4598
   60DOPE  H17Y 7736   3.236   2.067  14.969 -1.0473 -1.1476 -1.9146
   60DOPE  C318 7737   3.146   2.028  15.163 -0.5114  0.0054 -0.2793
   60DOPE  H18X 7738   3.046   2.041  15.211 -0.2704  0.6463  0.0600
   60DOPE  H18Y 7739   3.179   1.922  15.160  0.4253  0.2967 -0.9158
   60DOPE  H18Z 7740   3.221   2.085  15.222 -0.5383 -0.2428 -0.0066
   6123SM     N 7741   5.540   5.423  18.515  0.3864  0.0391  0.0965
   6123SM   C15 7742   5.621   5.548  18.536  0.3426  0.4553  0.0296
   6123SM  H15A 7743   5.586   5.585  18.631 -0.7123 -0.9685  0.2211
   6123SM  H15B 7744   5.599   5.604  18.446  2.3577  0.9226 -0.2284
   6123SM  H15C 7745   5.728   5.532  18.532  0.5201  1.7822 -1.4303
   6123SM   C14 7746   5.542   5.333  18.631 -0.0817  0.4112  0.4799
   6123SM  H14A 7747   5.481   5.244  18.624 -0.8928  0.8769  1.3674
   6123SM  H14B 7748   5.500   5.385  18.715 -0.5419 -1.5747  1.5461
   6123SM  H14C 7749   5.641   5.305  18.664 -0.2145  0.7112  1.1324
   6123SM   C13 7750   5.395   5.462  18.495  0.0622 -0.1624  1.4116
   6123SM  H13A 7751   5.378   5.541  18.424  1.0252 -0.6314  0.6451
   6123SM  H13B 7752   5.365   5.501  18.592  0.1780  0.4645  1.2006
   6123SM  H13C 7753   5.335   5.375  18.474  0.0668  0.1465  0.0252
   6123SM   C12 7754   5.584   5.356  18.389 -0.7017  0.1058 -0.0336
   6123SM  H12A 7755   5.520   5.271  18.370 -1.5335  0.4165  1.2443
   6123SM  H12B 7756   5.678   5.307  18.406 -0.6335  0.1468 -0.2871
   6123SM   C11 7757   5.591   5.433  18.258 -0.1485 -0.3648  0.7064
   6123SM  H11A 7758   5.633   5.371  18.175  2.4204  0.8011  1.0235
   6123SM  H11B 7759   5.673   5.508  18.265 -0.7417  0.6566 -2.0450
   6123SM     P 7760   5.481   5.636  18.145  0.2805 -0.1373  0.0421
   6123SM   O13 7761   5.348   5.650  18.076  0.5387  0.2765 -0.3418
   6123SM   O14 7762   5.532   5.741  18.234 -0.2664  0.3630 -0.2122
   6123SM   O11 7763   5.591   5.613  18.038  0.0784 -0.3259  0.0887
   6123SM   O12 7764   5.477   5.505  18.225 -0.4190 -0.0276  0.0000
   6123SM   C1S 7765   5.584   5.508  17.941 -0.1354  0.0175 -0.2014
   6123SM   H1S 7766   5.477   5.480  17.929  0.6011 -3.7101  0.7932
   6123SM   H1T 7767   5.636   5.413  17.964 -0.7436 -0.4258 -0.6107
   6123SM    NF 7768   5.579   5.457  17.695  0.0398  0.3386 -0.1212
   6123SM   HNF 7769   5.638   5.381  17.668 -2.5879 -1.2422 -1.9075
   6123SM   C2S 7770   5.625   5.553  17.798  0.4674 -0.0146 -0.0198
   6123SM   H2S 7771   5.571   5.648  17.776 -0.2108 -0.0911  1.2177
   6123SM   C3S 7772   5.779   5.578  17.787  1.2317  0.4587  0.3122
   6123SM   H3S 7773   5.830   5.479  17.799  1.3838  0.4679 -0.2654
   6123SM    O3 7774   5.833   5.658  17.889 -0.6725 -0.1129  0.5593
   6123SM   HO3 7775   5.764   5.652  17.956  0.2035  1.2897  1.6327
   6123SM   C4S 7776   5.819   5.634  17.656  0.0684  0.3330  0.2543
   6123SM   H4S 7777   5.852   5.555  17.586 -2.9284 -0.9262  0.0991
   6123SM   C5S 7778   5.806   5.758  17.613 -0.6806  0.2010  0.1169
   6123SM   H5S 7779   5.762   5.839  17.672  1.6686  0.3251  1.8531
   6123SM   C6S 7780   5.856   5.810  17.481 -0.2650 -0.1007 -0.5864
   6123SM   H6S 7781   5.936   5.883  17.506  0.0064 -0.8769  0.9296
   6123SM   H6T 7782   5.772   5.875  17.449 -1.1224 -0.7891  0.2144
   6123SM   C7S 7783   5.896   5.712  17.365  0.6084 -0.2262 -0.3464
   6123SM   H7S 7784   5.821   5.631  17.353 -0.1459  0.0557  1.9517
   6123SM   H7T 7785   5.993   5.665  17.390  0.4944  0.2205  1.0791
   6123SM   C8S 7786   5.898   5.779  17.222 -0.4679 -0.2145 -0.7259
   6123SM   H8S 7787   5.973   5.862  17.221  1.5984 -1.9204  1.6129
   6123SM   H8T 7788   5.802   5.834  17.218 -0.4898 -0.2132 -0.1436
   6123SM   C9S 7789   5.916   5.690  17.095  0.0648  0.3304 -0.0582
   6123SM   H9S 7790   5.849   5.601  17.103 -0.5897  0.8714  0.6094
   6123SM   H9T 7791   6.023   5.660  17.091 -0.2182 -0.8469  0.5851
   6123SM  C10S 7792   5.885   5.769  16.964  0.1266 -0.4844 -0.0480
   6123SM  H10S 7793   5.953   5.855  16.941  1.8950 -1.5252  1.0667
   6123SM  H10T 7794   5.782   5.807  16.979  0.6299  0.4435  1.3030
   6123SM  C11S 7795   5.899   5.679  16.840  0.2731  0.1266 -0.1613
   6123SM  H11S 7796   5.827   5.596  16.847  2.2489 -1.6528  0.1455
   6123SM  H11T 7797   6.006   5.647  16.837  1.2280  2.7209  1.7137
   6123SM  C12S 7798   5.885   5.754  16.710 -0.2317  0.5990 -0.7792
   6123SM  H12S 7799   5.975   5.815  16.688 -0.7533  2.4813  1.8138
   6123SM  H12T 7800   5.799   5.824  16.714 -1.2271 -0.5148 -2.0293
   6123SM  C13S 7801   5.860   5.662  16.586 -0.0120 -0.5390 -0.5768
   6123SM  H13S 7802   5.767   5.606  16.606  0.3638 -1.1508 -0.5323
   6123SM  H13T 7803   5.949   5.597  16.571  1.6226  1.7137 -1.2891
   6123SM  C14S 7804   5.841   5.755  16.473 -0.0751  0.4033 -0.1461
   6123SM  H14S 7805   5.923   5.829  16.460  1.1208 -0.9574 -0.7062
   6123SM  H14T 7806   5.752   5.819  16.492 -0.7768 -0.7820  0.6691
   6123SM  C15S 7807   5.817   5.680  16.335 -0.3132 -0.0130  0.1842
   6123SM  H15S 7808   5.725   5.621  16.353 -0.9928 -0.4792 -3.8434
   6123SM  H15T 7809   5.898   5.607  16.310 -1.1146 -0.4285 -1.3857
   6123SM  C16S 7810   5.793   5.772  16.212 -0.4879 -0.7377 -0.7868
   6123SM  H16S 7811   5.828   5.875  16.235 -2.3142 -0.5742  1.7281
   6123SM  H16T 7812   5.688   5.786  16.177 -0.4031 -0.2785 -0.8718
   6123SM  C17S 7813   5.860   5.717  16.082  0.4795 -0.3692 -0.5839
   6123SM  H17S 7814   5.837   5.609  16.077 -2.2264  0.1025  0.1123
   6123SM  H17T 7815   5.968   5.739  16.097  0.0651  1.8818 -0.5113
   6123SM  C18S 7816   5.802   5.790  15.963  0.0838  0.4246  0.3528
   6123SM  H18S 7817   5.851   5.755  15.870 -1.9072  1.2410 -1.0749
   6123SM  H18T 7818   5.816   5.900  15.976  1.5564  0.2962  0.0466
   6123SM  H18U 7819   5.697   5.757  15.951  0.7440 -0.8722 -2.6529
   6123SM   C1F 7820   5.456   5.442  17.660  0.7487  0.3145 -0.1824
   6123SM    OF 7821   5.370   5.519  17.704  0.8211 -0.7306 -0.4274
   6123SM   C2F 7822   5.425   5.320  17.583 -0.8770  0.7150 -0.1879
   6123SM   H2F 7823   5.384   5.240  17.648 -0.5839  0.7891  0.0911
   6123SM   H2G 7824   5.518   5.282  17.537 -1.0812 -0.3170  0.2288
   6123SM   C3F 7825   5.317   5.344  17.474 -0.2650  0.2182  0.4792
   6123SM   H3F 7826   5.224   5.371  17.528  0.3530  0.4490  1.4426
   6123SM   H3G 7827   5.298   5.244  17.428 -0.1448 -0.4209  1.7844
   6123SM   C4F 7828   5.343   5.444  17.359  0.2698  0.1552 -0.2607
   6123SM   H4F 7829   5.312   5.543  17.398  1.9683  0.2100  1.0555
   6123SM   H4G 7830   5.279   5.412  17.273  0.0403 -2.7730  0.8530
   6123SM   C5F 7831   5.489   5.465  17.316  0.3049  0.2594  0.5552
   6123SM   H5F 7832   5.550   5.502  17.401 -1.4855 -0.5992  2.2923
   6123SM   H5G 7833   5.507   5.544  17.240 -3.2048  1.5540  0.8723
   6123SM   C6F 7834   5.542   5.336  17.256 -0.5248  0.5895  0.2936
   6123SM   H6F 7835   5.514   5.248  17.318 -3.1359  2.5969  2.2224
   6123SM   H6G 7836   5.653   5.333  17.252 -0.4986  0.4653  1.0113
   6123SM   C7F 7837   5.496   5.291  17.119  0.1736 -0.6630 -0.0275
   6123SM   H7F 7838   5.389   5.320  17.112  0.4929  0.9673  1.1404
   6123SM   H7G 7839   5.499   5.181  17.102 -0.4738 -0.8689  1.0693
   6123SM   C8F 7840   5.574   5.355  17.007  0.8421 -0.1857  0.1110
   6123SM   H8F 7841   5.674   5.308  16.990  1.5713  2.2470 -3.5875
   6123SM   H8G 7842   5.594   5.459  17.040 -1.3127 -0.4113  2.3876
   6123SM   C9F 7843   5.512   5.337  16.872 -0.0956  0.3804 -0.0413
   6123SM   H9F 7844   5.434   5.411  16.843  1.2789  1.3969 -1.2497
   6123SM   H9G 7845   5.460   5.239  16.884 -0.8089  0.7384 -0.1303
   6123SM  C10F 7846   5.602   5.331  16.747  0.5188  0.4321 -0.4499
   6123SM  H10F 7847   5.687   5.265  16.776  0.8194  0.8729 -0.3016
   6123SM  H10G 7848   5.641   5.435  16.734 -1.3935  0.8585 -3.7273
   6123SM  C11F 7849   5.530   5.305  16.616  0.3251 -0.5288 -0.0288
   6123SM  H11F 7850   5.448   5.380  16.618  1.2494  0.6404 -2.3373
   6123SM  H11G 7851   5.496   5.199  16.611 -0.0359 -0.5437  1.9323
   6123SM  C12F 7852   5.612   5.334  16.488 -0.4628 -0.3515  0.5160
   6123SM  H12F 7853   5.704   5.272  16.481 -1.2188 -1.5213  0.5730
   6123SM  H12G 7854   5.645   5.440  16.489  1.2614 -0.7917 -1.9641
   6123SM  C13F 7855   5.534   5.321  16.360  0.0369 -0.2641 -0.1608
   6123SM  H13F 7856   5.447   5.389  16.361 -0.6565 -1.1481  0.0678
   6123SM  H13G 7857   5.496   5.217  16.351 -0.3550 -0.1100 -0.2940
   6123SM  C14F 7858   5.614   5.343  16.234 -0.0589  0.7149 -0.2955
   6123SM  H14F 7859   5.708   5.285  16.244 -0.9126 -0.4210  1.9166
   6123SM  H14G 7860   5.648   5.448  16.231  1.1961  0.3437  0.1689
   6123SM  C15F 7861   5.556   5.313  16.091 -0.3662  0.3515 -0.4672
   6123SM  H15F 7862   5.453   5.353  16.102 -0.5082  0.2048 -1.2177
   6123SM  H15G 7863   5.568   5.204  16.075 -0.1436  0.4714 -1.1485
   6123SM  C16F 7864   5.636   5.389  15.979 -0.4632 -0.4695  0.6295
   6123SM  H16F 7865   5.745   5.365  15.975  0.4081  3.1123 -1.3315
   6123SM  H16G 7866   5.637   5.494  16.015 -1.5375 -0.6698  1.2742
   6123SM  C17F 7867   5.584   5.370  15.837 -0.1027 -0.4962  0.1239
   6123SM  H17F 7868   5.475   5.390  15.835 -0.2521 -0.9814  1.7538
   6123SM  H17G 7869   5.587   5.261  15.814 -0.5951 -0.4658 -0.0866
   6123SM  C18F 7870   5.655   5.455  15.726  0.1941 -0.3396 -0.3620
   6123SM  H18F 7871   5.647   5.562  15.758 -0.5778 -0.7862  1.0644
   6123SM  H18G 7872   5.600   5.444  15.630 -2.3350 -0.3111  0.9942
   6123SM  C19F 7873   5.799   5.421  15.715 -0.2522  0.0081 -0.3899
   6123SM  H19F 7874   5.812   5.314  15.687 -0.1794 -0.2663  0.6629
   6123SM  H19G 7875   5.851   5.443  15.811  0.0127  2.3089 -0.9865
   6123SM  C20F 7876   5.863   5.506  15.591  0.4870 -0.3299  0.6146
   6123SM  H20F 7877   5.794   5.477  15.509  0.0889 -0.5518  1.0222
   6123SM  H20G 7878   5.967   5.473  15.568 -0.4360 -1.2776 -2.7820
   6123SM  C21F 7879   5.870   5.660  15.606 -0.4038  0.3746 -0.6178
   6123SM  H21F 7880   5.917   5.677  15.706  1.9279 -0.7978 -1.4404
   6123SM  H21G 7881   5.769   5.706  15.612 -0.6272 -0.1235 -0.5045
   6123SM  C22F 7882   5.954   5.731  15.504 -1.0142  0.6085 -0.2191
   6123SM  H22F 7883   5.929   5.687  15.405 -1.2201  0.0163  0.0928
   6123SM  H22G 7884   6.061   5.704  15.522 -1.7283  0.3412  5.5070
   6123SM  C23F 7885   5.931   5.879  15.488 -0.3553 -0.0709 -0.7643
   6123SM  H23F 7886   5.824   5.894  15.515 -0.2958  0.6022 -0.8819
   6123SM  H23G 7887   5.954   5.908  15.383 -3.1784  0.0878 -1.4246
   6123SM  H23H 7888   6.001   5.929  15.558 -0.1964 -2.2880  0.7544
   6223SM     N 7889   6.428   5.269  18.324  0.2988 -0.4855 -0.2838
   6223SM   C15 7890   6.494   5.282  18.191  0.0198  0.3807 -0.2663
   6223SM  H15A 7891   6.473   5.373  18.137 -0.6813 -1.1608 -2.7797
   6223SM  H15B 7892   6.461   5.201  18.127  1.8718 -1.7921  1.3790
   6223SM  H15C 7893   6.600   5.266  18.205  0.3794  0.7960 -2.2314
   6223SM   C14 7894   6.485   5.140  18.386  0.5303 -0.8051  0.2620
   6223SM  H14A 7895   6.592   5.136  18.394  0.5624  0.2975  0.4795
   6223SM  H14B 7896   6.438   5.061  18.329 -3.5557  1.1177  0.5783
   6223SM  H14C 7897   6.437   5.132  18.482  1.4799  1.9932  1.0403
   6223SM   C13 7898   6.469   5.388  18.403  0.3614 -0.0796  0.2448
   6223SM  H13A 7899   6.576   5.403  18.395  0.1219  1.0961 -1.6417
   6223SM  H13B 7900   6.444   5.380  18.507 -0.1629 -3.6974 -0.0510
   6223SM  H13C 7901   6.434   5.479  18.354  1.4526  0.2568  0.0593
   6223SM   C12 7902   6.277   5.265  18.312  0.3498  0.4220  0.1670
   6223SM  H12A 7903   6.243   5.364  18.287  0.1304 -0.1651 -2.1148
   6223SM  H12B 7904   6.241   5.241  18.411 -1.1981 -0.3990 -0.5547
   6223SM   C11 7905   6.213   5.163  18.209  0.1909  0.2189 -0.2783
   6223SM  H11A 7906   6.103   5.152  18.219  0.4128 -1.5434  0.5009
   6223SM  H11B 7907   6.256   5.062  18.222 -1.0252 -0.4825 -1.4963
   6223SM     P 7908   6.148   5.318  18.004 -0.2041  0.1854 -0.0655
   6223SM   O13 7909   6.001   5.308  18.033  0.0594  0.4417 -0.2042
   6223SM   O14 7910   6.207   5.451  18.029  0.2351 -0.2010 -0.8051
   6223SM   O11 7911   6.169   5.273  17.854  0.4136 -0.3854 -0.1224
   6223SM   O12 7912   6.228   5.197  18.071  0.1882 -0.6720 -0.3040
   6223SM   C1S 7913   6.297   5.272  17.800  0.0358 -0.5710  0.2931
   6223SM   H1S 7914   6.336   5.169  17.818 -1.2722 -1.3344 -0.9655
   6223SM   H1T 7915   6.370   5.343  17.843 -0.9739  1.6779 -1.4890
   6223SM    NF 7916   6.442   5.296  17.593 -0.2907 -0.1647  1.0405
   6223SM   HNF 7917   6.471   5.390  17.579 -0.2825 -0.3638 -0.4619
   6223SM   C2S 7918   6.300   5.285  17.640  0.3348  0.3482  0.3632
   6223SM   H2S 7919   6.256   5.186  17.616  3.9186 -1.2398 -0.3584
   6223SM   C3S 7920   6.198   5.397  17.596 -0.3995 -0.4376 -0.2421
   6223SM   H3S 7921   6.235   5.491  17.643 -0.5074 -1.3227  1.6997
   6223SM    O3 7922   6.065   5.369  17.639  0.5376 -0.2713 -0.4532
   6223SM   HO3 7923   6.069   5.321  17.722  1.1107 -2.8940 -1.9032
   6223SM   C4S 7924   6.214   5.409  17.451  0.2551  0.1116  0.3831
   6223SM   H4S 7925   6.314   5.448  17.429 -0.1053  1.7970  1.5482
   6223SM   C5S 7926   6.118   5.400  17.354 -0.1986  0.3345  0.0927
   6223SM   H5S 7927   6.015   5.373  17.380 -1.3305  1.3996 -2.7779
   6223SM   C6S 7928   6.147   5.400  17.206  0.1360 -0.2696  0.4780
   6223SM   H6S 7929   6.054   5.431  17.154  0.0289 -3.0560 -1.2281
   6223SM   H6T 7930   6.155   5.291  17.184  0.5886 -0.0575 -0.5012
   6223SM   C7S 7931   6.275   5.464  17.154 -0.8062  0.1244 -0.7233
   6223SM   H7S 7932   6.370   5.423  17.196 -1.7626  0.1680  1.6294
   6223SM   H7T 7933   6.283   5.571  17.182  0.5645 -0.0994 -0.1964
   6223SM   C8S 7934   6.284   5.466  16.999 -0.1714  0.1768  0.3465
   6223SM   H8S 7935   6.367   5.532  16.966  0.7971 -2.4464 -3.0876
   6223SM   H8T 7936   6.186   5.491  16.955  0.6276  1.6572 -0.6556
   6223SM   C9S 7937   6.322   5.326  16.936 -0.7301 -0.1238  0.5066
   6223SM   H9S 7938   6.243   5.251  16.960 -1.9010  1.6729  2.5924
   6223SM   H9T 7939   6.418   5.298  16.985  0.2511  1.9689 -0.1032
   6223SM  C10S 7940   6.351   5.342  16.785  0.4632 -0.0463  0.0344
   6223SM  H10S 7941   6.365   5.237  16.752  1.3293  0.1491 -0.2447
   6223SM  H10T 7942   6.441   5.403  16.761 -1.0480  1.4555 -2.2136
   6223SM  C11S 7943   6.242   5.411  16.699 -0.2493  0.1322  0.0625
   6223SM  H11S 7944   6.234   5.516  16.736 -1.0064  0.3166 -0.6073
   6223SM  H11T 7945   6.142   5.368  16.721 -0.1718  0.3493  0.8615
   6223SM  C12S 7946   6.281   5.394  16.550 -0.4960  0.0787 -0.0336
   6223SM  H12S 7947   6.294   5.287  16.527 -0.4073 -0.2823  1.5704
   6223SM  H12T 7948   6.381   5.440  16.534  0.4107 -1.4423  1.0243
   6223SM  C13S 7949   6.198   5.454  16.433  0.4046 -0.3199 -0.4995
   6223SM  H13S 7950   6.178   5.557  16.468 -0.1481 -0.7911  0.6365
   6223SM  H13T 7951   6.106   5.390  16.432  0.2176 -0.0577 -0.1948
   6223SM  C14S 7952   6.265   5.445  16.296  0.6665 -0.3814 -0.2949
   6223SM  H14S 7953   6.310   5.346  16.278  0.3993 -0.4432 -0.6365
   6223SM  H14T 7954   6.353   5.512  16.289  0.0741  0.3291 -1.2226
   6223SM  C15S 7955   6.176   5.484  16.184 -0.2694 -0.3520  0.1723
   6223SM  H15S 7956   6.159   5.594  16.183 -3.0436 -0.5240  4.2819
   6223SM  H15T 7957   6.080   5.429  16.189 -0.6999  0.0515 -2.5071
   6223SM  C16S 7958   6.237   5.427  16.048 -0.1778 -0.5530 -0.8319
   6223SM  H16S 7959   6.235   5.317  16.062  0.1606 -0.2976  1.9327
   6223SM  H16T 7960   6.343   5.455  16.031  0.2653 -2.1107 -0.7230
   6223SM  C17S 7961   6.160   5.464  15.925  0.7966  0.0088  0.2518
   6223SM  H17S 7962   6.115   5.565  15.937 -0.5004 -0.6698  1.3410
   6223SM  H17T 7963   6.074   5.396  15.907  0.2006  0.1526  2.2819
   6223SM  C18S 7964   6.249   5.481  15.796 -0.2264 -1.2677  0.2349
   6223SM  H18S 7965   6.173   5.500  15.717 -1.0023  0.2398  1.2896
   6223SM  H18T 7966   6.322   5.399  15.781  1.7661  0.2489  1.2675
   6223SM  H18U 7967   6.300   5.579  15.808 -3.5050  0.3475  2.7682
   6223SM   C1F 7968   6.527   5.193  17.597  0.8102  0.6153  0.9661
   6223SM    OF 7969   6.492   5.080  17.626 -0.2108  0.7505 -0.0068
   6223SM   C2F 7970   6.674   5.223  17.557  0.0609 -0.1161  0.8846
   6223SM   H2F 7971   6.727   5.269  17.643 -0.4865  0.9916  0.6510
   6223SM   H2G 7972   6.666   5.289  17.468  0.4345 -2.2130 -0.7863
   6223SM   C3F 7973   6.749   5.092  17.513  0.0246 -0.2434 -0.1271
   6223SM   H3F 7974   6.737   5.010  17.586  1.9507 -1.7990 -1.4619
   6223SM   H3G 7975   6.858   5.113  17.518  0.0009 -0.1912  0.1872
   6223SM   C4F 7976   6.722   5.054  17.365 -0.2483  0.0550  0.0726
   6223SM   H4F 7977   6.734   5.139  17.294  1.0920 -1.0838 -1.1065
   6223SM   H4G 7978   6.614   5.025  17.371  0.0067 -0.6813  2.0237
   6223SM   C5F 7979   6.803   4.926  17.320  0.7346 -0.2078  0.2092
   6223SM   H5F 7980   6.777   4.843  17.389 -0.9307 -0.3146 -0.4908
   6223SM   H5G 7981   6.910   4.951  17.335  0.8268 -0.7596  0.4822
   6223SM   C6F 7982   6.787   4.903  17.175  0.0949 -0.4541  0.4600
   6223SM   H6F 7983   6.844   4.810  17.154 -1.5316 -1.7757  1.6463
   6223SM   H6G 7984   6.823   4.985  17.110  1.0994 -1.6076 -0.4879
   6223SM   C7F 7985   6.645   4.873  17.134 -0.5998 -0.2361 -0.4649
   6223SM   H7F 7986   6.587   4.968  17.128  0.7891  0.6473 -0.1760
   6223SM   H7G 7987   6.600   4.791  17.194 -0.7329 -0.3966 -0.7786
   6223SM   C8F 7988   6.639   4.817  16.987 -0.0503 -0.4430 -0.1140
   6223SM   H8F 7989   6.546   4.759  16.968  1.2340 -2.2437 -1.2964
   6223SM   H8G 7990   6.721   4.744  16.973  1.9191  1.8834 -1.5027
   6223SM   C9F 7991   6.647   4.910  16.867 -0.0253 -0.4651 -0.5130
   6223SM   H9F 7992   6.755   4.933  16.855 -0.2881  0.1525 -1.9023
   6223SM   H9G 7993   6.587   4.998  16.899 -2.5799 -1.3648 -2.4697
   6223SM  C10F 7994   6.591   4.853  16.739 -0.5546  0.1126  0.2822
   6223SM  H10F 7995   6.489   4.817  16.766 -0.2670 -1.1800 -0.2952
   6223SM  H10G 7996   6.648   4.766  16.700 -1.9063 -0.9538  0.5921
   6223SM  C11F 7997   6.596   4.947  16.614 -0.1036  0.7218 -1.1436
   6223SM  H11F 7998   6.703   4.973  16.596 -0.4365  2.4474 -0.7874
   6223SM  H11G 7999   6.543   5.037  16.652 -0.5845 -0.8487  2.2542
   6223SM  C12F 8000   6.521   4.894  16.484 -0.0080  0.0707 -0.7616
   6223SM  H12F 8001   6.412   4.876  16.499 -0.5592  2.3427 -1.5452
   6223SM  H12G 8002   6.556   4.793  16.454  2.4613  0.7829 -0.4931
   6223SM  C13F 8003   6.523   4.978  16.358  0.3397 -0.1244  0.4287
   6223SM  H13F 8004   6.623   4.984  16.309  0.7777 -0.3310  1.2824
   6223SM  H13G 8005   6.509   5.081  16.396 -1.0106 -0.6794  1.4938
   6223SM  C14F 8006   6.416   4.948  16.250  0.0976  0.6010 -0.2235
   6223SM  H14F 8007   6.311   4.973  16.277  0.1167 -0.8601  1.3792
   6223SM  H14G 8008   6.413   4.838  16.242  1.5146  0.4739  0.5680
   6223SM  C15F 8009   6.460   5.009  16.120 -0.0915  0.6375 -0.0760
   6223SM  H15F 8010   6.566   4.993  16.090 -0.4552  2.2228 -2.5259
   6223SM  H15G 8011   6.429   5.116  16.115  0.2463  0.8218  1.3231
   6223SM  C16F 8012   6.378   4.935  16.011  0.4437 -0.4000  0.6571
   6223SM  H16F 8013   6.273   4.952  16.040  0.2761 -0.6165  0.1804
   6223SM  H16G 8014   6.394   4.825  16.013 -1.4254 -0.7479 -0.8289
   6223SM  C17F 8015   6.420   4.983  15.870  0.2964  0.6650  0.1591
   6223SM  H17F 8016   6.521   5.030  15.867  0.3790  0.4521 -2.2620
   6223SM  H17G 8017   6.343   5.058  15.841 -0.3768  0.4331  1.2673
   6223SM  C18F 8018   6.428   4.870  15.769  0.9484 -0.3544  0.5235
   6223SM  H18F 8019   6.324   4.833  15.761  1.4943 -1.7720 -0.3294
   6223SM  H18G 8020   6.484   4.787  15.817  3.1414  0.6924 -0.0891
   6223SM  C19F 8021   6.493   4.914  15.634  0.3419 -0.3477 -0.6182
   6223SM  H19F 8022   6.500   4.825  15.567  1.1768 -0.5890 -0.2214
   6223SM  H19G 8023   6.594   4.951  15.661 -0.9753  2.8585  0.3366
   6223SM  C20F 8024   6.435   5.022  15.546  0.1994 -0.0122 -0.0639
   6223SM  H20F 8025   6.486   5.026  15.448  0.4643 -0.0086  0.0753
   6223SM  H20G 8026   6.427   5.121  15.596 -0.9188  0.3174 -0.8498
   6223SM  C21F 8027   6.291   5.006  15.504  0.6242  0.4183  0.0514
   6223SM  H21F 8028   6.221   4.992  15.589 -0.4164  0.4703 -0.7759
   6223SM  H21G 8029   6.290   4.910  15.450 -1.2500  0.0807  0.6388
   6223SM  C22F 8030   6.245   5.114  15.410  0.1561 -0.1399  0.4227
   6223SM  H22F 8031   6.315   5.128  15.325 -1.1826 -0.4629 -0.7684
   6223SM  H22G 8032   6.226   5.211  15.461  2.1624  1.0929 -1.0404
   6223SM  C23F 8033   6.114   5.078  15.330  0.4760  0.1241  0.1157
   6223SM  H23F 8034   6.041   5.022  15.392 -0.7332  2.4523  0.8970
   6223SM  H23G 8035   6.146   5.015  15.244  1.0310 -0.4079  0.6963
   6223SM  H23H 8036   6.068   5.166  15.281 -0.1943  0.4694  1.3361
   6323SM     N 8037   5.934   6.199  18.318  0.3869 -0.1132  0.3233
   6323SM   C15 8038   5.784   6.181  18.312  0.0129 -0.0829 -0.7916
   6323SM  H15A 8039   5.746   6.187  18.413 -1.0888 -0.3705 -1.1817
   6323SM  H15B 8040   5.764   6.083  18.271  1.5191 -0.0854 -1.6273
   6323SM  H15C 8041   5.744   6.263  18.254  0.4876  0.9366  0.2781
   6323SM   C14 8042   5.978   6.100  18.425 -0.0065  0.0247  0.3132
   6323SM  H14A 8043   5.934   6.119  18.522  1.5120  2.6720  0.5808
   6323SM  H14B 8044   6.083   6.113  18.447  0.6648 -0.7808 -2.0857
   6323SM  H14C 8045   5.965   5.997  18.397  1.0225  0.4972 -2.1642
   6323SM   C13 8046   5.985   6.155  18.190 -0.3382  0.6249 -0.3171
   6323SM  H13A 8047   5.965   6.050  18.172  1.3161  0.1868  0.2129
   6323SM  H13B 8048   6.093   6.151  18.186 -0.3337 -1.1315  0.6369
   6323SM  H13C 8049   5.942   6.204  18.104 -0.8980 -0.5658 -0.7522
   6323SM   C12 8050   5.977   6.342  18.346  0.2864 -0.3786 -0.0463
   6323SM  H12A 8051   6.085   6.338  18.341  0.2782 -0.3420 -0.2731
   6323SM  H12B 8052   5.952   6.369  18.448  2.1353 -0.8163  0.5604
   6323SM   C11 8053   5.937   6.462  18.253 -0.0573  0.0447 -0.0474
   6323SM  H11A 8054   5.989   6.558  18.275 -0.8649  0.9317 -1.7845
   6323SM  H11B 8055   5.832   6.486  18.279 -0.2068  0.9159 -1.3470
   6323SM     P 8056   5.839   6.443  18.016  0.0829  0.0048  0.4045
   6323SM   O13 8057   5.763   6.317  18.010 -0.6926  0.5823  0.3696
   6323SM   O14 8058   5.758   6.567  18.037 -0.3889  0.7383  0.4351
   6323SM   O11 8059   5.908   6.462  17.872  0.0671 -0.0322  0.1733
   6323SM   O12 8060   5.961   6.436  18.116  0.8529  0.0185  0.0841
   6323SM   C1S 8061   6.028   6.390  17.843 -0.1344  0.0545 -0.6039
   6323SM   H1S 8062   6.069   6.322  17.920 -0.8729 -0.7514 -0.9102
   6323SM   H1T 8063   6.095   6.478  17.832 -2.1684  1.8094  0.1889
   6323SM    NF 8064   6.160   6.263  17.681  0.5011 -0.0079 -0.7012
   6323SM   HNF 8065   6.225   6.333  17.654  0.5598  0.0015 -0.5385
   6323SM   C2S 8066   6.021   6.308  17.711 -0.5130 -0.2567  0.3954
   6323SM   H2S 8067   5.951   6.222  17.722  0.4828 -1.1548 -0.0347
   6323SM   C3S 8068   5.970   6.394  17.598  0.6812  0.1223 -0.0725
   6323SM   H3S 8069   6.037   6.482  17.587  2.1039 -0.3817  3.1851
   6323SM    O3 8070   5.845   6.454  17.627  0.1615 -0.2117  0.2439
   6323SM   HO3 8071   5.846   6.453  17.723 -0.3299 -0.2041  0.2512
   6323SM   C4S 8072   5.954   6.312  17.476  0.0781  0.8215  0.2435
   6323SM   H4S 8073   6.044   6.311  17.413 -1.1194 -2.2271 -1.6065
   6323SM   C5S 8074   5.857   6.219  17.442 -0.0732  0.2438  0.6058
   6323SM   H5S 8075   5.787   6.192  17.523 -3.2129  3.1159 -0.8877
   6323SM   C6S 8076   5.861   6.133  17.317 -0.0445 -0.5357  0.1710
   6323SM   H6S 8077   5.766   6.087  17.282 -0.3792 -0.7798  1.3711
   6323SM   H6T 8078   5.925   6.047  17.346 -1.8343 -2.2683 -0.7645
   6323SM   C7S 8079   5.919   6.212  17.186 -0.1839  0.5803  0.2953
   6323SM   H7S 8080   6.024   6.241  17.206  0.0888  0.3191 -0.6711
   6323SM   H7T 8081   5.872   6.311  17.166 -0.0668  0.5613 -0.0998
   6323SM   C8S 8082   5.895   6.128  17.064  0.3115  0.3024  1.0404
   6323SM   H8S 8083   5.786   6.111  17.052 -0.0294  1.1754  2.5600
   6323SM   H8T 8084   5.943   6.028  17.072 -0.2656  0.1412  2.9421
   6323SM   C9S 8085   5.948   6.198  16.935 -0.1210  0.6412  0.1125
   6323SM   H9S 8086   6.053   6.230  16.950  0.5498  0.1316 -2.8869
   6323SM   H9T 8087   5.880   6.285  16.919  0.1084  0.5651 -1.4248
   6323SM  C10S 8088   5.935   6.115  16.808  0.1331  0.0595 -0.0513
   6323SM  H10S 8089   5.837   6.064  16.805 -0.2390  0.7981 -1.1893
   6323SM  H10T 8090   6.019   6.043  16.793 -0.8300 -1.2488  0.6458
   6323SM  C11S 8091   5.934   6.220  16.691 -0.5230 -0.0920  0.2255
   6323SM  H11S 8092   6.020   6.291  16.692  0.1813 -0.8744  2.4971
   6323SM  H11T 8093   5.835   6.264  16.714 -0.0507  0.0669  2.1366
   6323SM  C12S 8094   5.917   6.152  16.546 -0.1682  0.3815 -0.0662
   6323SM  H12S 8095   5.854   6.061  16.554 -0.8855  0.8379 -0.4625
   6323SM  H12T 8096   6.012   6.110  16.507  1.5348  0.3524  3.6451
   6323SM  C13S 8097   5.850   6.251  16.445  0.2199 -0.0537  0.2081
   6323SM  H13S 8098   5.910   6.344  16.436 -0.3240  0.3228  0.4168
   6323SM  H13T 8099   5.754   6.289  16.487  0.0190  1.6806 -1.6803
   6323SM  C14S 8100   5.811   6.181  16.312 -0.0712 -0.2501  0.1713
   6323SM  H14S 8101   5.732   6.103  16.324 -0.4970  0.3489  1.4660
   6323SM  H14T 8102   5.903   6.123  16.293 -0.0205 -0.1228  0.0296
   6323SM  C15S 8103   5.772   6.276  16.199 -0.4131 -0.7083 -0.7058
   6323SM  H15S 8104   5.839   6.363  16.183 -1.4532  0.4829  1.0853
   6323SM  H15T 8105   5.669   6.313  16.222 -0.1935 -1.3125  1.5135
   6323SM  C16S 8106   5.764   6.196  16.071 -0.1715 -0.1541  0.0220
   6323SM  H16S 8107   5.692   6.115  16.097  0.8022 -0.7375  0.9843
   6323SM  H16T 8108   5.861   6.145  16.054 -1.3759 -2.7355  0.3852
   6323SM  C17S 8109   5.722   6.274  15.949 -0.4561 -0.2223  0.5153
   6323SM  H17S 8110   5.783   6.366  15.943 -0.9917  0.0821 -0.3658
   6323SM  H17T 8111   5.615   6.299  15.970 -0.3493  1.4063 -0.6880
   6323SM  C18S 8112   5.721   6.186  15.827  0.8635  0.3210  0.5002
   6323SM  H18S 8113   5.704   6.246  15.736  0.5121 -0.1281  0.2673
   6323SM  H18T 8114   5.642   6.108  15.825  0.6741  0.5267 -0.1313
   6323SM  H18U 8115   5.824   6.145  15.815  1.0118  0.1540  2.0760
   6323SM   C1F 8116   6.206   6.146  17.734 -0.1267  0.6697  0.3576
   6323SM    OF 8117   6.139   6.079  17.809  0.1418 -0.0425  0.0828
   6323SM   C2F 8118   6.331   6.091  17.688  0.2185  0.1012 -0.4161
   6323SM   H2F 8119   6.373   6.031  17.771  0.2877 -0.5781 -0.9344
   6323SM   H2G 8120   6.403   6.171  17.661  1.7993  0.0160  3.0872
   6323SM   C3F 8121   6.311   5.988  17.575  0.2662  0.3246  0.4812
   6323SM   H3F 8122   6.242   5.907  17.607  0.9718 -0.5471 -0.1797
   6323SM   H3G 8123   6.412   5.943  17.566  0.2736  0.1398  1.3673
   6323SM   C4F 8124   6.261   6.042  17.439 -0.1111 -0.5642 -0.6172
   6323SM   H4F 8125   6.314   6.137  17.418 -1.2386  0.6637  1.6779
   6323SM   H4G 8126   6.152   6.065  17.442  0.1519  0.6274  1.2759
   6323SM   C5F 8127   6.273   5.930  17.331  0.0908  0.2038 -0.0332
   6323SM   H5F 8128   6.200   5.849  17.354  1.5384 -0.7945  1.3134
   6323SM   H5G 8129   6.367   5.871  17.330 -0.0285 -0.0367  1.2386
   6323SM   C6F 8130   6.253   5.987  17.188 -0.7922  0.1981  0.5364
   6323SM   H6F 8131   6.340   6.053  17.169  1.2383 -2.1043  1.2339
   6323SM   H6G 8132   6.159   6.045  17.175 -1.6186 -1.4331 -1.5227
   6323SM   C7F 8133   6.257   5.874  17.080 -0.0947 -0.0533  0.6727
   6323SM   H7F 8134   6.157   5.827  17.089 -0.0092 -0.6329 -1.0832
   6323SM   H7G 8135   6.341   5.806  17.104  0.3807  0.6476  1.0356
   6323SM   C8F 8136   6.275   5.935  16.938  0.2339  0.2230 -0.1361
   6323SM   H8F 8137   6.369   5.995  16.934 -0.9102  2.1436  0.4862
   6323SM   H8G 8138   6.193   6.007  16.915  2.5047  2.7478 -0.8321
   6323SM   C9F 8139   6.273   5.832  16.816 -0.6016 -0.5368 -0.2214
   6323SM   H9F 8140   6.181   5.770  16.823 -0.2917 -0.8926  0.9556
   6323SM   H9G 8141   6.369   5.777  16.824 -0.6293 -0.2878  2.9615
   6323SM  C10F 8142   6.284   5.904  16.685  0.6327  0.3631 -0.2499
   6323SM  H10F 8143   6.347   5.995  16.693  2.3619 -0.9421  2.6996
   6323SM  H10G 8144   6.179   5.920  16.652  0.3408 -0.1959  0.3919
   6323SM  C11F 8145   6.327   5.809  16.575 -1.0176  0.0305  0.4368
   6323SM  H11F 8146   6.241   5.744  16.549 -0.8862  0.2344 -0.5443
   6323SM  H11G 8147   6.416   5.750  16.604 -0.7233 -0.2649 -1.0148
   6323SM  C12F 8148   6.356   5.893  16.446 -0.8251 -0.1991 -1.0672
   6323SM  H12F 8149   6.441   5.960  16.468  0.1110 -1.2221 -1.4836
   6323SM  H12G 8150   6.279   5.973  16.443  0.0530  0.6798 -0.3665
   6323SM  C13F 8151   6.373   5.822  16.309  0.1813  0.0257  0.3094
   6323SM  H13F 8152   6.306   5.733  16.309 -0.4243  0.2890 -3.6749
   6323SM  H13G 8153   6.477   5.801  16.279 -0.8775 -0.3918 -3.5981
   6323SM  C14F 8154   6.320   5.915  16.197  0.2048  0.1816 -0.0255
   6323SM  H14F 8155   6.394   5.998  16.204  0.3636  0.0045  0.4729
   6323SM  H14G 8156   6.215   5.945  16.218  1.1788  2.5562  1.9725
   6323SM  C15F 8157   6.319   5.861  16.059  0.7405  0.4402  0.8658
   6323SM  H15F 8158   6.270   5.761  16.054  2.1204 -0.2353 -2.2029
   6323SM  H15G 8159   6.421   5.842  16.019  0.4665  2.1276 -0.7831
   6323SM  C16F 8160   6.252   5.951  15.954  0.2873 -0.0336  0.5291
   6323SM  H16F 8161   6.319   6.039  15.940  0.2917 -0.0341  0.5477
   6323SM  H16G 8162   6.149   5.979  15.986 -0.0666 -0.5511 -0.1278
   6323SM  C17F 8163   6.244   5.881  15.820  0.2960  0.2863  0.5926
   6323SM  H17F 8164   6.176   5.940  15.755  0.2821 -1.9326 -1.5246
   6323SM  H17G 8165   6.207   5.777  15.829 -0.5261  0.4166 -0.9680
   6323SM  C18F 8166   6.380   5.859  15.757  0.2518  0.0170 -0.5915
   6323SM  H18F 8167   6.430   5.770  15.802  1.1724  0.9941  0.3902
   6323SM  H18G 8168   6.444   5.940  15.799  1.6807 -1.2611 -0.2252
   6323SM  C19F 8169   6.381   5.855  15.603 -0.6062  0.4125  0.6755
   6323SM  H19F 8170   6.315   5.929  15.553 -0.1622  0.7755  0.6177
   6323SM  H19G 8171   6.358   5.753  15.565 -0.3777  0.4629  0.3947
   6323SM  C20F 8172   6.524   5.895  15.549 -0.8509 -0.5134  0.1711
   6323SM  H20F 8173   6.609   5.870  15.615  0.1359  0.7451 -0.5770
   6323SM  H20G 8174   6.539   6.005  15.555  0.8465 -0.8007  3.8416
   6323SM  C21F 8175   6.543   5.837  15.401  0.1723 -1.1571 -0.3576
   6323SM  H21F 8176   6.491   5.909  15.334 -0.9294 -2.2400 -0.6781
   6323SM  H21G 8177   6.503   5.734  15.393  0.4852 -1.3462  0.3462
   6323SM  C22F 8178   6.690   5.835  15.360 -0.0217 -0.0027  0.0473
   6323SM  H22F 8179   6.753   5.788  15.439 -0.8830 -1.0694  0.1252
   6323SM  H22G 8180   6.723   5.941  15.355  0.3077 -0.0497  1.0696
   6323SM  C23F 8181   6.707   5.774  15.222 -0.1607  0.1432 -0.2086
   6323SM  H23F 8182   6.801   5.800  15.169  0.6724 -1.3941  0.4375
   6323SM  H23G 8183   6.632   5.802  15.145 -1.1665  0.8917  0.9986
   6323SM  H23H 8184   6.715   5.663  15.232  1.9065  0.2791  0.0716
   6423SM     N 8185   3.036   5.790  18.168  0.2540  0.4008  0.8872
   6423SM   C15 8186   3.019   5.723  18.302  0.5030  0.2719 -0.3138
   6423SM  H15A 8187   3.099   5.743  18.372 -1.8505  0.7405  2.4615
   6423SM  H15B 8188   3.018   5.616  18.294  1.7617 -0.0018  1.9953
   6423SM  H15C 8189   2.929   5.760  18.351  1.7284  3.8568 -0.4314
   6423SM   C14 8190   3.173   5.759  18.111 -0.2425  0.0329  0.1546
   6423SM  H14A 8191   3.200   5.654  18.119 -0.8435 -0.3716 -2.4569
   6423SM  H14B 8192   3.258   5.806  18.159 -1.2040 -0.3904  2.3914
   6423SM  H14C 8193   3.173   5.800  18.012  1.9357  0.2628  0.1886
   6423SM   C13 8194   2.921   5.728  18.090 -0.7900 -0.0581 -0.5392
   6423SM  H13A 8195   2.829   5.738  18.147  0.2757 -0.1427  1.2532
   6423SM  H13B 8196   2.938   5.624  18.066 -0.5165 -0.0238 -0.4905
   6423SM  H13C 8197   2.919   5.772  17.992  1.3278 -2.0925 -1.5956
   6423SM   C12 8198   3.022   5.942  18.180 -0.1246  0.6538 -0.2636
   6423SM  H12A 8199   3.108   5.983  18.231  0.0987 -0.3399  0.1770
   6423SM  H12B 8200   2.933   5.971  18.233 -1.7436  1.1911 -3.0379
   6423SM   C11 8201   3.019   6.013  18.052 -1.1249 -0.6051  0.5507
   6423SM  H11A 8202   2.934   5.984  17.986  2.1578 -4.0796 -2.6174
   6423SM  H11B 8203   3.105   5.987  17.988 -1.6119  1.7196 -1.1830
   6423SM     P 8204   2.893   6.234  18.128 -0.1105  0.2252  0.0884
   6423SM   O13 8205   2.858   6.156  18.250 -0.7802 -0.4586 -0.1433
   6423SM   O14 8206   2.924   6.377  18.147  0.1938  0.2399  0.0313
   6423SM   O11 8207   2.775   6.208  18.025  0.3373 -0.4863 -0.0899
   6423SM   O12 8208   3.017   6.158  18.061 -0.0182 -0.2232  0.1205
   6423SM   C1S 8209   2.748   6.311  17.927 -0.6069 -0.6821  0.5819
   6423SM   H1S 8210   2.837   6.376  17.909 -1.3158  0.3728  0.8393
   6423SM   H1T 8211   2.666   6.379  17.958 -0.8367 -0.5116 -0.3771
   6423SM    NF 8212   2.728   6.331  17.685  0.2611 -0.7484  0.0515
   6423SM   HNF 8213   2.649   6.381  17.649  0.1959 -0.5576  0.4477
   6423SM   C2S 8214   2.702   6.238  17.795 -0.3462 -0.0405  0.9066
   6423SM   H2S 8215   2.768   6.149  17.781 -0.7899  0.0361 -2.3732
   6423SM   C3S 8216   2.557   6.187  17.819 -0.1800 -0.1074 -0.2592
   6423SM   H3S 8217   2.495   6.279  17.814 -1.3178 -0.8707 -0.6748
   6423SM    O3 8218   2.548   6.123  17.951 -0.3872  0.0899  0.9586
   6423SM   HO3 8219   2.632   6.138  17.995  0.6340 -3.7440  0.6878
   6423SM   C4S 8220   2.510   6.107  17.701 -0.2733  1.0333  0.3728
   6423SM   H4S 8221   2.438   6.159  17.637 -1.2592 -0.5136  0.1667
   6423SM   C5S 8222   2.529   5.973  17.672  0.0225 -0.0887 -0.5198
   6423SM   H5S 8223   2.579   5.917  17.752 -1.2759 -0.8207 -0.1876
   6423SM   C6S 8224   2.492   5.891  17.548  0.8277  0.1322  0.1482
   6423SM   H6S 8225   2.391   5.846  17.554  1.7568 -1.9792  0.9294
   6423SM   H6T 8226   2.555   5.801  17.529  3.6631  1.8871  0.6120
   6423SM   C7S 8227   2.490   5.969  17.410  0.2970 -0.5268 -0.0533
   6423SM   H7S 8228   2.585   6.016  17.378  0.2242  0.0569  0.5790
   6423SM   H7T 8229   2.418   6.052  17.425 -0.4233 -1.1048 -0.2596
   6423SM   C8S 8230   2.449   5.886  17.287 -0.4185  0.1489 -0.4861
   6423SM   H8S 8231   2.341   5.876  17.310 -0.1337 -0.3217  0.7122
   6423SM   H8T 8232   2.508   5.793  17.275  2.9209  2.0766 -0.2917
   6423SM   C9S 8233   2.476   5.962  17.159 -0.2136  0.1121 -0.5290
   6423SM   H9S 8234   2.585   5.973  17.142  0.2973 -0.6249  1.8914
   6423SM   H9T 8235   2.427   6.061  17.174 -0.0037  0.2523 -0.7607
   6423SM  C10S 8236   2.411   5.903  17.034 -0.2068  0.1039  0.6895
   6423SM  H10S 8237   2.300   5.906  17.038 -0.2020 -0.0638  0.9643
   6423SM  H10T 8238   2.448   5.800  17.019 -1.3736 -0.4052  1.1388
   6423SM  C11S 8239   2.466   5.976  16.912 -0.1175 -0.3414  1.0368
   6423SM  H11S 8240   2.575   5.967  16.894 -0.5672 -2.7152 -1.1972
   6423SM  H11T 8241   2.440   6.084  16.915 -1.2031 -0.5253 -0.3873
   6423SM  C12S 8242   2.400   5.925  16.789 -0.1266  0.1158  1.0779
   6423SM  H12S 8243   2.290   5.918  16.790 -0.2362  0.2236 -1.7165
   6423SM  H12T 8244   2.439   5.824  16.762  0.6579  0.4577  0.8746
   6423SM  C13S 8245   2.435   5.996  16.651 -0.5278 -0.0183 -0.8410
   6423SM  H13S 8246   2.546   5.993  16.642 -0.3400  1.5532  0.6177
   6423SM  H13T 8247   2.406   6.103  16.649  0.9847  0.4071 -2.1454
   6423SM  C14S 8248   2.379   5.930  16.520 -0.2261 -0.1671 -0.1795
   6423SM  H14S 8249   2.268   5.923  16.519 -0.2314 -0.3634  0.9014
   6423SM  H14T 8250   2.428   5.830  16.519  0.3496  0.1118 -0.6795
   6423SM  C15S 8251   2.427   6.003  16.387 -0.0671  0.2512 -0.8106
   6423SM  H15S 8252   2.536   6.025  16.385  0.1146  0.9637  3.9442
   6423SM  H15T 8253   2.389   6.107  16.389  1.7600  0.9743 -1.1996
   6423SM  C16S 8254   2.378   5.942  16.259 -0.8000  0.7388 -0.4062
   6423SM  H16S 8255   2.269   5.923  16.259 -0.3384 -2.4313 -1.3013
   6423SM  H16T 8256   2.429   5.844  16.250 -0.3631  1.0282 -1.2188
   6423SM  C17S 8257   2.418   6.035  16.141 -0.2784 -0.1004 -0.4373
   6423SM  H17S 8258   2.519   6.080  16.149 -1.5211  2.5648  1.8769
   6423SM  H17T 8259   2.348   6.120  16.155 -0.2125  0.1251 -1.4004
   6423SM  C18S 8260   2.425   5.967  16.001 -0.2872 -0.2944 -0.2279
   6423SM  H18S 8261   2.478   6.032  15.928 -1.0322  0.1853 -0.3555
   6423SM  H18T 8262   2.326   5.954  15.953  0.2713 -1.3681 -1.1270
   6423SM  H18U 8263   2.466   5.865  16.017  2.0221  0.8945  2.2258
   6423SM   C1F 8264   2.855   6.340  17.638  0.0312 -0.6144  0.0803
   6423SM    OF 8265   2.946   6.276  17.692 -0.2219 -0.1468 -0.6584
   6423SM   C2F 8266   2.882   6.432  17.524 -0.2167  0.3861  0.0537
   6423SM   H2F 8267   2.941   6.522  17.552  0.7617  0.4566 -1.9760
   6423SM   H2G 8268   2.785   6.481  17.503 -0.1723  0.7778  0.7418
   6423SM   C3F 8269   2.947   6.375  17.403  0.0523 -0.0470 -0.1823
   6423SM   H3F 8270   2.910   6.426  17.312  0.3864 -0.4218 -0.5326
   6423SM   H3G 8271   2.925   6.269  17.378 -0.8386  0.3199 -0.9602
   6423SM   C4F 8272   3.097   6.398  17.395 -0.9481  0.2199  0.9912
   6423SM   H4F 8273   3.145   6.341  17.478 -0.2655  1.8220  1.7549
   6423SM   H4G 8274   3.116   6.507  17.406 -0.8853  0.3476 -0.2336
   6423SM   C5F 8275   3.166   6.355  17.265 -0.3425 -0.2771 -1.6180
   6423SM   H5F 8276   3.180   6.245  17.264 -0.2917 -0.3680  1.3579
   6423SM   H5G 8277   3.266   6.404  17.267  0.6922 -2.2645  1.0950
   6423SM   C6F 8278   3.121   6.425  17.133  0.0148  0.9937  0.3104
   6423SM   H6F 8279   3.087   6.528  17.156  0.2466  0.6033  2.6429
   6423SM   H6G 8280   3.034   6.369  17.091  0.3758  0.6956 -0.0511
   6423SM   C7F 8281   3.225   6.432  17.019  0.4115 -0.2715 -0.0638
   6423SM   H7F 8282   3.287   6.340  17.019  0.7515 -0.1525  3.1380
   6423SM   H7G 8283   3.304   6.510  17.029 -0.6826  0.7597  0.9245
   6423SM   C8F 8284   3.149   6.453  16.891  0.2657  0.1531  0.5562
   6423SM   H8F 8285   3.105   6.554  16.907  1.1466  0.3410  2.0125
   6423SM   H8G 8286   3.070   6.380  16.863 -1.0424  2.1135 -1.1939
   6423SM   C9F 8287   3.241   6.455  16.771  0.1993 -0.2773  0.7330
   6423SM   H9F 8288   3.262   6.354  16.729  0.1944  0.2108 -0.4901
   6423SM   H9G 8289   3.336   6.504  16.802  0.5570  0.4241 -1.2979
   6423SM  C10F 8290   3.189   6.536  16.647 -0.0088 -0.0557  0.0585
   6423SM  H10F 8291   3.182   6.644  16.673  0.5242 -0.1689  0.6711
   6423SM  H10G 8292   3.087   6.496  16.629  0.5659 -0.7179 -2.0574
   6423SM  C11F 8293   3.277   6.514  16.530  0.6463 -0.5468 -0.3125
   6423SM  H11F 8294   3.292   6.404  16.525  0.9685 -0.5133 -0.0670
   6423SM  H11G 8295   3.374   6.567  16.544 -1.6214  3.8362  0.4868
   6423SM  C12F 8296   3.205   6.531  16.399 -0.3889 -0.2275 -0.0148
   6423SM  H12F 8297   3.283   6.499  16.327  1.0995 -1.0645  1.8647
   6423SM  H12G 8298   3.184   6.636  16.370 -0.2162 -0.5215 -1.2630
   6423SM  C13F 8299   3.086   6.439  16.370  0.3364 -0.3778 -0.1334
   6423SM  H13F 8300   2.997   6.474  16.427  0.3026 -0.0399 -0.3851
   6423SM  H13G 8301   3.112   6.334  16.392  0.8921 -0.0932  0.6114
   6423SM  C14F 8302   3.047   6.451  16.224  0.0509 -0.2883 -0.1529
   6423SM  H14F 8303   3.046   6.558  16.193 -3.6415 -1.1181 -3.8518
   6423SM  H14G 8304   2.943   6.414  16.212  0.5113 -1.5085 -0.5628
   6423SM  C15F 8305   3.132   6.365  16.129 -0.7764  0.2302 -0.7017
   6423SM  H15F 8306   3.107   6.257  16.135 -0.4476  0.1981  0.2557
   6423SM  H15G 8307   3.237   6.379  16.163 -0.8172 -0.4035 -0.3115
   6423SM  C16F 8308   3.114   6.395  15.976 -0.1178  0.7852 -0.4251
   6423SM  H16F 8309   3.194   6.333  15.929 -1.1860 -0.3723 -0.7501
   6423SM  H16G 8310   3.142   6.502  15.967 -1.3951  1.2658  0.9843
   6423SM  C17F 8311   2.975   6.364  15.917 -0.4387 -0.3224 -0.6983
   6423SM  H17F 8312   2.903   6.422  15.980  1.3271 -0.6705  1.7884
   6423SM  H17G 8313   2.945   6.260  15.940  1.5000 -0.9902 -1.0592
   6423SM  C18F 8314   2.963   6.414  15.778  0.1079 -0.3908  0.5560
   6423SM  H18F 8315   2.977   6.524  15.776  0.4293 -0.4433 -1.1015
   6423SM  H18G 8316   2.860   6.394  15.742 -0.0815  0.8368  0.3827
   6423SM  C19F 8317   3.065   6.357  15.673 -0.0476  0.0054 -0.3473
   6423SM  H19F 8318   3.056   6.246  15.677  0.7901 -0.0446  0.6595
   6423SM  H19G 8319   3.169   6.384  15.702 -0.8405  1.1983  1.5282
   6423SM  C20F 8320   3.025   6.407  15.533 -0.9734 -0.5263  0.1161
   6423SM  H20F 8321   2.916   6.389  15.528 -1.3171  0.5091  2.5912
   6423SM  H20G 8322   3.068   6.341  15.454 -0.7205 -1.9767  1.4234
   6423SM  C21F 8323   3.070   6.550  15.495  0.3096  0.2439  0.3610
   6423SM  H21F 8324   3.058   6.614  15.585 -2.6517  2.2532 -1.3039
   6423SM  H21G 8325   3.012   6.595  15.412  2.6665 -0.1504 -1.6069
   6423SM  C22F 8326   3.204   6.555  15.431 -0.2185  0.2833 -0.3174
   6423SM  H22F 8327   3.219   6.496  15.339  1.1376  1.4719 -0.8899
   6423SM  H22G 8328   3.275   6.512  15.505 -1.5610 -3.3646 -0.9469
   6423SM  C23F 8329   3.246   6.692  15.398 -0.0984 -0.4350 -0.1033
   6423SM  H23F 8330   3.211   6.726  15.298  3.7935  1.4905 -1.0299
   6423SM  H23G 8331   3.356   6.706  15.406 -0.2484  2.3504 -1.5681
   6423SM  H23H 8332   3.192   6.767  15.459 -0.5413 -0.6236 -0.2605
   6523SM     N 8333   2.178   0.732  18.145 -0.8931  0.1501 -0.1659
   6523SM   C15 8334   2.279   0.806  18.226 -0.1688 -0.4962 -0.1485
   6523SM  H15A 8335   2.382   0.787  18.199  0.3533 -0.4224  1.6501
   6523SM  H15B 8336   2.277   0.769  18.328 -0.5060 -2.1290 -0.7267
   6523SM  H15C 8337   2.288   0.914  18.216 -0.2618 -0.5322 -0.6428
   6523SM   C14 8338   2.196   0.581  18.167  0.3887 -0.2930  0.2680
   6523SM  H14A 8339   2.195   0.561  18.273  3.7435 -0.2378  0.4271
   6523SM  H14B 8340   2.292   0.548  18.130  0.6478  1.1343 -0.3816
   6523SM  H14C 8341   2.117   0.523  18.122 -0.5640 -0.3969  2.0067
   6523SM   C13 8342   2.044   0.770  18.192 -0.9497  0.5204  0.0503
   6523SM  H13A 8343   1.967   0.702  18.157 -1.1056  0.1022  1.1677
   6523SM  H13B 8344   2.010   0.864  18.153 -0.7184  1.1021  1.2056
   6523SM  H13C 8345   2.048   0.769  18.300  2.3894  0.3737  0.0113
   6523SM   C12 8346   2.209   0.769  18.006  0.1732  0.5734  0.0191
   6523SM  H12A 8347   2.306   0.731  17.982 -0.8772 -3.3059  1.2814
   6523SM  H12B 8348   2.210   0.876  17.985 -2.9277  0.4601 -1.3851
   6523SM   C11 8349   2.110   0.736  17.902 -0.5770  0.9139 -0.2894
   6523SM  H11A 8350   2.077   0.635  17.934  1.5633  0.3819  0.3805
   6523SM  H11B 8351   2.166   0.734  17.807  0.9287 -0.3371  0.5906
   6523SM     P 8352   2.012   0.986  17.852 -0.2982  0.0767 -0.3783
   6523SM   O13 8353   1.910   1.057  17.923  0.3087 -0.3482 -0.1707
   6523SM   O14 8354   2.152   1.031  17.861 -0.0686  0.5616 -0.0393
   6523SM   O11 8355   1.964   0.977  17.696  0.1708 -0.0054  0.2109
   6523SM   O12 8356   2.010   0.836  17.905 -0.7097  0.0684 -0.3137
   6523SM   C1S 8357   1.876   0.871  17.658 -0.7952  0.8904 -0.4448
   6523SM   H1S 8358   1.771   0.882  17.693 -0.5631 -1.0389  1.0430
   6523SM   H1T 8359   1.903   0.770  17.695 -2.0014  0.2335 -1.3155
   6523SM    NF 8360   1.774   0.741  17.462 -0.4653  0.5594 -0.3606
   6523SM   HNF 8361   1.820   0.660  17.426  0.3438  1.2998 -1.0408
   6523SM   C2S 8362   1.861   0.849  17.502  0.2331 -0.2108  0.1594
   6523SM   H2S 8363   1.829   0.949  17.468 -0.0030 -0.5137 -0.5355
   6523SM   C3S 8364   2.004   0.827  17.443  0.1853 -1.4629 -0.0090
   6523SM   H3S 8365   2.049   0.727  17.462  1.1646 -0.9733  0.3325
   6523SM    O3 8366   2.094   0.926  17.483 -0.6079 -0.4697  0.2677
   6523SM   HO3 8367   2.066   0.973  17.562  0.3048  0.2910  0.1613
   6523SM   C4S 8368   1.992   0.826  17.287 -0.5901  0.9732 -0.6226
   6523SM   H4S 8369   1.970   0.733  17.233  2.1432 -0.7576  1.0515
   6523SM   C5S 8370   1.983   0.939  17.212 -0.3066 -0.1493 -0.2605
   6523SM   H5S 8371   1.988   1.036  17.265  1.0787 -0.1104 -0.4324
   6523SM   C6S 8372   1.964   0.937  17.061  0.1305 -0.2482 -0.3690
   6523SM   H6S 8373   1.983   0.839  17.012 -0.0442 -0.1614 -0.6116
   6523SM   H6T 8374   2.039   1.013  17.030  1.2909  0.2982  3.3280
   6523SM   C7S 8375   1.828   1.000  17.015  0.2323 -0.3020 -0.4594
   6523SM   H7S 8376   1.816   1.018  16.907 -0.3471 -0.7379 -0.4712
   6523SM   H7T 8377   1.832   1.100  17.064  1.7381 -0.8705  0.6872
   6523SM   C8S 8378   1.701   0.934  17.064  0.5771 -0.4979  0.2333
   6523SM   H8S 8379   1.619   1.001  17.034 -0.5562 -2.4290 -1.2357
   6523SM   H8T 8380   1.711   0.932  17.174 -0.6467  0.8541  0.3986
   6523SM   C9S 8381   1.666   0.798  17.003 -0.5071 -0.8018  0.4234
   6523SM   H9S 8382   1.728   0.723  17.056 -0.4771 -0.7362  0.4816
   6523SM   H9T 8383   1.703   0.801  16.898 -0.3039 -0.2781  0.5082
   6523SM  C10S 8384   1.518   0.753  17.002 -0.5375 -0.0703 -1.2040
   6523SM  H10S 8385   1.478   0.770  17.104 -0.3447  0.5843 -1.2316
   6523SM  H10T 8386   1.509   0.644  16.981  1.0227 -0.1090 -1.8337
   6523SM  C11S 8387   1.431   0.828  16.905 -0.4355  0.1973 -0.2520
   6523SM  H11S 8388   1.451   0.937  16.912  2.2709 -0.3154  1.3788
   6523SM  H11T 8389   1.326   0.803  16.930 -0.2269 -0.4770 -0.0310
   6523SM  C12S 8390   1.461   0.787  16.763 -0.2638 -0.5546 -0.3532
   6523SM  H12S 8391   1.480   0.677  16.763  1.9166 -0.2535  1.3863
   6523SM  H12T 8392   1.557   0.825  16.723  0.5810 -2.3438 -0.1702
   6523SM  C13S 8393   1.347   0.829  16.667 -0.2476 -0.4818 -0.2805
   6523SM  H13S 8394   1.312   0.933  16.685  3.3503  0.8467 -0.1619
   6523SM  H13T 8395   1.259   0.766  16.693 -1.4619  0.4781 -1.8657
   6523SM  C14S 8396   1.381   0.799  16.519  0.3386 -0.2262  0.1012
   6523SM  H14S 8397   1.396   0.690  16.528  0.5907 -0.1024  1.3592
   6523SM  H14T 8398   1.474   0.845  16.478  0.5577 -1.1034 -0.3972
   6523SM  C15S 8399   1.266   0.837  16.423  0.1189 -0.9692  0.3887
   6523SM  H15S 8400   1.259   0.947  16.416  1.5747 -0.7954  1.2262
   6523SM  H15T 8401   1.171   0.795  16.462 -0.2713 -0.4494 -0.0001
   6523SM  C16S 8402   1.289   0.780  16.284  0.2528  0.2756 -0.3888
   6523SM  H16S 8403   1.262   0.673  16.296  0.5918  0.3231  0.9251
   6523SM  H16T 8404   1.396   0.779  16.253  0.5086  2.1168  0.3217
   6523SM  C17S 8405   1.198   0.849  16.179 -0.0208  0.0845  1.0614
   6523SM  H17S 8406   1.208   0.960  16.185  3.4325 -0.1942  3.7664
   6523SM  H17T 8407   1.093   0.824  16.206 -0.9580  0.5654 -1.7747
   6523SM  C18S 8408   1.238   0.817  16.038  0.8195  0.3698  0.7242
   6523SM  H18S 8409   1.180   0.880  15.967  0.9218 -0.6033 -0.2398
   6523SM  H18T 8410   1.221   0.709  16.016 -0.4467  0.4718  1.0869
   6523SM  H18U 8411   1.346   0.834  16.020  0.5107  1.4291 -0.2645
   6523SM   C1F 8412   1.642   0.729  17.493 -0.5011 -0.5792  0.1586
   6523SM    OF 8413   1.575   0.824  17.534 -0.4693 -0.0622 -0.8493
   6523SM   C2F 8414   1.588   0.591  17.476  0.7080  0.0336  0.2677
   6523SM   H2F 8415   1.537   0.555  17.568 -0.7181 -0.7460 -0.7812
   6523SM   H2G 8416   1.673   0.520  17.468  0.0770 -0.6662 -0.3492
   6523SM   C3F 8417   1.489   0.586  17.355 -0.1775 -0.6893 -0.3815
   6523SM   H3F 8418   1.553   0.609  17.268  0.3495 -0.1033  0.1548
   6523SM   H3G 8419   1.402   0.655  17.356 -0.5650 -1.1655 -1.0286
   6523SM   C4F 8420   1.434   0.449  17.333  0.0949 -0.3199  0.2178
   6523SM   H4F 8421   1.374   0.411  17.418 -4.0213  0.1589 -2.2067
   6523SM   H4G 8422   1.512   0.374  17.304 -1.1533 -1.2973 -0.7252
   6523SM   C5F 8423   1.330   0.459  17.222 -0.4555  0.0597 -0.1787
   6523SM   H5F 8424   1.366   0.518  17.135 -1.2447 -0.7728 -1.0960
   6523SM   H5G 8425   1.244   0.518  17.261 -0.6580  0.7598 -1.6399
   6523SM   C6F 8426   1.297   0.315  17.166 -0.0241  0.1005  0.8328
   6523SM   H6F 8427   1.255   0.250  17.246  1.8987 -2.1071  0.1872
   6523SM   H6G 8428   1.396   0.277  17.132 -1.0488 -0.0523 -2.2238
   6523SM   C7F 8429   1.206   0.325  17.049  0.3568  0.1796  0.2888
   6523SM   H7F 8430   1.258   0.373  16.964  3.2032 -3.2952 -0.2029
   6523SM   H7G 8431   1.120   0.388  17.078  0.4411 -0.3864  1.8857
   6523SM   C8F 8432   1.149   0.189  17.008  0.1968 -0.0729 -0.1059
   6523SM   H8F 8433   1.113   0.159  17.109  0.6297 -0.0139  0.0698
   6523SM   H8G 8434   1.220   0.110  16.974 -1.0531 -1.1889 -0.2147
   6523SM   C9F 8435   1.038   0.196  16.900 -0.1018  0.2522 -0.0544
   6523SM   H9F 8436   1.083   0.210  16.799  0.0098  0.0219 -0.0390
   6523SM   H9G 8437   0.970   0.279  16.926 -0.0813 -0.0053  0.8439
   6523SM  C10F 8438   0.951   0.076  16.872  0.2578 -0.0389 -0.1216
   6523SM  H10F 8439   0.873   0.107  16.799 -0.7965 -1.2009  0.4779
   6523SM  H10G 8440   0.917   0.055  16.976  1.3476  2.1151  0.7305
   6523SM  C11F 8441   1.030  -0.047  16.823  0.8331  0.4454  0.5225
   6523SM  H11F 8442   0.971  -0.140  16.836  0.6849 -0.0467 -2.7515
   6523SM  H11G 8443   1.124  -0.050  16.881  2.1114  0.3492 -1.4380
   6523SM  C12F 8444   1.077  -0.039  16.674 -0.5450 -0.4382 -0.1338
   6523SM  H12F 8445   1.117  -0.141  16.654  2.4549  0.4933  0.6869
   6523SM  H12G 8446   1.157   0.034  16.652 -0.5137 -1.0776 -2.4691
   6523SM  C13F 8447   0.958  -0.013  16.580 -0.2896 -0.4834 -0.4949
   6523SM  H13F 8448   0.898   0.080  16.586 -0.2605 -0.5294  0.6286
   6523SM  H13G 8449   0.881  -0.092  16.589 -1.6209  0.8294 -0.1699
   6523SM  C14F 8450   1.021  -0.029  16.438 -0.0861  0.6733 -0.2185
   6523SM  H14F 8451   1.072  -0.127  16.423  0.4224  0.3978  2.7860
   6523SM  H14G 8452   1.099   0.048  16.424  0.2869  0.5749  1.2222
   6523SM  C15F 8453   0.918   0.000  16.334 -0.0725 -0.3334  0.2065
   6523SM  H15F 8454   0.898   0.110  16.333 -2.1786 -0.6794  0.3136
   6523SM  H15G 8455   0.821  -0.051  16.346 -0.2978  0.2003  0.7202
   6523SM  C16F 8456   0.958  -0.037  16.197 -0.4973 -0.2861 -0.3834
   6523SM  H16F 8457   0.995  -0.142  16.193  0.8590  0.1801 -0.2312
   6523SM  H16G 8458   1.043   0.022  16.157 -1.4138 -0.1993 -2.3457
   6523SM  C17F 8459   0.849  -0.029  16.095 -0.8742  0.5288 -0.1254
   6523SM  H17F 8460   0.812   0.072  16.121  0.8686  1.7646 -2.1660
   6523SM  H17G 8461   0.767  -0.101  16.116 -0.7632  1.0539  2.4786
   6523SM  C18F 8462   0.903  -0.047  15.957  0.1956 -0.2628  0.2010
   6523SM  H18F 8463   0.958  -0.143  15.954  0.7588  0.0106  1.4152
   6523SM  H18G 8464   0.974   0.034  15.928 -0.4720  0.4707  0.5597
   6523SM  C19F 8465   0.797  -0.057  15.851 -0.2234 -0.1130  0.9225
   6523SM  H19F 8466   0.728   0.029  15.862 -0.5902 -0.0552 -1.3469
   6523SM  H19G 8467   0.732  -0.146  15.866 -1.1304  0.5176  0.8049
   6523SM  C20F 8468   0.858  -0.056  15.709  0.5938  0.5321  0.4700
   6523SM  H20F 8469   0.932  -0.139  15.711 -0.1337 -0.1730 -0.7456
   6523SM  H20G 8470   0.907   0.043  15.698  0.7491  0.6798  2.2159
   6523SM  C21F 8471   0.757  -0.082  15.596 -0.6366  0.4189  0.0682
   6523SM  H21F 8472   0.688   0.005  15.594 -1.9616 -0.5601  0.8458
   6523SM  H21G 8473   0.685  -0.166  15.610 -1.7590  1.5569  1.4858
   6523SM  C22F 8474   0.815  -0.082  15.458 -0.9524  0.2503 -0.0655
   6523SM  H22F 8475   0.900  -0.154  15.460 -2.0591 -1.0754  1.9510
   6523SM  H22G 8476   0.863   0.016  15.434 -0.6057 -0.0671 -0.7028
   6523SM  C23F 8477   0.721  -0.122  15.342  0.2590  0.1429  0.1294
   6523SM  H23F 8478   0.656  -0.033  15.328  1.8430  1.4309  0.6881
   6523SM  H23G 8479   0.648  -0.200  15.372  1.2698 -0.7757  0.2685
   6523SM  H23H 8480   0.769  -0.159  15.249  1.8054 -0.0227  0.9588
   6623SM     N 8481   5.877   3.644  18.018 -0.6774 -0.3177 -0.0676
   6623SM   C15 8482   5.925   3.601  18.156  0.1858 -0.7123  0.1207
   6623SM  H15A 8483   6.010   3.535  18.158  2.2531  1.7850 -0.3272
   6623SM  H15B 8484   5.842   3.562  18.214  1.3922 -1.5680  1.3400
   6623SM  H15C 8485   5.965   3.691  18.200 -1.8654 -0.0511  0.7625
   6623SM   C14 8486   5.787   3.763  18.044  0.3829  0.1722 -0.2403
   6623SM  H14A 8487   5.698   3.734  18.099  0.5438  1.3269  0.6742
   6623SM  H14B 8488   5.757   3.805  17.949  0.2385  0.0812 -0.2325
   6623SM  H14C 8489   5.843   3.827  18.112  1.1937 -0.8154  0.0441
   6623SM   C13 8490   5.999   3.696  17.942 -0.1358 -0.5680  0.4372
   6623SM  H13A 8491   6.074   3.618  17.944  0.2862 -0.1762  0.1524
   6623SM  H13B 8492   6.022   3.788  17.993 -2.0292 -0.3067  0.8848
   6623SM  H13C 8493   5.967   3.723  17.843  0.0003  0.8051  0.7550
   6623SM   C12 8494   5.813   3.533  17.936 -0.1893 -0.3528  0.5793
   6623SM  H12A 8495   5.728   3.498  17.992  0.5132 -1.0727  1.2174
   6623SM  H12B 8496   5.880   3.448  17.937  0.7927  0.4036  1.3827
   6623SM   C11 8497   5.766   3.583  17.794  0.2382  0.8539 -0.0475
   6623SM  H11A 8498   5.745   3.491  17.735 -0.9460  0.6480  0.6796
   6623SM  H11B 8499   5.849   3.628  17.735  0.8342  0.5021  0.5205
   6623SM     P 8500   5.507   3.622  17.823 -0.5405 -0.0340  0.2807
   6623SM   O13 8501   5.510   3.526  17.933  0.7755 -0.6228 -0.7983
   6623SM   O14 8502   5.410   3.737  17.824 -0.6841  0.4847 -0.4652
   6623SM   O11 8503   5.477   3.551  17.689  0.0819 -0.1845  0.0392
   6623SM   O12 8504   5.656   3.673  17.805  0.1617  0.2307  0.2883
   6623SM   C1S 8505   5.522   3.623  17.573  0.2034  0.5333 -0.6100
   6623SM   H1S 8506   5.633   3.614  17.567  0.4439  0.7842  2.2120
   6623SM   H1T 8507   5.501   3.732  17.578  1.3287  0.7220  0.6375
   6623SM    NF 8508   5.519   3.613  17.322 -0.4811 -0.5436  0.4514
   6623SM   HNF 8509   5.483   3.696  17.279 -0.3231 -1.5109 -1.6483
   6623SM   C2S 8510   5.454   3.567  17.441 -0.4048  0.1790 -0.2355
   6623SM   H2S 8511   5.461   3.456  17.451 -1.2126  0.1988  0.7868
   6623SM   C3S 8512   5.301   3.592  17.444  0.2800 -0.0377  0.4091
   6623SM   H3S 8513   5.284   3.700  17.463 -2.5698 -0.7840  3.0490
   6623SM    O3 8514   5.228   3.545  17.560  0.5204  0.1054  0.2445
   6623SM   HO3 8515   5.299   3.523  17.621  0.7079 -1.8689 -0.6008
   6623SM   C4S 8516   5.240   3.552  17.315  1.1764  0.4210  0.2699
   6623SM   H4S 8517   5.270   3.619  17.233  2.4765  2.4590  2.2724
   6623SM   C5S 8518   5.175   3.432  17.294  0.1532  0.6002  0.0820
   6623SM   H5S 8519   5.159   3.370  17.384  0.3766  1.4492  0.7267
   6623SM   C6S 8520   5.133   3.365  17.161  0.1764 -0.4272 -1.0313
   6623SM   H6S 8521   5.028   3.395  17.139  0.3141  1.4306  0.5483
   6623SM   H6T 8522   5.133   3.254  17.168  0.8908 -0.4012 -0.5305
   6623SM   C7S 8523   5.230   3.400  17.053 -0.5722  0.0448  1.0054
   6623SM   H7S 8524   5.323   3.344  17.075  0.6342  1.6667  0.2652
   6623SM   H7T 8525   5.253   3.509  17.052  2.3281 -0.4851 -0.6839
   6623SM   C8S 8526   5.186   3.369  16.912 -0.6462 -0.6006 -0.1053
   6623SM   H8S 8527   5.085   3.413  16.913  0.9961  3.6544  1.3872
   6623SM   H8T 8528   5.179   3.259  16.899 -0.0698 -0.5950 -0.5025
   6623SM   C9S 8529   5.284   3.430  16.816 -0.5643  0.2833  0.3549
   6623SM   H9S 8530   5.383   3.381  16.824 -1.0167 -0.8181 -0.5305
   6623SM   H9T 8531   5.298   3.539  16.828  4.3393 -0.3004  2.1597
   6623SM  C10S 8532   5.230   3.412  16.668 -0.2671 -0.8551  0.3528
   6623SM  H10S 8533   5.122   3.434  16.675 -0.2136 -0.0892 -0.8596
   6623SM  H10T 8534   5.247   3.305  16.644  0.6051 -0.5420 -0.4831
   6623SM  C11S 8535   5.301   3.494  16.561  0.7785  0.1086  0.1881
   6623SM  H11S 8536   5.409   3.471  16.548  0.9893  1.3961 -0.5435
   6623SM  H11T 8537   5.290   3.598  16.599 -1.2547 -1.4783  4.6315
   6623SM  C12S 8538   5.241   3.464  16.424  0.5022  0.2112  0.2137
   6623SM  H12S 8539   5.130   3.465  16.432  0.3575 -1.8650 -0.8340
   6623SM  H12T 8540   5.259   3.357  16.398 -0.0335 -0.0868  1.0426
   6623SM  C13S 8541   5.288   3.569  16.320  0.7060 -0.1319  0.0911
   6623SM  H13S 8542   5.399   3.572  16.326  0.6404  2.2372  1.0806
   6623SM  H13T 8543   5.248   3.670  16.339 -0.8712 -0.4586 -1.2562
   6623SM  C14S 8544   5.247   3.535  16.176 -0.3888  0.0790 -0.6494
   6623SM  H14S 8545   5.138   3.516  16.165 -0.0879 -1.9882 -0.5697
   6623SM  H14T 8546   5.293   3.439  16.142  2.3237  0.8785  0.4533
   6623SM  C15S 8547   5.287   3.650  16.079 -0.2394  0.2745 -0.5769
   6623SM  H15S 8548   5.395   3.671  16.095 -0.2851 -0.1909  0.4069
   6623SM  H15T 8549   5.224   3.736  16.107 -0.6138 -0.4913  1.0419
   6623SM  C16S 8550   5.250   3.615  15.940  0.2489  0.0781  0.4366
   6623SM  H16S 8551   5.139   3.611  15.932  0.2076  1.8871 -0.5873
   6623SM  H16T 8552   5.284   3.514  15.908 -1.7029 -1.3076  2.4184
   6623SM  C17S 8553   5.303   3.727  15.851 -0.2308  0.0229  0.4020
   6623SM  H17S 8554   5.412   3.715  15.834 -0.0076  3.3338 -1.3089
   6623SM  H17T 8555   5.296   3.827  15.899 -0.3806  0.2156 -0.0161
   6623SM  C18S 8556   5.227   3.737  15.725  0.1221 -0.3681  0.5784
   6623SM  H18S 8557   5.235   3.647  15.660  0.8826  0.1023 -0.0005
   6623SM  H18T 8558   5.253   3.832  15.674  0.3745 -0.3210  0.7894
   6623SM  H18U 8559   5.120   3.754  15.748  0.2904  2.1538 -0.1639
   6623SM   C1F 8560   5.640   3.577  17.290 -0.4966 -0.1209 -0.2150
   6623SM    OF 8561   5.689   3.477  17.341  0.1533  0.5008 -0.0988
   6623SM   C2F 8562   5.721   3.665  17.196  1.3279  0.4630  0.1502
   6623SM   H2F 8563   5.825   3.666  17.232  0.5501 -1.1628  2.6916
   6623SM   H2G 8564   5.676   3.767  17.192  1.8066  0.6880  0.5209
   6623SM   C3F 8565   5.694   3.612  17.049  0.4012  0.5329 -0.0599
   6623SM   H3F 8566   5.695   3.699  16.979 -0.5701 -0.3677 -1.2334
   6623SM   H3G 8567   5.590   3.573  17.047  1.5640 -2.8169 -1.3623
   6623SM   C4F 8568   5.782   3.494  17.001 -0.0381  0.1842  0.1365
   6623SM   H4F 8569   5.780   3.408  17.070  1.6808  1.3899  1.7773
   6623SM   H4G 8570   5.885   3.533  16.986 -0.9576  1.7282 -3.1164
   6623SM   C5F 8571   5.739   3.428  16.869  0.3995 -0.5572  0.4160
   6623SM   H5F 8572   5.632   3.403  16.886  0.6531 -0.4384  2.5046
   6623SM   H5G 8573   5.808   3.345  16.844  1.1641  0.2075 -0.0808
   6623SM   C6F 8574   5.747   3.523  16.747  0.1065 -0.0516  0.0861
   6623SM   H6F 8575   5.839   3.584  16.756 -0.1536  0.0742  2.2689
   6623SM   H6G 8576   5.666   3.598  16.752  0.5532  0.5763 -1.3689
   6623SM   C7F 8577   5.737   3.449  16.610 -0.0194  0.2078  0.6322
   6623SM   H7F 8578   5.635   3.405  16.604  1.4767 -3.4683 -1.7175
   6623SM   H7G 8579   5.808   3.363  16.604  0.7585  0.6872  2.1954
   6623SM   C8F 8580   5.746   3.534  16.480 -0.4172  0.1879 -0.4434
   6623SM   H8F 8581   5.812   3.619  16.508  0.3306 -1.0779  1.9731
   6623SM   H8G 8582   5.644   3.573  16.456 -0.4555  0.5291  0.2334
   6623SM   C9F 8583   5.809   3.450  16.372 -0.3238  0.1296  0.0465
   6623SM   H9F 8584   5.752   3.355  16.360  1.6944 -1.1247 -0.0744
   6623SM   H9G 8585   5.919   3.437  16.380 -0.1526  2.0357  1.3954
   6623SM  C10F 8586   5.804   3.512  16.227  1.1618  0.5419 -0.7990
   6623SM  H10F 8587   5.837   3.440  16.149 -0.3387 -1.4966  0.3547
   6623SM  H10G 8588   5.881   3.592  16.220  1.1369  0.5680 -0.7715
   6623SM  C11F 8589   5.672   3.584  16.181  0.0366 -0.7493 -0.0588
   6623SM  H11F 8590   5.665   3.673  16.247 -1.9510 -0.6651 -0.3456
   6623SM  H11G 8591   5.583   3.520  16.201 -0.5324 -0.0187 -0.2176
   6623SM  C12F 8592   5.676   3.635  16.033 -0.8717  0.0369  0.5717
   6623SM  H12F 8593   5.776   3.675  16.009  0.3880 -2.6887  0.9095
   6623SM  H12G 8594   5.602   3.716  16.012  1.0060  1.3497 -1.3862
   6623SM  C13F 8595   5.653   3.533  15.916  0.3871 -0.0302 -1.5711
   6623SM  H13F 8596   5.547   3.500  15.913  0.5214 -0.5345 -0.9980
   6623SM  H13G 8597   5.712   3.442  15.939 -0.1592  0.0748  0.4082
   6623SM  C14F 8598   5.702   3.593  15.787 -0.1935  0.7575 -0.1649
   6623SM  H14F 8599   5.809   3.619  15.801 -0.4258  2.3593 -1.1221
   6623SM  H14G 8600   5.645   3.686  15.765 -2.3148 -1.0936 -3.2901
   6623SM  C15F 8601   5.680   3.503  15.669  0.5515 -0.6262 -0.8808
   6623SM  H15F 8602   5.681   3.393  15.678  0.9150 -0.5689 -0.1850
   6623SM  H15G 8603   5.755   3.522  15.589  1.7393 -0.8759  0.1442
   6623SM  C16F 8604   5.536   3.532  15.616 -0.1647  0.1778 -0.6153
   6623SM  H16F 8605   5.465   3.531  15.702  1.4020 -0.3837  0.7313
   6623SM  H16G 8606   5.519   3.441  15.556 -1.8546 -0.4793  0.7553
   6623SM  C17F 8607   5.508   3.651  15.524 -0.6966 -0.3695  0.2152
   6623SM  H17F 8608   5.506   3.740  15.591  0.4081 -0.4655  0.3965
   6623SM  H17G 8609   5.409   3.634  15.477 -1.1058  0.6494  0.6623
   6623SM  C18F 8610   5.611   3.664  15.414  0.1532 -0.0271  0.2212
   6623SM  H18F 8611   5.694   3.716  15.466 -1.8045  2.5372  1.0403
   6623SM  H18G 8612   5.575   3.741  15.343  0.4755 -0.6786 -0.6665
   6623SM  C19F 8613   5.632   3.538  15.327  0.1193  0.6542  0.6635
   6623SM  H19F 8614   5.680   3.468  15.399 -0.0141  0.1554  0.2742
   6623SM  H19G 8615   5.696   3.563  15.240 -1.1755  0.4198 -0.3908
   6623SM  C20F 8616   5.501   3.469  15.278 -0.9095 -0.0050  0.0058
   6623SM  H20F 8617   5.456   3.523  15.193  0.5967  0.2922 -0.6340
   6623SM  H20G 8618   5.422   3.464  15.356  1.3820 -2.2426  2.4205
   6623SM  C21F 8619   5.549   3.324  15.236  0.8883  0.3395 -0.0403
   6623SM  H21F 8620   5.625   3.279  15.305 -3.0314 -2.4055  2.9365
   6623SM  H21G 8621   5.584   3.332  15.130 -0.3278  1.5375 -0.3657
   6623SM  C22F 8622   5.438   3.235  15.225  0.0540 -0.4884 -0.2025
   6623SM  H22F 8623   5.366   3.282  15.154  1.7413 -0.5480 -2.0321
   6623SM  H22G 8624   5.389   3.225  15.324  0.5618 -0.1414  0.0847
   6623SM  C23F 8625   5.451   3.091  15.172 -0.0567 -0.1050 -0.0420
   6623SM  H23F 8626   5.516   3.039  15.246 -0.0854  0.2257  0.2187
   6623SM  H23G 8627   5.511   3.092  15.079  0.3130  0.2559  0.1938
   6623SM  H23H 8628   5.363   3.024  15.172 -0.0851 -0.0939 -1.3564
   6723SM     N 8629   6.615   1.193  18.314 -0.5718 -0.6471  0.0129
   6723SM   C15 8630   6.605   1.316  18.403 -0.0734 -0.4552 -0.6998
   6723SM  H15A 8631   6.617   1.407  18.346 -2.7278  0.1104 -0.4739
   6723SM  H15B 8632   6.670   1.315  18.490  1.2088  0.2600 -1.6174
   6723SM  H15C 8633   6.503   1.327  18.436  0.4823  1.9783  0.4055
   6723SM   C14 8634   6.745   1.175  18.250  0.3278  0.3742 -0.0450
   6723SM  H14A 8635   6.750   1.093  18.179  0.8390  1.2322 -1.0203
   6723SM  H14B 8636   6.820   1.170  18.328 -0.9460 -3.0065  1.1938
   6723SM  H14C 8637   6.760   1.257  18.182 -1.8677  0.0052 -1.0922
   6723SM   C13 8638   6.586   1.088  18.405  0.0309  0.5269 -0.1789
   6723SM  H13A 8639   6.496   1.096  18.463 -0.5832 -0.1250 -1.0228
   6723SM  H13B 8640   6.674   1.064  18.464  0.9241  1.8080 -0.9412
   6723SM  H13C 8641   6.574   1.002  18.341  1.5263  0.9106 -1.0330
   6723SM   C12 8642   6.501   1.201  18.220  0.2484 -0.2617  0.1716
   6723SM  H12A 8643   6.500   1.299  18.176 -0.3603 -0.9647 -1.4662
   6723SM  H12B 8644   6.406   1.197  18.272 -0.0081 -0.7570 -0.3158
   6723SM   C11 8645   6.495   1.092  18.107 -0.4155  0.3536  0.0607
   6723SM  H11A 8646   6.390   1.093  18.071 -0.1649 -0.5546 -0.7515
   6723SM  H11B 8647   6.496   0.988  18.148 -4.7042 -0.5082 -1.4909
   6723SM     P 8648   6.602   1.245  17.923  0.2616 -0.4723 -0.5389
   6723SM   O13 8649   6.496   1.340  17.973 -0.0002  0.5175 -0.0381
   6723SM   O14 8650   6.743   1.290  17.917  0.1790  0.2097 -0.1041
   6723SM   O11 8651   6.564   1.196  17.780 -0.1191 -0.5465  0.5550
   6723SM   O12 8652   6.596   1.105  18.003 -0.0791 -0.0414 -0.3858
   6723SM   C1S 8653   6.505   1.080  17.751 -0.3895 -0.1921 -0.5206
   6723SM   H1S 8654   6.407   1.068  17.802  0.0557  1.3220  0.8074
   6723SM   H1T 8655   6.555   0.989  17.790  0.5956  0.8647  0.7783
   6723SM    NF 8656   6.384   0.974  17.563  0.1826  0.2247 -0.1180
   6723SM   HNF 8657   6.417   0.898  17.507 -1.6655 -2.0738  1.6733
   6723SM   C2S 8658   6.484   1.069  17.599 -0.1466  0.0843 -0.5811
   6723SM   H2S 8659   6.450   1.171  17.571  0.1409  0.5184  0.5956
   6723SM   C3S 8660   6.624   1.060  17.531  0.3307 -0.1095 -0.6224
   6723SM   H3S 8661   6.665   0.960  17.558 -0.0940  0.3956  2.3103
   6723SM    O3 8662   6.732   1.147  17.570  0.8160  0.9839  0.0709
   6723SM   HO3 8663   6.693   1.195  17.643 -1.3400  0.7599 -0.8558
   6723SM   C4S 8664   6.609   1.072  17.389  0.2477 -0.3191 -0.2624
   6723SM   H4S 8665   6.553   1.160  17.353 -1.1917  0.6251  3.7096
   6723SM   C5S 8666   6.642   0.974  17.306 -0.4356  0.3018 -0.2105
   6723SM   H5S 8667   6.681   0.882  17.352 -0.8870 -0.0866 -0.5884
   6723SM   C6S 8668   6.632   0.962  17.156 -0.0067 -0.9259 -0.3678
   6723SM   H6S 8669   6.529   0.941  17.121 -0.1458  2.4513 -2.4482
   6723SM   H6T 8670   6.698   0.878  17.126  2.3173  0.8901 -0.6065
   6723SM   C7S 8671   6.682   1.096  17.082  1.0836  0.5397 -0.6061
   6723SM   H7S 8672   6.788   1.102  17.114  1.1845  1.4665 -1.0863
   6723SM   H7T 8673   6.632   1.185  17.124 -0.7406 -0.3662 -0.7595
   6723SM   C8S 8674   6.678   1.080  16.928 -0.0032  0.4790  1.0702
   6723SM   H8S 8675   6.707   1.172  16.874 -0.6641 -0.5590 -1.1623
   6723SM   H8T 8676   6.578   1.046  16.895  0.7813  0.9252 -2.0266
   6723SM   C9S 8677   6.781   0.988  16.874 -0.3375 -0.3015 -0.7331
   6723SM   H9S 8678   6.776   0.885  16.916 -1.9885 -1.1331 -2.7575
   6723SM   H9T 8679   6.882   1.031  16.891 -1.7619  2.4744  1.5267
   6723SM  C10S 8680   6.772   0.975  16.724 -0.4795  0.3645 -0.0749
   6723SM  H10S 8681   6.779   1.071  16.669 -0.5362 -0.5357 -1.7014
   6723SM  H10T 8682   6.669   0.936  16.715 -0.2789 -0.6579  1.5780
   6723SM  C11S 8683   6.875   0.884  16.667  1.1113  0.2557  0.4391
   6723SM  H11S 8684   6.883   0.797  16.735  0.7199  0.4741  0.7741
   6723SM  H11T 8685   6.975   0.933  16.668 -0.0680  2.9882 -1.6119
   6723SM  C12S 8686   6.849   0.834  16.526  0.0809 -0.0626 -0.2560
   6723SM  H12S 8687   6.753   0.777  16.524 -0.8285  1.4110  0.0342
   6723SM  H12T 8688   6.929   0.770  16.484 -0.6755 -1.1833 -0.0651
   6723SM  C13S 8689   6.810   0.953  16.440  0.3094  0.5148  0.2809
   6723SM  H13S 8690   6.892   1.028  16.438  1.5050 -0.6535  2.1319
   6723SM  H13T 8691   6.712   0.994  16.473 -0.0218  0.1256 -0.1961
   6723SM  C14S 8692   6.796   0.916  16.291  0.3784 -0.0175 -0.2655
   6723SM  H14S 8693   6.752   1.006  16.243  1.7468  0.6829 -0.2498
   6723SM  H14T 8694   6.729   0.830  16.271 -3.2534  2.6878 -0.8690
   6723SM  C15S 8695   6.932   0.884  16.230  0.4254  0.1499 -0.1974
   6723SM  H15S 8696   6.978   0.788  16.262  0.6906 -0.2795 -1.8014
   6723SM  H15T 8697   6.994   0.971  16.262 -0.0599  0.0174  1.1804
   6723SM  C16S 8698   6.940   0.901  16.074  0.1250  0.0563 -0.7364
   6723SM  H16S 8699   7.041   0.873  16.036  0.2640  0.1973 -0.4788
   6723SM  H16T 8700   6.919   1.005  16.040 -0.8727  0.0227 -0.2564
   6723SM  C17S 8701   6.849   0.810  15.998  0.2180 -0.4602  0.7052
   6723SM  H17S 8702   6.746   0.812  16.040 -0.4208  2.1088 -0.7461
   6723SM  H17T 8703   6.879   0.703  16.003 -0.6236 -0.8509 -1.4513
   6723SM  C18S 8704   6.842   0.843  15.841 -0.9619  0.5716 -0.6627
   6723SM  H18S 8705   6.827   0.950  15.817  0.2445  0.7852 -0.5469
   6723SM  H18T 8706   6.766   0.779  15.792 -1.2977 -1.0977  1.8768
   6723SM  H18U 8707   6.941   0.809  15.803 -0.3717  0.4876  0.8600
   6723SM   C1F 8708   6.251   0.986  17.598  0.2696  0.3949  0.4415
   6723SM    OF 8709   6.203   1.081  17.658 -0.8285 -0.0668 -0.4593
   6723SM   C2F 8710   6.155   0.880  17.544 -0.1747  0.3905  0.0885
   6723SM   H2F 8711   6.141   0.802  17.622  0.1528 -1.2997 -1.4561
   6723SM   H2G 8712   6.196   0.823  17.457  0.0450 -3.3406  2.4124
   6723SM   C3F 8713   6.017   0.927  17.511 -0.2528  0.3928  0.1503
   6723SM   H3F 8714   5.978   0.951  17.612  2.3610  0.5884  1.1992
   6723SM   H3G 8715   5.956   0.836  17.489 -1.2770  0.5836  2.0448
   6723SM   C4F 8716   5.994   1.016  17.381  0.0659  0.2499 -0.5987
   6723SM   H4F 8717   6.045   1.111  17.409  0.4546 -0.3298  0.7771
   6723SM   H4G 8718   5.889   1.047  17.368  0.2867  0.5818 -1.7415
   6723SM   C5F 8719   6.048   0.964  17.246 -0.0169 -0.3049 -1.0658
   6723SM   H5F 8720   5.987   0.878  17.211 -3.2325  2.0844 -1.8405
   6723SM   H5G 8721   6.157   0.944  17.247  0.1709  0.3287 -3.1901
   6723SM   C6F 8722   6.036   1.068  17.136  0.1559  0.1639 -0.4765
   6723SM   H6F 8723   6.086   1.162  17.166 -1.8367  1.6114 -1.4311
   6723SM   H6G 8724   5.928   1.094  17.126 -0.8505 -2.0899  2.6247
   6723SM   C7F 8725   6.099   1.036  17.003 -0.2215  1.0155  0.2826
   6723SM   H7F 8726   6.083   0.928  16.981 -0.9613  0.6762  2.2906
   6723SM   H7G 8727   6.210   1.049  17.005  0.0432 -0.7766 -0.6659
   6723SM   C8F 8728   6.047   1.124  16.883  0.1114  0.1621  0.7256
   6723SM   H8F 8729   6.071   1.229  16.912 -0.5683  0.9134 -1.2756
   6723SM   H8G 8730   5.937   1.108  16.889 -0.0978  1.8613  2.5391
   6723SM   C9F 8731   6.119   1.087  16.758  0.2553  0.3704  0.1025
   6723SM   H9F 8732   6.100   0.985  16.718 -0.1810  0.6827 -0.5047
   6723SM   H9G 8733   6.227   1.102  16.779 -0.0734  0.1694  2.1281
   6723SM  C10F 8734   6.067   1.174  16.644  0.0181 -0.2171  0.1720
   6723SM  H10F 8735   6.151   1.238  16.611 -1.0921  1.2196  0.0537
   6723SM  H10G 8736   5.992   1.248  16.677  0.8457  0.9898 -0.5694
   6723SM  C11F 8737   5.999   1.108  16.526 -0.5054 -0.5447  0.1741
   6723SM  H11F 8738   5.949   1.188  16.469 -0.3404 -0.0239  0.7532
   6723SM  H11G 8739   5.925   1.040  16.573 -1.0109 -0.3595 -0.3440
   6723SM  C12F 8740   6.094   1.050  16.422 -0.8741 -1.2487  0.0135
   6723SM  H12F 8741   6.153   0.959  16.447  0.7245 -0.3467 -0.2951
   6723SM  H12G 8742   6.175   1.124  16.407 -0.6762 -1.5497 -0.4318
   6723SM  C13F 8743   6.023   1.031  16.284 -1.5305 -0.1800  0.1422
   6723SM  H13F 8744   5.939   1.104  16.286 -1.9971 -0.7197  2.0160
   6723SM  H13G 8745   5.964   0.937  16.285 -0.8706 -0.6135  2.0787
   6723SM  C14F 8746   6.117   1.039  16.163  0.2668  0.4220 -0.1350
   6723SM  H14F 8747   6.146   0.934  16.142 -1.0959  0.1269 -0.6547
   6723SM  H14G 8748   6.201   1.107  16.190  3.1945 -2.1855 -2.0144
   6723SM  C15F 8749   6.042   1.093  16.042  0.4601 -0.3774  0.3990
   6723SM  H15F 8750   6.071   1.200  16.031  0.2902 -0.3740 -0.0322
   6723SM  H15G 8751   5.935   1.074  16.062  1.1521 -2.9932  2.1185
   6723SM  C16F 8752   6.085   1.014  15.913  0.0104 -0.0993  0.3969
   6723SM  H16F 8753   6.060   0.906  15.921  2.8777 -0.7647  2.3180
   6723SM  H16G 8754   6.195   1.022  15.899 -0.0946 -1.5029 -1.6258
   6723SM  C17F 8755   5.999   1.078  15.798 -0.2135 -0.7198  0.3561
   6723SM  H17F 8756   6.017   1.187  15.802 -0.2793 -0.7337  1.4470
   6723SM  H17G 8757   5.890   1.065  15.816 -0.5821  1.1558 -0.3384
   6723SM  C18F 8758   6.025   1.014  15.664  0.3416  0.3198  0.9286
   6723SM  H18F 8759   5.997   0.906  15.659  1.1956  0.1532 -1.2404
   6723SM  H18G 8760   6.136   1.016  15.651  0.2496  2.1397  0.1082
   6723SM  C19F 8761   5.965   1.071  15.536  0.2797 -0.0751  0.2530
   6723SM  H19F 8762   6.008   1.011  15.452  2.7875  0.0159  1.3895
   6723SM  H19G 8763   6.007   1.172  15.519  0.6707 -0.5693 -2.1835
   6723SM  C20F 8764   5.808   1.080  15.531  0.5291  1.2707  0.1402
   6723SM  H20F 8765   5.772   1.134  15.621 -1.7304 -2.2943  1.5916
   6723SM  H20G 8766   5.770   0.976  15.543 -0.1085  1.1062 -2.7679
   6723SM  C21F 8767   5.756   1.149  15.408  0.1689 -0.0634  0.4988
   6723SM  H21F 8768   5.772   1.088  15.316 -1.3731  2.0260 -1.2703
   6723SM  H21G 8769   5.808   1.246  15.390  0.2286 -0.4598 -1.8498
   6723SM  C22F 8770   5.608   1.179  15.400  0.3194 -0.1860  0.6043
   6723SM  H22F 8771   5.574   1.240  15.486 -1.7997  1.0264 -0.9669
   6723SM  H22G 8772   5.565   1.077  15.396  1.8197 -0.8524  0.9205
   6723SM  C23F 8773   5.567   1.264  15.277  0.3194 -0.4466 -0.2523
   6723SM  H23F 8774   5.472   1.322  15.281  1.1202  0.9133 -0.0680
   6723SM  H23G 8775   5.568   1.210  15.180 -2.0378 -1.7688  0.3784
   6723SM  H23H 8776   5.642   1.347  15.276  0.3596 -0.4092  1.6531
   6823SM     N 8777   6.089   2.701  17.878  0.2958 -0.0429 -0.3901
   6823SM   C15 8778   5.981   2.608  17.907  0.1363 -0.4537  0.5835
   6823SM  H15A 8779   5.883   2.650  17.894  0.3175  0.3763  1.6777
   6823SM  H15B 8780   5.992   2.569  18.007 -1.3092 -1.8663  0.2142
   6823SM  H15C 8781   5.976   2.523  17.842 -1.4924 -0.0961  0.2052
   6823SM   C14 8782   6.042   2.792  17.772 -0.1458 -0.1502 -0.2484
   6823SM  H14A 8783   5.948   2.838  17.798  0.0501  0.3182 -0.3434
   6823SM  H14B 8784   6.015   2.734  17.685 -1.5182  0.8078 -0.4895
   6823SM  H14C 8785   6.114   2.869  17.747 -0.3155 -0.2306 -1.0011
   6823SM   C13 8786   6.108   2.789  18.000  0.1003  0.4243  0.3040
   6823SM  H13A 8787   6.188   2.859  17.979 -1.4767  1.5283 -2.6994
   6823SM  H13B 8788   6.129   2.734  18.090  1.4076  3.1454  1.7692
   6823SM  H13C 8789   6.019   2.849  18.011  1.0523  1.7198  1.2137
   6823SM   C12 8790   6.211   2.642  17.829 -0.7721  0.1136  0.1482
   6823SM  H12A 8791   6.240   2.563  17.896 -1.5326 -0.7458 -0.5054
   6823SM  H12B 8792   6.294   2.712  17.834 -0.5949 -0.0698 -0.1763
   6823SM   C11 8793   6.198   2.562  17.692 -0.4524  0.0148  1.1198
   6823SM  H11A 8794   6.298   2.534  17.653 -0.0755  1.2423  1.1746
   6823SM  H11B 8795   6.165   2.635  17.616  1.2047  2.1702  2.3612
   6823SM     P 8796   6.008   2.418  17.609  0.0875 -0.1273  0.5372
   6823SM   O13 8797   5.978   2.274  17.596 -0.0961  0.0496  0.0121
   6823SM   O14 8798   5.903   2.515  17.642  0.3543 -0.1885 -0.3034
   6823SM   O11 8799   6.069   2.462  17.468 -0.0241  0.0246 -0.0387
   6823SM   O12 8800   6.123   2.438  17.711 -0.3906  0.0948  0.0458
   6823SM   C1S 8801   6.191   2.389  17.421 -0.2765 -0.0215  0.4138
   6823SM   H1S 8802   6.179   2.279  17.419  1.3740 -0.2358 -1.4021
   6823SM   H1T 8803   6.280   2.411  17.483  0.1425 -3.2792  1.1474
   6823SM    NF 8804   6.348   2.330  17.224  1.0664  0.2272  0.3955
   6823SM   HNF 8805   6.442   2.353  17.200  1.0837 -0.9593 -0.7804
   6823SM   C2S 8806   6.248   2.428  17.275  0.6194  0.6911 -0.4969
   6823SM   H2S 8807   6.159   2.431  17.209 -0.8453  0.2924  1.3587
   6823SM   C3S 8808   6.306   2.579  17.279  0.6496  0.4468 -0.5651
   6823SM   H3S 8809   6.411   2.581  17.314  0.9097  3.2806 -1.2568
   6823SM    O3 8810   6.233   2.663  17.371  0.4726  0.2294 -0.1071
   6823SM   HO3 8811   6.178   2.600  17.418  0.5276  1.5209  1.7915
   6823SM   C4S 8812   6.316   2.630  17.143 -0.1426  0.7576  0.2502
   6823SM   H4S 8813   6.421   2.637  17.110 -0.2499  0.3764 -0.1802
   6823SM   C5S 8814   6.231   2.699  17.071  0.5940 -0.6207  0.2932
   6823SM   H5S 8815   6.143   2.743  17.120  2.2263  1.0492  1.9275
   6823SM   C6S 8816   6.272   2.752  16.936  0.5153 -0.2900 -0.1480
   6823SM   H6S 8817   6.278   2.863  16.931  0.5693 -0.3357 -3.1496
   6823SM   H6T 8818   6.191   2.721  16.866 -1.1140 -0.5304  1.7616
   6823SM   C7S 8819   6.404   2.703  16.868 -0.3053  0.1717  0.2815
   6823SM   H7S 8820   6.404   2.592  16.874  0.9350  0.1970  1.1330
   6823SM   H7T 8821   6.490   2.737  16.929 -1.2878  2.0242  0.7114
   6823SM   C8S 8822   6.429   2.723  16.714  0.7281 -0.2159 -0.5485
   6823SM   H8S 8823   6.346   2.668  16.665  0.2089  0.9685 -1.0419
   6823SM   H8T 8824   6.522   2.671  16.684 -0.2143 -1.5738 -1.2347
   6823SM   C9S 8825   6.427   2.864  16.653 -0.0655  0.1792 -0.1389
   6823SM   H9S 8826   6.511   2.917  16.703  0.5152 -0.9418  0.1057
   6823SM   H9T 8827   6.326   2.911  16.658 -0.1156  0.0460  0.0910
   6823SM  C10S 8828   6.461   2.851  16.501 -0.0694  0.5799 -0.2489
   6823SM  H10S 8829   6.544   2.779  16.484 -1.3402 -1.3191  1.0618
   6823SM  H10T 8830   6.487   2.950  16.460 -0.7975  0.6760 -0.4861
   6823SM  C11S 8831   6.346   2.793  16.417 -0.2919  0.2033 -0.2354
   6823SM  H11S 8832   6.256   2.856  16.435 -0.3317 -0.1667  0.9207
   6823SM  H11T 8833   6.321   2.688  16.443 -0.5779  0.1054 -0.8782
   6823SM  C12S 8834   6.389   2.799  16.267  0.0821  0.0631 -0.4854
   6823SM  H12S 8835   6.490   2.751  16.271  0.9531  1.8949  1.6282
   6823SM  H12T 8836   6.396   2.905  16.234  0.3121  0.2334  0.0954
   6823SM  C13S 8837   6.301   2.701  16.180 -0.6870 -0.2633  0.9025
   6823SM  H13S 8838   6.198   2.742  16.184 -0.4419  0.2605  2.2210
   6823SM  H13T 8839   6.302   2.596  16.216 -0.4953 -1.3481 -2.0102
   6823SM  C14S 8840   6.352   2.687  16.028  0.2742  0.3328  0.1233
   6823SM  H14S 8841   6.271   2.628  15.980 -0.0101 -0.1128  1.1189
   6823SM  H14T 8842   6.457   2.651  16.021  0.3143  0.4201  0.2635
   6823SM  C15S 8843   6.352   2.819  15.951 -0.8624 -0.2879  0.0448
   6823SM  H15S 8844   6.440   2.882  15.977  0.1244 -0.3066 -2.9017
   6823SM  H15T 8845   6.265   2.885  15.970  0.5282  1.9451 -0.9094
   6823SM  C16S 8846   6.373   2.812  15.795 -0.3823 -0.2829 -0.2390
   6823SM  H16S 8847   6.291   2.765  15.737  0.7762  0.1050 -2.3369
   6823SM  H16T 8848   6.468   2.757  15.776 -0.4751 -0.8189  0.8064
   6823SM  C17S 8849   6.384   2.953  15.729  0.2031  0.5790 -0.1927
   6823SM  H17S 8850   6.465   3.012  15.775  1.4238 -0.0247 -1.4891
   6823SM  H17T 8851   6.288   3.009  15.721 -1.5043 -2.0928 -0.1093
   6823SM  C18S 8852   6.426   2.929  15.585 -0.5192 -0.4072  0.5333
   6823SM  H18S 8853   6.526   2.883  15.578 -1.6364 -2.8955 -0.2631
   6823SM  H18T 8854   6.440   3.015  15.517 -2.2888 -0.2778  0.2610
   6823SM  H18U 8855   6.355   2.863  15.529  0.6399 -0.9729 -0.3147
   6823SM   C1F 8856   6.322   2.209  17.210  0.4225  0.8966 -0.5717
   6823SM    OF 8857   6.214   2.154  17.238  0.7886 -0.4049 -0.9098
   6823SM   C2F 8858   6.439   2.141  17.151 -0.4108 -0.6958 -0.2726
   6823SM   H2F 8859   6.413   2.034  17.133  0.9567 -1.0402 -0.3425
   6823SM   H2G 8860   6.525   2.158  17.218 -0.9463  0.9125  0.0517
   6823SM   C3F 8861   6.476   2.199  17.010  0.5092 -0.5284  0.1195
   6823SM   H3F 8862   6.558   2.144  16.960  0.0645 -0.8524 -0.2677
   6823SM   H3G 8863   6.502   2.307  17.012 -0.8117 -0.1840 -0.1415
   6823SM   C4F 8864   6.363   2.171  16.905  0.2135 -0.1407 -0.4311
   6823SM   H4F 8865   6.275   2.234  16.927  0.1916 -0.6375  1.0327
   6823SM   H4G 8866   6.336   2.063  16.903 -0.5402  0.0512 -1.1412
   6823SM   C5F 8867   6.405   2.190  16.757  0.1208  0.0108  0.1184
   6823SM   H5F 8868   6.313   2.174  16.698  1.4427 -3.0937 -1.3471
   6823SM   H5G 8869   6.488   2.125  16.722  2.1544  2.1450  0.7043
   6823SM   C6F 8870   6.455   2.324  16.722 -0.5528 -0.2850 -0.7195
   6823SM   H6F 8871   6.545   2.339  16.785  0.5783 -0.9712 -2.1042
   6823SM   H6G 8872   6.382   2.404  16.746 -0.0810 -0.1586  0.3472
   6823SM   C7F 8873   6.495   2.337  16.570  0.0630 -0.0031 -0.1968
   6823SM   H7F 8874   6.543   2.244  16.534  0.3889  0.1011 -0.0323
   6823SM   H7G 8875   6.577   2.411  16.561  0.6914 -0.5677  0.7653
   6823SM   C8F 8876   6.378   2.366  16.476  0.1634 -0.4506  0.1756
   6823SM   H8F 8877   6.332   2.466  16.494  2.4027  1.0880 -1.9003
   6823SM   H8G 8878   6.297   2.291  16.487 -0.9997  0.7412 -0.0176
   6823SM   C9F 8879   6.409   2.361  16.327 -0.5565  0.3130 -0.2148
   6823SM   H9F 8880   6.487   2.435  16.301  0.4410 -0.9155 -0.8327
   6823SM   H9G 8881   6.318   2.385  16.267 -0.1513  2.8078  0.0645
   6823SM  C10F 8882   6.446   2.222  16.278 -0.0299 -0.1966  0.7727
   6823SM  H10F 8883   6.363   2.156  16.313  0.5057 -1.9213 -1.0508
   6823SM  H10G 8884   6.543   2.177  16.307  0.7051 -1.0595 -2.6059
   6823SM  C11F 8885   6.455   2.211  16.120  0.3467 -0.4559 -0.2245
   6823SM  H11F 8886   6.485   2.312  16.084 -1.0398  0.8967  2.1195
   6823SM  H11G 8887   6.355   2.194  16.074 -0.3211 -0.3657  1.1385
   6823SM  C12F 8888   6.534   2.086  16.072  1.0071 -0.2297  0.2122
   6823SM  H12F 8889   6.481   1.988  16.081 -0.5272  0.4361 -1.1210
   6823SM  H12G 8890   6.623   2.078  16.138  1.5065  0.7747 -0.3268
   6823SM  C13F 8891   6.586   2.090  15.926  0.1998 -0.2711 -0.0502
   6823SM  H13F 8892   6.632   1.989  15.914  0.4148 -0.3045  0.9798
   6823SM  H13G 8893   6.663   2.170  15.922  1.1980 -1.1873  0.2922
   6823SM  C14F 8894   6.490   2.112  15.811 -0.2513 -0.4967 -0.2191
   6823SM  H14F 8895   6.551   2.099  15.719  0.0971 -4.4763  0.3979
   6823SM  H14G 8896   6.444   2.213  15.814 -2.2642 -1.3071 -1.8193
   6823SM  C15F 8897   6.365   2.018  15.807 -0.3509  0.7776  0.0523
   6823SM  H15F 8898   6.307   2.044  15.898 -0.8540  0.8731 -0.2887
   6823SM  H15G 8899   6.401   1.914  15.814  0.9956  1.2600  0.5809
   6823SM  C16F 8900   6.277   2.034  15.685 -0.7373 -0.8164 -0.6718
   6823SM  H16F 8901   6.237   2.137  15.690  3.3998  0.9403  1.3329
   6823SM  H16G 8902   6.190   1.967  15.701 -0.0833 -1.3313  0.9443
   6823SM  C17F 8903   6.332   1.999  15.548 -0.1757  0.3524  0.2880
   6823SM  H17F 8904   6.390   1.905  15.557  0.0361  0.5896  1.4560
   6823SM  H17G 8905   6.413   2.069  15.518  0.7793 -0.8052  0.0748
   6823SM  C18F 8906   6.226   1.990  15.443  0.7423  0.2125  0.3424
   6823SM  H18F 8907   6.173   2.082  15.411 -2.9328 -1.9326 -0.3677
   6823SM  H18G 8908   6.142   1.925  15.476  2.2009 -1.3103  1.2582
   6823SM  C19F 8909   6.281   1.933  15.312  0.8797  0.2303 -0.2985
   6823SM  H19F 8910   6.325   1.832  15.331 -1.3862 -1.2910 -2.5584
   6823SM  H19G 8911   6.360   1.989  15.259  0.4946 -0.9403 -2.2051
   6823SM  C20F 8912   6.168   1.900  15.205 -0.3211 -0.2243  0.1223
   6823SM  H20F 8913   6.122   1.995  15.170  0.1828 -0.4958 -1.3368
   6823SM  H20G 8914   6.087   1.847  15.258 -0.1577 -1.1377 -0.5289
   6823SM  C21F 8915   6.221   1.828  15.082  0.1650 -0.1460 -0.0593
   6823SM  H21F 8916   6.284   1.904  15.031  1.8720 -1.3809  0.0894
   6823SM  H21G 8917   6.146   1.802  15.005  0.2054  0.3579 -0.2698
   6823SM  C22F 8918   6.289   1.691  15.106 -0.5195 -0.8969  0.7052
   6823SM  H22F 8919   6.370   1.711  15.179  1.0121  3.8036 -1.8707
   6823SM  H22G 8920   6.345   1.663  15.015  1.6622  2.2802  0.8937
   6823SM  C23F 8921   6.197   1.581  15.164  0.9683  0.2831 -0.3657
   6823SM  H23F 8922   6.141   1.620  15.252 -0.6902 -3.0315  0.1867
   6823SM  H23G 8923   6.243   1.489  15.206 -2.6753 -1.5935 -0.0955
   6823SM  H23H 8924   6.124   1.549  15.088  1.9969 -2.8852 -0.1691
   6923SM     N 8925   1.676   4.112  18.085  0.1226  0.1217  0.1376
   6923SM   C15 8926   1.713   4.247  18.126 -0.2810 -0.1864  0.2268
   6923SM  H15A 8927   1.627   4.312  18.137 -1.2062 -1.3686  0.1443
   6923SM  H15B 8928   1.779   4.288  18.051 -0.9291 -1.1341 -0.8931
   6923SM  H15C 8929   1.759   4.256  18.223 -2.2889 -0.3591  1.2548
   6923SM   C14 8930   1.622   4.129  17.939 -0.2413 -0.6177  0.5873
   6923SM  H14A 8931   1.532   4.187  17.944 -0.7813 -1.3093 -0.5602
   6923SM  H14B 8932   1.618   4.028  17.900  1.7941 -2.3608  4.3833
   6923SM  H14C 8933   1.699   4.177  17.880  0.9400 -1.5716  1.2870
   6923SM   C13 8934   1.799   4.027  18.089  0.3753  0.0436 -0.9081
   6923SM  H13A 8935   1.805   3.988  18.189 -2.1043  1.5331 -0.0668
   6923SM  H13B 8936   1.887   4.082  18.060 -0.0666  0.3647 -1.6645
   6923SM  H13C 8937   1.785   3.933  18.039  1.0866 -1.4578  1.5620
   6923SM   C12 8938   1.576   4.050  18.179  0.3434  0.1192  0.2425
   6923SM  H12A 8939   1.604   4.055  18.283  1.2548 -0.7702  0.0562
   6923SM  H12B 8940   1.581   3.942  18.168 -0.9268  0.0311  0.4470
   6923SM   C11 8941   1.431   4.095  18.161  0.0669 -0.3943  0.2313
   6923SM  H11A 8942   1.365   4.044  18.234 -0.6303 -2.3549 -1.6880
   6923SM  H11B 8943   1.398   4.061  18.061 -0.4314 -2.5027  1.0727
   6923SM     P 8944   1.347   4.338  18.088  0.0042 -0.3020 -0.0338
   6923SM   O13 8945   1.209   4.280  18.096  0.0423  0.4101 -0.1826
   6923SM   O14 8946   1.372   4.475  18.132 -0.4459 -0.9946  0.4293
   6923SM   O11 8947   1.404   4.319  17.938 -0.1599  0.5415 -0.0528
   6923SM   O12 8948   1.428   4.239  18.173 -0.2601  0.1239  0.0002
   6923SM   C1S 8949   1.322   4.339  17.827  0.0513  0.5106  0.3861
   6923SM   H1S 8950   1.214   4.324  17.849 -0.1746  0.9584 -0.3646
   6923SM   H1T 8951   1.343   4.264  17.748 -0.5022  0.9824 -0.2219
   6923SM    NF 8952   1.208   4.516  17.713  0.0753  0.0689 -0.4549
   6923SM   HNF 8953   1.201   4.521  17.614 -0.8862 -0.5291 -0.4222
   6923SM   C2S 8954   1.330   4.485  17.775 -0.7020 -0.5558 -0.5874
   6923SM   H2S 8955   1.348   4.545  17.866  1.4262 -1.6730 -0.2116
   6923SM   C3S 8956   1.455   4.500  17.685  0.1479  0.4727 -0.1228
   6923SM   H3S 8957   1.449   4.422  17.607  0.1099 -2.2235  2.3858
   6923SM    O3 8958   1.573   4.466  17.753 -0.4078 -0.4245 -0.2391
   6923SM   HO3 8959   1.542   4.425  17.834 -0.8675  1.3330  0.5392
   6923SM   C4S 8960   1.474   4.639  17.624  0.2092  0.7007 -0.6246
   6923SM   H4S 8961   1.435   4.726  17.678 -1.5043 -0.3359 -0.1309
   6923SM   C5S 8962   1.509   4.662  17.496  0.1197 -0.1239 -0.2163
   6923SM   H5S 8963   1.537   4.582  17.427 -3.1036 -0.8469 -0.8194
   6923SM   C6S 8964   1.496   4.795  17.428  0.5488 -0.7972 -0.6286
   6923SM   H6S 8965   1.590   4.824  17.376  1.7481 -0.5190  1.5697
   6923SM   H6T 8966   1.473   4.877  17.499 -1.6897 -1.4995 -0.4776
   6923SM   C7S 8967   1.375   4.780  17.336  0.1674  0.0666 -0.6726
   6923SM   H7S 8968   1.282   4.771  17.396 -0.7750  1.9587 -1.7420
   6923SM   H7T 8969   1.378   4.695  17.265  1.1532 -0.1480 -0.3971
   6923SM   C8S 8970   1.355   4.907  17.248 -0.5463 -0.2202  0.1386
   6923SM   H8S 8971   1.391   4.994  17.307  0.9271  0.4068 -1.5875
   6923SM   H8T 8972   1.257   4.909  17.197  0.4840  0.0427 -1.9522
   6923SM   C9S 8973   1.448   4.915  17.127 -0.0833 -0.6201  0.1960
   6923SM   H9S 8974   1.550   4.881  17.155 -0.1748 -2.4923 -1.5542
   6923SM   H9T 8975   1.457   5.019  17.086  1.4612 -1.4627 -1.7761
   6923SM  C10S 8976   1.402   4.815  17.015 -0.2553 -0.1569 -0.8145
   6923SM  H10S 8977   1.294   4.835  17.003 -0.1365  0.5766 -0.7148
   6923SM  H10T 8978   1.404   4.709  17.047 -2.9182 -0.2204 -0.6534
   6923SM  C11S 8979   1.489   4.834  16.892 -0.3269  0.2860  0.3011
   6923SM  H11S 8980   1.593   4.799  16.911 -2.0298 -4.7788  1.6446
   6923SM  H11T 8981   1.509   4.942  16.873  3.6054 -0.1998  0.8422
   6923SM  C12S 8982   1.436   4.769  16.760 -0.0455  0.2446 -0.1014
   6923SM  H12S 8983   1.327   4.766  16.742 -0.2710 -1.0087  1.2602
   6923SM  H12T 8984   1.447   4.658  16.762 -2.0897  0.0032  0.3858
   6923SM  C13S 8985   1.494   4.839  16.632 -0.0257  0.2101  0.2931
   6923SM  H13S 8986   1.605   4.839  16.631  0.0107  1.6707 -1.5000
   6923SM  H13T 8987   1.479   4.949  16.621  1.6467  0.3272 -1.4751
   6923SM  C14S 8988   1.437   4.767  16.508 -0.0179 -0.0490  0.1416
   6923SM  H14S 8989   1.328   4.753  16.517 -0.0014  0.9955  2.7575
   6923SM  H14T 8990   1.472   4.662  16.509  0.6615  0.1660  1.3064
   6923SM  C15S 8991   1.464   4.847  16.385  0.2885  0.6409 -0.2269
   6923SM  H15S 8992   1.572   4.871  16.378  0.4376 -0.0272 -0.2171
   6923SM  H15T 8993   1.411   4.944  16.397 -0.2992  0.2058  0.8174
   6923SM  C16S 8994   1.414   4.780  16.255  0.4694 -0.5180  0.1210
   6923SM  H16S 8995   1.303   4.792  16.257  0.4414  0.0215 -2.0734
   6923SM  H16T 8996   1.435   4.671  16.250 -1.1542 -0.8683  0.3176
   6923SM  C17S 8997   1.483   4.841  16.130 -0.0478 -0.2275 -0.6650
   6923SM  H17S 8998   1.448   4.788  16.039 -0.9001  1.1549 -1.1662
   6923SM  H17T 8999   1.594   4.829  16.137  0.2916  2.6273 -0.0571
   6923SM  C18S 9000   1.472   4.991  16.106 -0.3074 -0.1003  0.4626
   6923SM  H18S 9001   1.530   5.026  16.018 -1.2162  0.5795  0.1218
   6923SM  H18T 9002   1.525   5.044  16.188 -3.0803  0.9268  1.7184
   6923SM  H18U 9003   1.365   5.022  16.102 -0.0278  0.8852  0.2570
   6923SM   C1F 9004   1.098   4.540  17.789  0.1267 -0.5899 -0.1558
   6923SM    OF 9005   1.096   4.520  17.908  0.0948 -0.1269  0.2331
   6923SM   C2F 9006   0.981   4.595  17.723  0.2655 -0.6638  0.1444
   6923SM   H2F 9007   0.943   4.687  17.772  0.3209  0.2889 -1.5104
   6923SM   H2G 9008   0.894   4.526  17.730  0.9195 -1.4215  1.0103
   6923SM   C3F 9009   1.010   4.632  17.577  0.9514 -0.3751  0.5633
   6923SM   H3F 9010   1.027   4.542  17.514  0.3949 -0.2677  0.2451
   6923SM   H3G 9011   1.096   4.701  17.567  2.5907 -2.1786  1.4432
   6923SM   C4F 9012   0.888   4.700  17.515  0.2997 -0.3002 -0.0969
   6923SM   H4F 9013   0.869   4.789  17.578  0.2761 -0.1655 -0.2941
   6923SM   H4G 9014   0.794   4.642  17.532  0.0840  0.1388  0.2287
   6923SM   C5F 9015   0.906   4.748  17.374 -0.2229  0.2936 -0.1710
   6923SM   H5F 9016   0.925   4.661  17.307  1.9081 -0.8631  1.7634
   6923SM   H5G 9017   1.001   4.806  17.365  0.0067  0.1674  1.2297
   6923SM   C6F 9018   0.780   4.836  17.337  0.2558  0.3348  0.3807
   6923SM   H6F 9019   0.763   4.933  17.388 -0.0226  1.2660 -1.4084
   6923SM   H6G 9020   0.692   4.769  17.351 -0.2283  0.2457 -2.5787
   6923SM   C7F 9021   0.768   4.884  17.193 -0.3165 -0.7231 -0.1794
   6923SM   H7F 9022   0.840   4.966  17.170  0.9136 -1.6541  0.2275
   6923SM   H7G 9023   0.664   4.918  17.174 -0.1103 -1.2512 -2.6832
   6923SM   C8F 9024   0.796   4.781  17.079 -0.2367 -0.0158 -0.2618
   6923SM   H8F 9025   0.736   4.690  17.101 -1.0831  0.7222  0.5470
   6923SM   H8G 9026   0.896   4.733  17.089 -0.7132 -1.0516 -0.2887
   6923SM   C9F 9027   0.766   4.854  16.943 -0.2957 -0.0896 -0.8477
   6923SM   H9F 9028   0.817   4.952  16.944 -1.4003  0.5175  0.4895
   6923SM   H9G 9029   0.658   4.882  16.940 -0.0908  0.9888  0.4935
   6923SM  C10F 9030   0.801   4.763  16.827 -0.3436 -0.0307 -0.0938
   6923SM  H10F 9031   0.769   4.817  16.735 -1.3505  0.1369  0.3384
   6923SM  H10G 9032   0.730   4.679  16.842  1.4675 -1.5289  0.4132
   6923SM  C11F 9033   0.945   4.709  16.814  0.8715  0.4662  0.1499
   6923SM  H11F 9034   0.956   4.640  16.900 -1.4640  1.5097  1.3990
   6923SM  H11G 9035   1.005   4.800  16.837  0.1433  1.2111 -0.8078
   6923SM  C12F 9036   0.968   4.649  16.681  0.4216  0.6256 -0.2668
   6923SM  H12F 9037   0.886   4.575  16.667  0.8533 -0.0746  0.7942
   6923SM  H12G 9038   1.064   4.593  16.679 -0.5094 -1.0719  0.0246
   6923SM  C13F 9039   0.977   4.749  16.568  0.4868  0.3636  0.1356
   6923SM  H13F 9040   1.065   4.813  16.591  1.1148 -0.7500  0.9551
   6923SM  H13G 9041   0.889   4.816  16.570  1.9177  2.4250 -1.5253
   6923SM  C14F 9042   1.002   4.689  16.425 -0.0559  0.1400  0.3578
   6923SM  H14F 9043   0.916   4.621  16.408  0.4843 -0.3751 -0.3834
   6923SM  H14G 9044   1.096   4.630  16.429  0.6830  1.2146 -0.5960
   6923SM  C15F 9045   1.007   4.776  16.300  0.4700  0.0174  0.8055
   6923SM  H15F 9046   1.090   4.845  16.326 -0.2964  1.1003  0.4552
   6923SM  H15G 9047   0.916   4.839  16.303 -0.3639 -1.1620  1.3129
   6923SM  C16F 9048   1.009   4.699  16.166  0.0453 -0.2247  1.0627
   6923SM  H16F 9049   0.920   4.633  16.152  0.6157 -0.4618 -2.0252
   6923SM  H16G 9050   1.092   4.628  16.182 -0.2932 -1.1058 -0.8162
   6923SM  C17F 9051   1.018   4.793  16.043 -0.7970 -0.0671 -0.2334
   6923SM  H17F 9052   1.113   4.850  16.038  0.5470 -2.2639 -0.9343
   6923SM  H17G 9053   0.931   4.863  16.049 -0.0798  1.1413 -2.7344
   6923SM  C18F 9054   0.999   4.730  15.910 -0.1243  0.0768  0.4170
   6923SM  H18F 9055   0.901   4.677  15.918 -0.7163  0.6759 -2.0600
   6923SM  H18G 9056   1.084   4.663  15.884  0.3875  1.4635 -1.7060
   6923SM  C19F 9057   0.974   4.827  15.796 -0.4395 -0.1785  0.0951
   6923SM  H19F 9058   1.071   4.874  15.768 -0.9707  0.5470 -0.5586
   6923SM  H19G 9059   0.922   4.920  15.829 -0.3522 -0.0525 -0.1163
   6923SM  C20F 9060   0.900   4.768  15.674 -0.0695 -0.1193  0.3829
   6923SM  H20F 9061   0.804   4.722  15.708  0.2900 -0.5127  0.8909
   6923SM  H20G 9062   0.967   4.687  15.639  1.2628  0.3476  1.7159
   6923SM  C21F 9063   0.880   4.871  15.566  0.1633 -0.3496 -0.6865
   6923SM  H21F 9064   0.981   4.886  15.521  0.5457  2.5613  0.8269
   6923SM  H21G 9065   0.836   4.965  15.607 -0.3855 -1.2833  0.9259
   6923SM  C22F 9066   0.782   4.819  15.462  0.4272 -0.4037  0.2991
   6923SM  H22F 9067   0.678   4.842  15.496  1.2974  3.8584  0.6256
   6923SM  H22G 9068   0.798   4.709  15.457 -1.6386 -0.7373 -0.1204
   6923SM  C23F 9069   0.791   4.885  15.323 -0.3398 -0.6346  0.3244
   6923SM  H23F 9070   0.876   4.955  15.307  0.4324 -1.6740 -0.3057
   6923SM  H23G 9071   0.692   4.924  15.293  0.0946 -0.4212 -0.8617
   6923SM  H23H 9072   0.809   4.803  15.250  1.2630  0.6807 -0.8160
   7023SM     N 9073   5.659   3.178  18.261 -0.3061  0.1278  0.0670
   7023SM   C15 9074   5.576   3.301  18.285 -0.6307  0.3484  0.0913
   7023SM  H15A 9075   5.593   3.347  18.381  1.8331  1.9102 -1.0038
   7023SM  H15B 9076   5.472   3.276  18.269 -1.3409  1.6745  2.1692
   7023SM  H15C 9077   5.592   3.394  18.231 -1.3683  1.8500  2.3103
   7023SM   C14 9078   5.807   3.215  18.271  0.4224  0.2991 -0.6447
   7023SM  H14A 9079   5.844   3.257  18.178  2.2911  1.9119  0.7371
   7023SM  H14B 9080   5.873   3.130  18.282  0.8109  0.3069 -2.4944
   7023SM  H14C 9081   5.829   3.286  18.350  0.6739 -0.0638 -0.3873
   7023SM   C13 9082   5.620   3.078  18.371  0.4497  0.3881 -0.3526
   7023SM  H13A 9083   5.516   3.054  18.384  0.7047 -0.5302  0.1165
   7023SM  H13B 9084   5.673   3.112  18.459  1.3945 -0.6166 -0.5127
   7023SM  H13C 9085   5.661   2.980  18.355  1.3485  0.9415 -1.5492
   7023SM   C12 9086   5.626   3.109  18.124 -0.3359  0.6937  0.1077
   7023SM  H12A 9087   5.525   3.070  18.125  0.5528 -2.2349 -3.0795
   7023SM  H12B 9088   5.679   3.015  18.116 -1.0510  0.2425  0.4647
   7023SM   C11 9089   5.651   3.191  17.993 -0.1882  0.2070  0.3131
   7023SM  H11A 9090   5.591   3.284  17.999  0.6996  1.1163 -2.7362
   7023SM  H11B 9091   5.611   3.144  17.900  0.4412  1.2527 -0.5081
   7023SM     P 9092   5.893   3.113  17.931 -0.1765  0.1815  0.0624
   7023SM   O13 9093   6.026   3.180  17.950  0.4000  0.2758 -0.1938
   7023SM   O14 9094   5.876   2.986  18.009 -0.0023  0.0010  0.0408
   7023SM   O11 9095   5.854   3.100  17.780  0.1358 -0.4584  0.1050
   7023SM   O12 9096   5.790   3.227  17.975  0.5490  0.5899 -0.4852
   7023SM   C1S 9097   5.873   3.209  17.690 -0.2749  0.2600 -0.3484
   7023SM   H1S 9098   5.978   3.245  17.685 -0.2835  0.1600 -3.1574
   7023SM   H1T 9099   5.810   3.295  17.719 -0.7930  0.1381 -1.0660
   7023SM    NF 9100   5.884   3.283  17.442  0.8120  0.2979  0.2919
   7023SM   HNF 9101   5.810   3.328  17.393  0.5891  0.7732  1.0500
   7023SM   C2S 9102   5.848   3.175  17.539  0.2851  0.3480 -0.5340
   7023SM   H2S 9103   5.910   3.087  17.511 -1.8090 -0.8264 -1.7136
   7023SM   C3S 9104   5.699   3.130  17.517  0.2941  0.2369  0.4453
   7023SM   H3S 9105   5.626   3.205  17.553 -3.1947 -3.7991  2.6845
   7023SM    O3 9106   5.661   3.023  17.597  0.2165  0.3325  0.2052
   7023SM   HO3 9107   5.740   3.007  17.649 -0.1258 -0.1641  0.5894
   7023SM   C4S 9108   5.663   3.096  17.367  0.2222  0.5224 -0.5724
   7023SM   H4S 9109   5.681   2.993  17.334  0.1641 -0.4116  2.1110
   7023SM   C5S 9110   5.588   3.171  17.286  0.4191  0.2074 -0.2687
   7023SM   H5S 9111   5.553   3.271  17.317 -1.3248  0.7072 -3.3779
   7023SM   C6S 9112   5.527   3.130  17.156  0.6203  0.2539 -0.4699
   7023SM   H6S 9113   5.557   3.212  17.087 -3.4631 -0.0515 -3.0008
   7023SM   H6T 9114   5.416   3.135  17.158  0.4705 -2.2636 -0.0956
   7023SM   C7S 9115   5.572   3.002  17.090  0.1246 -0.1319 -0.3222
   7023SM   H7S 9116   5.552   2.921  17.164  0.3377  0.6313  0.5868
   7023SM   H7T 9117   5.682   2.992  17.086 -0.1102 -4.3830 -0.7019
   7023SM   C8S 9118   5.496   2.980  16.956 -0.0601  0.2276  0.9507
   7023SM   H8S 9119   5.387   2.974  16.975 -0.1530 -0.2685  0.3021
   7023SM   H8T 9120   5.536   2.888  16.908  1.5031  1.2001  0.3073
   7023SM   C9S 9121   5.530   3.093  16.849  0.1485 -0.9543  0.3428
   7023SM   H9S 9122   5.639   3.111  16.837 -0.2375  1.2565 -0.2846
   7023SM   H9T 9123   5.484   3.186  16.887  1.0511 -1.2228  2.2480
   7023SM  C10S 9124   5.468   3.050  16.720 -0.3151 -0.3805  0.5838
   7023SM  H10S 9125   5.357   3.049  16.732 -0.3155  0.0167  0.6299
   7023SM  H10T 9126   5.509   2.949  16.698  1.5168  0.5565 -0.4662
   7023SM  C11S 9127   5.514   3.138  16.605 -0.3553  0.0819 -0.6498
   7023SM  H11S 9128   5.623   3.131  16.585  0.1752  1.3038  1.4289
   7023SM  H11T 9129   5.503   3.248  16.619 -0.6415  0.0634 -0.7247
   7023SM  C12S 9130   5.451   3.090  16.472  0.1757 -0.1275 -0.1046
   7023SM  H12S 9131   5.342   3.102  16.493  0.1271 -1.2344  0.3959
   7023SM  H12T 9132   5.484   2.985  16.456  1.6183  0.3196 -0.1594
   7023SM  C13S 9133   5.500   3.164  16.356  0.3719 -0.6828 -0.2214
   7023SM  H13S 9134   5.604   3.200  16.370  0.1700  0.1024 -0.6673
   7023SM  H13T 9135   5.430   3.250  16.348  0.3239 -0.4294  2.2363
   7023SM  C14S 9136   5.485   3.084  16.228 -0.5171 -1.0608 -0.2679
   7023SM  H14S 9137   5.381   3.045  16.220 -0.8430  0.0653 -1.8985
   7023SM  H14T 9138   5.555   2.998  16.231 -0.1150 -0.7839 -1.4828
   7023SM  C15S 9139   5.512   3.173  16.100 -0.3250 -0.0758  0.3596
   7023SM  H15S 9140   5.617   3.209  16.111 -0.3706 -0.1269  0.9973
   7023SM  H15T 9141   5.441   3.256  16.084 -0.5887 -0.1175  1.2709
   7023SM  C16S 9142   5.495   3.083  15.975 -0.6475 -0.7471 -0.2073
   7023SM  H16S 9143   5.388   3.052  15.973 -0.5963 -0.9577  0.2608
   7023SM  H16T 9144   5.545   2.987  15.995  1.6830  0.6799  1.2691
   7023SM  C17S 9145   5.525   3.155  15.847 -0.2076 -0.0404  0.5352
   7023SM  H17S 9146   5.624   3.203  15.833 -0.5537  1.2011  2.1584
   7023SM  H17T 9147   5.459   3.243  15.832  2.2275  1.8895  0.5840
   7023SM  C18S 9148   5.509   3.062  15.727  0.1151  0.0859  0.1052
   7023SM  H18S 9149   5.426   2.990  15.742  0.2739  0.1445  1.4652
   7023SM  H18T 9150   5.590   2.986  15.723 -0.0127 -0.0145 -0.7592
   7023SM  H18U 9151   5.510   3.115  15.630 -0.7325 -1.0075 -0.5232
   7023SM   C1F 9152   6.007   3.332  17.428  0.0907  0.0312 -0.4548
   7023SM    OF 9153   6.097   3.302  17.504  0.2458  0.1711  0.3950
   7023SM   C2F 9154   6.025   3.440  17.325 -0.4895 -0.6453 -0.0688
   7023SM   H2F 9155   5.965   3.530  17.350  0.2507 -0.3096  0.5452
   7023SM   H2G 9156   5.998   3.407  17.222  2.4576 -0.5429 -0.9739
   7023SM   C3F 9157   6.178   3.482  17.305  0.4076 -0.9591 -0.5247
   7023SM   H3F 9158   6.240   3.397  17.269  0.0949  0.7266 -5.8472
   7023SM   H3G 9159   6.207   3.532  17.401  0.4392  0.3855 -1.2098
   7023SM   C4F 9160   6.190   3.574  17.183 -0.7795 -0.6379  0.2566
   7023SM   H4F 9161   6.285   3.632  17.179 -0.7660 -0.6718  0.0375
   7023SM   H4G 9162   6.107   3.648  17.186  0.6743  1.1562 -1.2809
   7023SM   C5F 9163   6.191   3.495  17.053 -0.1841  0.7869 -0.2800
   7023SM   H5F 9164   6.101   3.430  17.048  1.2911 -1.2843 -0.8144
   7023SM   H5G 9165   6.280   3.431  17.067 -0.5254  0.2971 -0.3214
   7023SM   C6F 9166   6.199   3.577  16.932  0.1838 -0.6862 -0.4123
   7023SM   H6F 9167   6.292   3.637  16.941 -0.2381 -0.2055  1.0707
   7023SM   H6G 9168   6.111   3.645  16.920  0.8364  0.4166  0.8529
   7023SM   C7F 9169   6.226   3.488  16.805  0.0575 -0.1438 -0.4145
   7023SM   H7F 9170   6.148   3.410  16.789  0.8185 -0.7602 -1.1962
   7023SM   H7G 9171   6.320   3.431  16.818 -0.1459 -0.4803 -0.3983
   7023SM   C8F 9172   6.234   3.567  16.675  0.0764  0.3694 -0.1957
   7023SM   H8F 9173   6.333   3.617  16.674  0.1965  0.1562  0.7367
   7023SM   H8G 9174   6.151   3.639  16.659  1.0338  1.1059 -2.1903
   7023SM   C9F 9175   6.231   3.483  16.550  0.9644  0.1341 -0.6988
   7023SM   H9F 9176   6.141   3.419  16.562 -0.1427  0.8656 -3.9366
   7023SM   H9G 9177   6.316   3.412  16.558  0.1769 -0.7029  0.7203
   7023SM  C10F 9178   6.241   3.564  16.421  0.6975  0.1709 -0.2348
   7023SM  H10F 9179   6.339   3.616  16.418 -0.0322  1.5674 -1.1080
   7023SM  H10G 9180   6.165   3.643  16.402  1.3204  1.1851  1.3096
   7023SM  C11F 9181   6.248   3.476  16.289 -0.5927 -0.6049 -0.8098
   7023SM  H11F 9182   6.145   3.438  16.274 -1.0935 -0.6084  2.0074
   7023SM  H11G 9183   6.319   3.390  16.297 -0.9767 -0.8756 -0.1692
   7023SM  C12F 9184   6.302   3.556  16.168 -0.4113 -0.5186  0.3452
   7023SM  H12F 9185   6.410   3.577  16.186 -0.7350  1.0745  0.5769
   7023SM  H12G 9186   6.255   3.654  16.148  1.4862  0.3255 -0.2011
   7023SM  C13F 9187   6.304   3.480  16.042  0.1295  0.3059  0.0780
   7023SM  H13F 9188   6.364   3.387  16.055 -0.8576 -0.2877  0.4620
   7023SM  H13G 9189   6.346   3.536  15.955 -2.8717  1.2308 -0.8937
   7023SM  C14F 9190   6.167   3.428  15.992  0.4461  0.3315 -0.7396
   7023SM  H14F 9191   6.105   3.520  16.000 -0.9863 -0.7221  1.2924
   7023SM  H14G 9192   6.118   3.350  16.053 -2.9539  2.5537 -0.3876
   7023SM  C15F 9193   6.176   3.378  15.849 -0.0093  0.0189  0.3869
   7023SM  H15F 9194   6.251   3.297  15.859  0.6658  0.5455 -0.2992
   7023SM  H15G 9195   6.222   3.459  15.788  0.2855  0.7416  1.5335
   7023SM  C16F 9196   6.040   3.334  15.802 -0.2560 -0.6011  0.2924
   7023SM  H16F 9197   5.991   3.427  15.769 -0.4063 -0.2921  1.3496
   7023SM  H16G 9198   5.975   3.283  15.877  0.2047  1.1786  1.9797
   7023SM  C17F 9199   6.040   3.240  15.683  0.4533 -0.7868 -0.0257
   7023SM  H17F 9200   5.942   3.259  15.634  0.9250  1.5600 -0.1773
   7023SM  H17G 9201   6.043   3.132  15.709  2.1902 -0.6585  0.4632
   7023SM  C18F 9202   6.135   3.285  15.576 -0.0069 -0.6392  0.2127
   7023SM  H18F 9203   6.166   3.210  15.499  0.3142 -0.5990  0.3010
   7023SM  H18G 9204   6.238   3.301  15.615  0.5175 -2.9944 -0.0272
   7023SM  C19F 9205   6.072   3.405  15.507 -0.2715 -0.2020 -0.2230
   7023SM  H19F 9206   6.047   3.486  15.579 -0.5072  0.7437 -1.3275
   7023SM  H19G 9207   5.973   3.384  15.461 -0.0998 -1.4160 -0.0691
   7023SM  C20F 9208   6.157   3.458  15.389  0.3826 -0.2693  0.0634
   7023SM  H20F 9209   6.260   3.483  15.423 -0.2056  1.0506  0.9817
   7023SM  H20G 9210   6.120   3.557  15.354  1.6604  1.2756  2.7598
   7023SM  C21F 9211   6.166   3.364  15.266 -0.1291 -0.8998  0.0063
   7023SM  H21F 9212   6.063   3.326  15.249 -1.0157  0.0374  2.8654
   7023SM  H21G 9213   6.236   3.280  15.289  0.4943 -0.8248 -1.4668
   7023SM  C22F 9214   6.212   3.426  15.136 -0.2987 -0.4764  0.6837
   7023SM  H22F 9215   6.322   3.437  15.129 -0.5306  1.3872 -1.6230
   7023SM  H22G 9216   6.171   3.530  15.134 -3.1350 -1.5146  0.3028
   7023SM  C23F 9217   6.166   3.359  15.009 -0.4514  0.1620  0.1233
   7023SM  H23F 9218   6.203   3.255  15.014 -1.4795 -0.1866  0.8117
   7023SM  H23G 9219   6.206   3.415  14.922  0.2121 -0.6869 -0.1295
   7023SM  H23H 9220   6.055   3.351  15.006 -0.4654  0.5528 -1.0715
   7123SM     N 9221   1.853   1.446  17.727 -0.0560  0.2703  0.4956
   7123SM   C15 9222   1.964   1.397  17.820 -0.0203  0.4904  0.7431
   7123SM  H15A 9223   2.058   1.405  17.767 -1.2252 -0.3672 -1.6580
   7123SM  H15B 9224   1.951   1.293  17.843 -2.2297  0.4129 -0.5722
   7123SM  H15C 9225   1.963   1.462  17.906  0.1603 -0.2522  1.3117
   7123SM   C14 9226   1.825   1.335  17.631  0.2592  0.3816  0.1607
   7123SM  H14A 9227   1.910   1.334  17.564 -1.1191 -0.0431 -1.6513
   7123SM  H14B 9228   1.737   1.354  17.572  0.9071 -0.1789 -1.0183
   7123SM  H14C 9229   1.839   1.238  17.676  2.2878  1.4565  2.0406
   7123SM   C13 9230   1.720   1.454  17.803  0.0378 -0.0320  0.4676
   7123SM  H13A 9231   1.717   1.536  17.873 -3.5137 -0.0697  0.5441
   7123SM  H13B 9232   1.699   1.354  17.839 -1.1680  0.4073  1.0336
   7123SM  H13C 9233   1.648   1.487  17.730  0.1449  0.2352  0.4814
   7123SM   C12 9234   1.888   1.573  17.651  0.1602 -0.1102  0.2970
   7123SM  H12A 9235   1.986   1.563  17.606  0.2154 -1.2013  0.6435
   7123SM  H12B 9236   1.898   1.659  17.716  2.5327  1.4965 -1.9629
   7123SM   C11 9237   1.800   1.605  17.530 -0.2521  0.7164 -0.0986
   7123SM  H11A 9238   1.818   1.531  17.449  0.0907 -0.8748  1.3902
   7123SM  H11B 9239   1.835   1.704  17.493 -2.4833  1.5014 -0.2757
   7123SM     P 9240   1.553   1.708  17.514  0.1663 -0.0759 -0.1553
   7123SM   O13 9241   1.418   1.643  17.494  0.4392  0.0868 -0.2060
   7123SM   O14 9242   1.567   1.823  17.605  0.2785 -0.3896 -0.5969
   7123SM   O11 9243   1.596   1.758  17.364  0.4906  0.2612 -0.4011
   7123SM   O12 9244   1.663   1.596  17.562 -0.1351 -0.2900 -0.0630
   7123SM   C1S 9245   1.645   1.669  17.263 -0.0849  0.3138 -0.5166
   7123SM   H1S 9246   1.621   1.566  17.295  1.9767 -0.6760 -1.9475
   7123SM   H1T 9247   1.754   1.685  17.244 -0.1051  0.3165 -0.6267
   7123SM    NF 9248   1.584   1.567  17.054 -0.6064 -0.5722 -0.7484
   7123SM   HNF 9249   1.643   1.592  16.978 -0.1362 -0.0647 -0.2273
   7123SM   C2S 9250   1.556   1.682  17.142 -0.0282  0.1944 -0.5592
   7123SM   H2S 9251   1.451   1.665  17.172  0.6555 -2.1319  0.7535
   7123SM   C3S 9252   1.581   1.817  17.077  0.6953 -0.3210  0.4772
   7123SM   H3S 9253   1.687   1.811  17.043  0.7205  0.8968  0.2714
   7123SM    O3 9254   1.585   1.933  17.162 -0.2697 -0.0407 -0.2036
   7123SM   HO3 9255   1.573   1.893  17.248  0.1732 -2.2019 -1.0749
   7123SM   C4S 9256   1.501   1.835  16.953  0.3077 -0.2081 -0.7902
   7123SM   H4S 9257   1.526   1.779  16.862 -2.1980  0.7955 -2.2084
   7123SM   C5S 9258   1.403   1.922  16.931 -0.5142 -0.8825 -0.1866
   7123SM   H5S 9259   1.388   2.001  17.006  0.2571 -1.7911  0.9816
   7123SM   C6S 9260   1.338   1.945  16.794  0.0056  0.3449  0.0441
   7123SM   H6S 9261   1.283   2.042  16.793 -1.7952 -0.6263  0.1336
   7123SM   H6T 9262   1.257   1.871  16.774 -1.3948  1.9668 -0.5435
   7123SM   C7S 9263   1.440   1.951  16.676 -0.5758  0.0305  0.3303
   7123SM   H7S 9264   1.500   1.859  16.655 -0.8184  0.4216 -2.4153
   7123SM   H7T 9265   1.511   2.034  16.694  1.3233 -1.0697 -1.6689
   7123SM   C8S 9266   1.371   1.993  16.542 -0.0599  0.1211 -0.0686
   7123SM   H8S 9267   1.318   2.091  16.547  0.5140  0.4891 -1.0950
   7123SM   H8T 9268   1.297   1.912  16.524 -0.0618 -0.2818  1.5765
   7123SM   C9S 9269   1.469   1.994  16.426  0.5376 -0.0267 -0.1362
   7123SM   H9S 9270   1.514   1.893  16.426 -1.2649 -0.9588  2.9831
   7123SM   H9T 9271   1.552   2.067  16.436  0.1126  0.2948  1.3085
   7123SM  C10S 9272   1.390   2.015  16.300  0.4698 -0.0553 -0.0090
   7123SM  H10S 9273   1.355   2.119  16.286 -0.2499 -0.3190 -0.2079
   7123SM  H10T 9274   1.305   1.943  16.300 -0.5236  1.0816  0.8720
   7123SM  C11S 9275   1.471   1.986  16.172  0.3399 -0.2566 -1.3100
   7123SM  H11S 9276   1.495   1.877  16.173 -2.2320 -0.8934 -1.3003
   7123SM  H11T 9277   1.560   2.052  16.181  0.4536 -0.6861  1.5961
   7123SM  C12S 9278   1.391   2.008  16.044  0.1060 -0.4073  0.0741
   7123SM  H12S 9279   1.318   2.088  16.064  0.0625 -0.6072  0.7298
   7123SM  H12T 9280   1.334   1.914  16.031 -0.7135 -0.1188  1.4313
   7123SM  C13S 9281   1.471   2.032  15.921 -0.5118 -0.0367 -0.5968
   7123SM  H13S 9282   1.553   1.957  15.916  0.0599  0.5496 -0.2584
   7123SM  H13T 9283   1.531   2.125  15.932 -2.1132  0.9443  0.2174
   7123SM  C14S 9284   1.403   2.021  15.792  0.9407  0.4958  0.0013
   7123SM  H14S 9285   1.372   1.919  15.760  0.3630  0.2822  1.1744
   7123SM  H14T 9286   1.468   2.054  15.708  1.1134  0.3634  0.0838
   7123SM  C15S 9287   1.286   2.121  15.786 -0.3406 -0.1842 -1.1199
   7123SM  H15S 9288   1.324   2.221  15.816  1.1087 -0.6650 -1.2885
   7123SM  H15T 9289   1.196   2.088  15.843  0.4249  1.6928  1.4088
   7123SM  C16S 9290   1.238   2.153  15.639  0.2999  0.1535 -0.3110
   7123SM  H16S 9291   1.145   2.212  15.641  0.4899  0.4436  0.8352
   7123SM  H16T 9292   1.214   2.055  15.592 -0.0439  0.0836  0.0080
   7123SM  C17S 9293   1.337   2.213  15.541  0.2073  0.1713  0.9189
   7123SM  H17S 9294   1.429   2.151  15.530  1.3213  1.8940  0.1349
   7123SM  H17T 9295   1.366   2.307  15.593 -1.3487  1.0619  0.2553
   7123SM  C18S 9296   1.291   2.261  15.403 -0.3226  0.4591  0.2155
   7123SM  H18S 9297   1.190   2.308  15.400 -0.0178  1.0571 -1.6497
   7123SM  H18T 9298   1.275   2.172  15.339 -3.8543  0.7188  0.5435
   7123SM  H18U 9299   1.367   2.331  15.361  0.2501 -0.2387  0.0716
   7123SM   C1F 9300   1.551   1.441  17.075 -0.2534 -0.0504 -0.0925
   7123SM    OF 9301   1.482   1.403  17.170  0.4277 -0.1583 -0.2492
   7123SM   C2F 9302   1.614   1.341  16.985 -0.1423  0.2789 -0.2910
   7123SM   H2F 9303   1.610   1.236  17.023 -0.7262  0.1658 -0.6528
   7123SM   H2G 9304   1.723   1.361  16.981 -0.1555  0.2369 -0.9719
   7123SM   C3F 9305   1.547   1.340  16.849 -0.3570  0.7277  0.4431
   7123SM   H3F 9306   1.557   1.437  16.797  2.5125 -0.2423 -1.0006
   7123SM   H3G 9307   1.436   1.341  16.851 -0.6857 -2.3113 -3.4845
   7123SM   C4F 9308   1.604   1.228  16.749 -0.2999  0.2073 -0.8479
   7123SM   H4F 9309   1.613   1.129  16.798  0.6235 -1.1180 -3.4805
   7123SM   H4G 9310   1.711   1.253  16.733 -0.9378  3.0971 -1.0889
   7123SM   C5F 9311   1.524   1.216  16.616 -0.0465  0.3942 -0.1562
   7123SM   H5F 9312   1.413   1.212  16.621  0.0312 -0.8506  0.8810
   7123SM   H5G 9313   1.562   1.118  16.580  3.0239  1.0864  0.8951
   7123SM   C6F 9314   1.569   1.323  16.522  0.3631  0.3802  0.4601
   7123SM   H6F 9315   1.680   1.316  16.516  0.4813 -0.9267  2.7820
   7123SM   H6G 9316   1.536   1.425  16.553 -2.6253 -0.5226  0.5335
   7123SM   C7F 9317   1.514   1.291  16.384  0.2815 -0.3572  0.5194
   7123SM   H7F 9318   1.509   1.391  16.336 -0.4137 -1.3605 -1.6496
   7123SM   H7G 9319   1.406   1.283  16.410 -0.1057  2.5933  0.1893
   7123SM   C8F 9320   1.558   1.171  16.307 -0.9046 -0.2200  0.6301
   7123SM   H8F 9321   1.530   1.076  16.357 -0.4866 -1.2308 -0.9973
   7123SM   H8G 9322   1.667   1.185  16.292 -0.7190 -1.6202  0.6263
   7123SM   C9F 9323   1.494   1.146  16.166 -0.2795  0.4257 -0.9666
   7123SM   H9F 9324   1.385   1.129  16.180 -0.1586 -2.1799 -2.4329
   7123SM   H9G 9325   1.549   1.058  16.125  2.7339  0.6827  2.0386
   7123SM  C10F 9326   1.519   1.274  16.078 -0.2429  0.4454  0.0618
   7123SM  H10F 9327   1.625   1.304  16.060 -0.5815  0.6093 -2.0080
   7123SM  H10G 9328   1.459   1.363  16.105 -0.5023 -0.2942  2.0570
   7123SM  C11F 9329   1.483   1.242  15.922  0.5085  0.8338  0.2363
   7123SM  H11F 9330   1.380   1.201  15.919 -0.0692  2.0508  1.8895
   7123SM  H11G 9331   1.543   1.148  15.911 -0.2259  0.5533 -1.8562
   7123SM  C12F 9332   1.509   1.357  15.817 -0.1934  0.1669 -0.6797
   7123SM  H12F 9333   1.619   1.366  15.804 -0.2783  0.8836 -0.9492
   7123SM  H12G 9334   1.474   1.452  15.861  1.4120  0.7233 -0.5292
   7123SM  C13F 9335   1.438   1.330  15.683 -0.3525 -0.0990 -0.1844
   7123SM  H13F 9336   1.440   1.417  15.614 -0.1874 -0.3044 -0.4394
   7123SM  H13G 9337   1.331   1.310  15.705 -0.8268  1.0295 -1.3692
   7123SM  C14F 9338   1.479   1.200  15.609 -0.1325 -0.5686 -0.0051
   7123SM  H14F 9339   1.449   1.116  15.675  0.4135 -0.5631  0.2567
   7123SM  H14G 9340   1.590   1.207  15.600  0.1630 -2.7511  1.2482
   7123SM  C15F 9341   1.401   1.183  15.482  0.3163 -0.0793  0.4984
   7123SM  H15F 9342   1.418   1.264  15.408  1.7691  0.3237  1.2314
   7123SM  H15G 9343   1.294   1.199  15.505  0.1955  1.6696 -1.0546
   7123SM  C16F 9344   1.429   1.042  15.420  1.0030 -0.2854 -0.1663
   7123SM  H16F 9345   1.375   1.033  15.323 -2.3458 -0.0748  1.5403
   7123SM  H16G 9346   1.375   0.962  15.475 -1.3246  1.5233  0.3289
   7123SM  C17F 9347   1.577   1.008  15.404  0.5264 -0.2461 -0.1729
   7123SM  H17F 9348   1.638   1.013  15.497 -0.1545 -0.1141  0.2672
   7123SM  H17G 9349   1.627   1.078  15.333 -0.1146  0.2340 -0.1638
   7123SM  C18F 9350   1.594   0.866  15.337 -0.7571  0.0601  0.2868
   7123SM  H18F 9351   1.701   0.869  15.307 -0.8051 -0.9006 -0.0132
   7123SM  H18G 9352   1.525   0.857  15.251 -0.3666 -1.4944  0.1142
   7123SM  C19F 9353   1.588   0.754  15.435 -0.8592  0.3994 -0.3149
   7123SM  H19F 9354   1.484   0.753  15.476 -0.2893  3.7659  1.6236
   7123SM  H19G 9355   1.657   0.776  15.520  0.3695 -1.4037 -0.7721
   7123SM  C20F 9356   1.646   0.614  15.388  0.1079  0.0409 -0.2225
   7123SM  H20F 9357   1.754   0.625  15.362  0.4595  0.1661  1.1837
   7123SM  H20G 9358   1.599   0.589  15.291  0.1843  1.4570 -0.6480
   7123SM  C21F 9359   1.625   0.506  15.495  0.4982  0.0707  0.0968
   7123SM  H21F 9360   1.515   0.502  15.512  0.7011 -0.9292  1.3803
   7123SM  H21G 9361   1.669   0.543  15.590 -1.5726  0.3189  0.9973
   7123SM  C22F 9362   1.677   0.370  15.459 -0.1167  0.3825  0.9045
   7123SM  H22F 9363   1.631   0.346  15.360 -0.2421  0.3633  0.9670
   7123SM  H22G 9364   1.643   0.303  15.541  0.0606  1.1061  1.5755
   7123SM  C23F 9365   1.835   0.375  15.442  0.0944  0.5185 -0.3686
   7123SM  H23F 9366   1.872   0.273  15.419 -1.7976 -0.0984 -0.8585
   7123SM  H23G 9367   1.870   0.392  15.546 -2.2239 -0.2841  0.5988
   7123SM  H23H 9368   1.881   0.452  15.377 -0.1885  0.8251 -0.2046
   7223SM     N 9369   2.753   4.867  18.110 -0.6137 -0.7988 -0.0945
   7223SM   C15 9370   2.604   4.889  18.135  0.2281  0.5437 -0.4919
   7223SM  H15A 9371   2.553   4.912  18.043 -1.2035  0.3893  0.2429
   7223SM  H15B 9372   2.589   4.969  18.205  2.5647 -1.6923  2.8781
   7223SM  H15C 9373   2.561   4.798  18.176  0.2274  2.0970  3.3450
   7223SM   C14 9374   2.824   4.912  18.227  0.0143  0.1117 -0.4233
   7223SM  H14A 9375   2.814   4.858  18.319  0.8386  0.1828 -0.2836
   7223SM  H14B 9376   2.784   5.007  18.258  1.2375  0.1568  1.0924
   7223SM  H14C 9377   2.929   4.926  18.209 -0.0292  1.9323  0.5432
   7223SM   C13 9378   2.786   4.731  18.062  0.2489 -0.5740 -1.0299
   7223SM  H13A 9379   2.739   4.712  17.967 -3.7222  1.7707  0.1945
   7223SM  H13B 9380   2.736   4.660  18.126 -0.0275  0.3978 -0.1267
   7223SM  H13C 9381   2.891   4.726  18.041 -0.0999 -0.3395 -2.9515
   7223SM   C12 9382   2.797   4.969  17.996  0.4566  0.1150  0.4177
   7223SM  H12A 9383   2.905   4.981  17.990  0.4157 -0.1045 -1.4724
   7223SM  H12B 9384   2.753   5.064  18.021  1.2063 -0.3524  3.9731
   7223SM   C11 9385   2.755   4.939  17.849  0.5587  0.1137  0.3901
   7223SM  H11A 9386   2.797   4.843  17.812  1.0386  1.3074 -2.4437
   7223SM  H11B 9387   2.796   5.017  17.782 -0.6884  0.3480 -0.1321
   7223SM     P 9388   2.533   4.862  17.739 -0.2097  0.1113  0.1952
   7223SM   O13 9389   2.471   4.748  17.805 -0.6609  0.4005  0.6467
   7223SM   O14 9390   2.447   4.955  17.661 -0.4323  0.1382  0.2398
   7223SM   O11 9391   2.641   4.812  17.637 -0.0649  0.4786  0.8863
   7223SM   O12 9392   2.610   4.941  17.845 -0.2489 -0.2147 -0.2751
   7223SM   C1S 9393   2.603   4.743  17.517  0.5723  0.0194 -0.2501
   7223SM   H1S 9394   2.540   4.654  17.540  2.2674 -1.3119 -0.5082
   7223SM   H1T 9395   2.696   4.686  17.492  0.2565  0.2556 -2.0946
   7223SM    NF 9396   2.503   4.732  17.292 -0.2002 -0.2604 -0.7430
   7223SM   HNF 9397   2.554   4.718  17.208 -0.0748 -0.8814 -0.5739
   7223SM   C2S 9398   2.557   4.823  17.393 -0.1095 -0.6589  0.0003
   7223SM   H2S 9399   2.476   4.890  17.430  1.0373  0.2698  0.9330
   7223SM   C3S 9400   2.669   4.930  17.352  0.0158  0.4085  0.0035
   7223SM   H3S 9401   2.754   4.869  17.315  0.1599  1.6626 -1.9091
   7223SM    O3 9402   2.730   4.997  17.460 -0.5113  0.0263 -0.4662
   7223SM   HO3 9403   2.720   4.935  17.532  0.9064 -0.4704 -0.6630
   7223SM   C4S 9404   2.615   5.015  17.240 -0.6837  0.2299 -0.3902
   7223SM   H4S 9405   2.683   4.999  17.155  0.1011 -1.2466  0.4668
   7223SM   C5S 9406   2.515   5.108  17.253 -0.3816 -0.1269 -0.3367
   7223SM   H5S 9407   2.468   5.119  17.352  0.4535 -3.1252  0.5146
   7223SM   C6S 9408   2.460   5.204  17.146  0.5894 -0.4259 -0.4644
   7223SM   H6S 9409   2.489   5.308  17.172  1.0311 -0.7171  0.2611
   7223SM   H6T 9410   2.350   5.188  17.145  0.6582 -1.0527  0.3725
   7223SM   C7S 9411   2.518   5.177  17.005 -0.0111  0.4148 -0.0411
   7223SM   H7S 9412   2.507   5.070  16.976  1.0458  0.2269  0.2261
   7223SM   H7T 9413   2.627   5.198  17.006 -0.1126  0.9509  0.8335
   7223SM   C8S 9414   2.446   5.265  16.896  0.1932  0.1680 -0.1615
   7223SM   H8S 9415   2.463   5.365  16.940 -1.6578  1.0328 -1.3105
   7223SM   H8T 9416   2.336   5.249  16.895  0.2229 -0.0576  0.1250
   7223SM   C9S 9417   2.512   5.249  16.762  0.0898  0.2259 -0.7200
   7223SM   H9S 9418   2.546   5.144  16.757 -0.0971  0.1625 -0.6777
   7223SM   H9T 9419   2.603   5.311  16.755 -0.3200  1.0351  0.6106
   7223SM  C10S 9420   2.420   5.262  16.639  0.0301  0.0131 -0.1637
   7223SM  H10S 9421   2.381   5.364  16.620 -0.4995 -0.3816 -1.2565
   7223SM  H10T 9422   2.327   5.206  16.659 -0.5790  0.8411 -0.6255
   7223SM  C11S 9423   2.490   5.218  16.517  0.3453 -0.6865 -0.3554
   7223SM  H11S 9424   2.532   5.115  16.527 -0.1277 -0.8164  0.3822
   7223SM  H11T 9425   2.572   5.279  16.475  1.1929 -1.4197  0.1962
   7223SM  C12S 9426   2.386   5.224  16.407 -0.1916  0.2378 -0.1538
   7223SM  H12S 9427   2.351   5.328  16.394  3.1445  1.4527 -0.4847
   7223SM  H12T 9428   2.301   5.157  16.432  0.0152 -0.8742 -2.1943
   7223SM  C13S 9429   2.446   5.159  16.279 -0.0662 -0.1751 -0.2955
   7223SM  H13S 9430   2.480   5.059  16.312 -2.4694 -0.4545  1.6399
   7223SM  H13T 9431   2.530   5.222  16.243 -0.1959 -0.5724 -1.3215
   7223SM  C14S 9432   2.346   5.130  16.164  0.3787 -0.1848  0.4170
   7223SM  H14S 9433   2.282   5.219  16.145  0.5295  0.1445  1.3756
   7223SM  H14T 9434   2.272   5.054  16.196 -0.4175 -0.0356 -0.9956
   7223SM  C15S 9435   2.415   5.099  16.026  0.4760 -0.1951 -0.4005
   7223SM  H15S 9436   2.506   5.039  16.046 -0.0372 -0.4387  1.4327
   7223SM  H15T 9437   2.453   5.194  15.983  0.9286 -0.6627 -1.0535
   7223SM  C16S 9438   2.331   5.037  15.917  0.4060  0.0789  0.3169
   7223SM  H16S 9439   2.252   5.109  15.887  0.6528  0.0456 -0.4319
   7223SM  H16T 9440   2.274   4.953  15.962 -1.8766  0.1890 -2.0670
   7223SM  C17S 9441   2.401   4.990  15.786  0.2480  0.6376 -0.5902
   7223SM  H17S 9442   2.450   4.898  15.826  2.2347  1.5687 -0.7595
   7223SM  H17T 9443   2.484   5.061  15.766  0.4967  1.0727  1.6680
   7223SM  C18S 9444   2.323   4.956  15.660  0.3967 -0.0047  0.1468
   7223SM  H18S 9445   2.384   4.899  15.586 -0.8938  0.3060 -1.2010
   7223SM  H18T 9446   2.290   5.048  15.607  0.2888 -0.9299 -1.4659
   7223SM  H18U 9447   2.231   4.904  15.695  0.1267  0.7818  0.6131
   7223SM   C1F 9448   2.393   4.652  17.295  0.2529 -0.8086 -0.1542
   7223SM    OF 9449   2.304   4.679  17.370  0.0470 -0.2989 -0.0730
   7223SM   C2F 9450   2.386   4.540  17.199 -0.2631 -0.3086 -0.2948
   7223SM   H2F 9451   2.361   4.444  17.249  1.8484 -0.3043  0.8871
   7223SM   H2G 9452   2.483   4.522  17.148  0.7042 -1.0138  1.6759
   7223SM   C3F 9453   2.287   4.555  17.081 -0.6553  0.2346  0.0483
   7223SM   H3F 9454   2.187   4.581  17.120 -0.3530  1.1500  0.2347
   7223SM   H3G 9455   2.294   4.462  17.021  1.1565  0.2578  0.1471
   7223SM   C4F 9456   2.324   4.661  16.982  0.7452 -0.1746  0.2128
   7223SM   H4F 9457   2.434   4.670  16.969  0.5398 -0.6720 -2.3141
   7223SM   H4G 9458   2.286   4.759  17.018 -0.4555 -0.5438 -0.0263
   7223SM   C5F 9459   2.278   4.627  16.839 -0.2660 -0.1901  0.0296
   7223SM   H5F 9460   2.170   4.604  16.831 -0.0463 -0.7522 -1.8776
   7223SM   H5G 9461   2.337   4.545  16.792  0.2418  1.1628 -1.7834
   7223SM   C6F 9462   2.303   4.758  16.747 -0.2328 -0.1513 -1.2182
   7223SM   H6F 9463   2.410   4.787  16.750  0.3449 -2.1874  0.2829
   7223SM   H6G 9464   2.250   4.841  16.798 -0.5891 -1.4041  0.5539
   7223SM   C7F 9465   2.244   4.742  16.607  0.0855 -0.2064  0.3137
   7223SM   H7F 9466   2.138   4.711  16.617  0.6847 -1.8785  2.1064
   7223SM   H7G 9467   2.295   4.655  16.561  0.2655 -0.1228  0.3540
   7223SM   C8F 9468   2.259   4.864  16.517  0.0181  1.0928 -0.3930
   7223SM   H8F 9469   2.361   4.908  16.511 -0.3931  2.5580  2.0982
   7223SM   H8G 9470   2.198   4.941  16.569 -0.6760  1.5474 -1.8304
   7223SM   C9F 9471   2.190   4.839  16.380 -0.3001 -0.3004 -0.8868
   7223SM   H9F 9472   2.167   4.938  16.334 -2.2100 -0.3653 -0.1603
   7223SM   H9G 9473   2.089   4.794  16.389 -0.0611 -0.9739 -1.4514
   7223SM  C10F 9474   2.281   4.765  16.289 -0.6610 -0.3558  1.0184
   7223SM  H10F 9475   2.330   4.672  16.324 -1.9381 -0.9324  1.3286
   7223SM  H10G 9476   2.365   4.833  16.265  0.2776 -0.9292  2.5211
   7223SM  C11F 9477   2.205   4.735  16.155 -0.3220 -0.1875  0.4786
   7223SM  H11F 9478   2.170   4.829  16.108 -0.6405 -0.6701 -0.2710
   7223SM  H11G 9479   2.119   4.666  16.167  0.4977 -1.7002 -1.6421
   7223SM  C12F 9480   2.302   4.674  16.052 -0.8571  0.1056 -0.4017
   7223SM  H12F 9481   2.326   4.571  16.087 -0.7195  0.4036  0.4182
   7223SM  H12G 9482   2.399   4.727  16.055 -1.1843  0.6926  0.0211
   7223SM  C13F 9483   2.238   4.651  15.920  0.5864  0.1832  0.2770
   7223SM  H13F 9484   2.218   4.746  15.866  0.7526  0.7378  1.1733
   7223SM  H13G 9485   2.147   4.591  15.940 -0.0704  1.0703  0.0226
   7223SM  C14F 9486   2.316   4.561  15.820 -0.5383  0.1521 -0.0044
   7223SM  H14F 9487   2.324   4.457  15.858 -0.1726  0.0666 -0.3043
   7223SM  H14G 9488   2.418   4.604  15.820 -0.2586 -0.4296 -1.5230
   7223SM  C15F 9489   2.289   4.564  15.671  0.2821 -1.0355  0.0892
   7223SM  H15F 9490   2.356   4.487  15.626  1.3915 -0.7339  1.1569
   7223SM  H15G 9491   2.316   4.662  15.627  0.8321 -2.1371 -2.2060
   7223SM  C16F 9492   2.145   4.532  15.624  0.7605  0.1444 -0.7050
   7223SM  H16F 9493   2.075   4.598  15.679  0.2533 -0.0854 -1.0653
   7223SM  H16G 9494   2.115   4.431  15.659 -1.0177  0.7317 -0.3953
   7223SM  C17F 9495   2.140   4.562  15.469  0.5359  0.9218  0.6220
   7223SM  H17F 9496   2.186   4.662  15.457  1.4792  0.5396  0.9839
   7223SM  H17G 9497   2.037   4.580  15.430  0.7872  1.5457  0.2383
   7223SM  C18F 9498   2.222   4.459  15.386  0.1426  0.1706  1.3040
   7223SM  H18F 9499   2.179   4.357  15.392 -0.9898  0.5761  0.4726
   7223SM  H18G 9500   2.325   4.442  15.422  1.5644  3.3791 -0.8366
   7223SM  C19F 9501   2.219   4.490  15.232  0.2124 -0.0940 -0.0256
   7223SM  H19F 9502   2.253   4.596  15.229  0.8370 -0.2503  0.9142
   7223SM  H19G 9503   2.112   4.494  15.205  0.6564  2.8206 -1.7741
   7223SM  C20F 9504   2.319   4.416  15.151 -0.5700 -0.1234  0.2002
   7223SM  H20F 9505   2.265   4.327  15.112 -0.3777  0.8632 -2.5334
   7223SM  H20G 9506   2.397   4.377  15.219  0.7708 -0.1899 -1.3100
   7223SM  C21F 9507   2.372   4.509  15.036  0.5791  0.5663 -0.1254
   7223SM  H21F 9508   2.411   4.607  15.073  3.0987 -0.6252  0.5655
   7223SM  H21G 9509   2.276   4.532  14.985 -1.0935 -0.1970  2.4535
   7223SM  C22F 9510   2.476   4.443  14.947 -0.9563  0.0851 -0.0480
   7223SM  H22F 9511   2.422   4.357  14.902 -0.4261 -0.7409  0.8756
   7223SM  H22G 9512   2.577   4.408  14.977  0.0422  0.7626 -2.4039
   7223SM  C23F 9513   2.496   4.529  14.816 -0.3419 -0.1457 -0.0322
   7223SM  H23F 9514   2.531   4.633  14.836  2.3468 -1.1076  0.5892
   7223SM  H23G 9515   2.397   4.536  14.765 -0.6239  0.3061  0.5714
   7223SM  H23H 9516   2.560   4.477  14.742 -1.2156  0.6259 -1.3946
   7323SM     N 9517   0.336   2.684  18.172 -0.3034 -0.3115  0.1198
   7323SM   C15 9518   0.442   2.640  18.269  0.1355  0.2091 -0.5908
   7323SM  H15A 9519   0.385   2.616  18.358 -2.2381 -0.6729 -2.2483
   7323SM  H15B 9520   0.514   2.718  18.288 -2.1625  2.4805 -0.6110
   7323SM  H15C 9521   0.479   2.543  18.240 -2.3856 -0.3915 -2.1654
   7323SM   C14 9522   0.255   2.559  18.149 -0.0857 -0.3329 -0.7514
   7323SM  H14A 9523   0.186   2.577  18.068 -0.7323  1.4859  0.1406
   7323SM  H14B 9524   0.195   2.540  18.236 -0.0773 -0.0348 -0.6797
   7323SM  H14C 9525   0.317   2.472  18.134  0.9630  0.6059 -2.0792
   7323SM   C13 9526   0.259   2.797  18.232  0.0005  0.2294  0.3900
   7323SM  H13A 9527   0.205   2.770  18.321  0.1942  1.1790  0.7970
   7323SM  H13B 9528   0.194   2.829  18.152  0.3081  0.6732  0.3127
   7323SM  H13C 9529   0.320   2.878  18.268  1.2408  0.3825 -1.8555
   7323SM   C12 9530   0.415   2.727  18.049  0.5581  0.4492 -0.1829
   7323SM  H12A 9531   0.495   2.657  18.031 -1.1307 -1.4941 -0.4970
   7323SM  H12B 9532   0.458   2.824  18.066  2.0800  0.0590 -1.5763
   7323SM   C11 9533   0.336   2.737  17.909 -0.0689 -0.4332  0.3742
   7323SM  H11A 9534   0.283   2.644  17.881  0.7510 -0.0303 -2.9286
   7323SM  H11B 9535   0.414   2.760  17.833  0.8791 -1.6356  0.9468
   7323SM     P 9536   0.280   2.993  17.913 -0.1083 -0.2059  0.0836
   7323SM   O13 9537   0.157   3.075  17.910 -0.1267 -0.4171 -0.1305
   7323SM   O14 9538   0.384   3.021  18.018 -0.2290  0.0881  0.2513
   7323SM   O11 9539   0.358   3.012  17.772  0.4592  0.2089 -0.1686
   7323SM   O12 9540   0.236   2.842  17.917  0.0214 -0.0365 -0.4004
   7323SM   C1S 9541   0.305   3.111  17.688 -0.2675  0.0072 -0.0560
   7323SM   H1S 9542   0.297   3.210  17.738 -1.5795  0.5651 -1.3020
   7323SM   H1T 9543   0.201   3.094  17.652  0.6851  0.8369 -3.6186
   7323SM    NF 9544   0.313   3.233  17.476 -0.5081 -0.4206 -0.2268
   7323SM   HNF 9545   0.238   3.205  17.417 -0.7498  1.2960 -0.7830
   7323SM   C2S 9546   0.371   3.124  17.551  1.3872  0.5380  0.5282
   7323SM   H2S 9547   0.479   3.145  17.566  0.9155  2.6998  1.3039
   7323SM   C3S 9548   0.348   2.987  17.477  0.0832  1.1189  0.1158
   7323SM   H3S 9549   0.239   2.970  17.466 -0.1864  0.3942  3.2143
   7323SM    O3 9550   0.404   2.876  17.556 -0.4247  0.2577  0.5169
   7323SM   HO3 9551   0.388   2.897  17.648  2.4265 -1.3303  1.5035
   7323SM   C4S 9552   0.425   2.982  17.338 -0.3329  0.2253 -0.6648
   7323SM   H4S 9553   0.534   2.980  17.349 -0.3592 -0.3006 -0.4281
   7323SM   C5S 9554   0.360   2.967  17.225 -0.0974  0.4555  0.0779
   7323SM   H5S 9555   0.260   2.925  17.239 -1.0908  2.9151  0.9359
   7323SM   C6S 9556   0.431   2.946  17.092 -0.4201  0.4234 -0.0077
   7323SM   H6S 9557   0.469   2.844  17.069  0.4776  0.3165  1.6966
   7323SM   H6T 9558   0.527   3.001  17.106 -0.5671  0.7071 -0.1344
   7323SM   C7S 9559   0.347   3.008  16.979  0.8661  0.0274 -0.2410
   7323SM   H7S 9560   0.321   3.116  16.990  0.5939 -0.0336 -0.2633
   7323SM   H7T 9561   0.261   2.941  16.959  0.9949 -0.0767 -0.4472
   7323SM   C8S 9562   0.416   3.002  16.843  0.2733  0.6589  0.2248
   7323SM   H8S 9563   0.419   2.893  16.821  1.3593  0.7798 -0.3337
   7323SM   H8T 9564   0.523   3.029  16.854  0.5414  0.0814 -0.7774
   7323SM   C9S 9565   0.346   3.076  16.737  0.8250 -0.3462 -0.0864
   7323SM   H9S 9566   0.332   3.183  16.765 -3.6973 -0.4249 -1.2855
   7323SM   H9T 9567   0.242   3.039  16.727  0.3699  1.4298 -3.1961
   7323SM  C10S 9568   0.416   3.063  16.603 -0.5075  0.2680  0.5433
   7323SM  H10S 9569   0.439   2.956  16.587  0.1342  0.5877 -0.8420
   7323SM  H10T 9570   0.516   3.112  16.597  0.3464 -1.3794  0.6648
   7323SM  C11S 9571   0.337   3.102  16.477 -0.3203 -0.6122  0.4234
   7323SM  H11S 9572   0.314   3.210  16.485  0.5503 -0.1598 -2.1347
   7323SM  H11T 9573   0.242   3.045  16.485 -0.8532  0.3693  1.3821
   7323SM  C12S 9574   0.408   3.072  16.341  0.0665 -0.3045  0.4233
   7323SM  H12S 9575   0.423   2.963  16.353 -0.7597 -0.2152  2.8236
   7323SM  H12T 9576   0.503   3.129  16.331 -0.2282  0.2519  0.7414
   7323SM  C13S 9577   0.322   3.089  16.218  0.8043  0.1741 -0.0500
   7323SM  H13S 9578   0.296   3.196  16.209  2.6283  0.7945  1.6240
   7323SM  H13T 9579   0.228   3.033  16.239  1.1331 -1.4399 -2.4471
   7323SM  C14S 9580   0.389   3.026  16.090  0.8239 -0.6149 -0.3034
   7323SM  H14S 9581   0.398   2.919  16.117 -2.1371 -0.8418  0.1111
   7323SM  H14T 9582   0.491   3.061  16.067  0.3548  0.1004 -1.3510
   7323SM  C15S 9583   0.304   3.047  15.961 -0.3771  0.6674  0.0547
   7323SM  H15S 9584   0.320   3.152  15.929  2.2395  0.5011  0.5843
   7323SM  H15T 9585   0.200   3.022  15.989 -0.2694  0.7955  0.5917
   7323SM  C16S 9586   0.354   2.946  15.852  0.2250  0.1967 -0.1824
   7323SM  H16S 9587   0.369   2.841  15.885 -0.6384  0.1664  0.1552
   7323SM  H16T 9588   0.451   2.984  15.815  0.1647 -0.7183 -1.3250
   7323SM  C17S 9589   0.256   2.937  15.732 -0.1662 -0.3996 -0.5879
   7323SM  H17S 9590   0.249   3.046  15.710 -1.8011 -0.4120 -0.3220
   7323SM  H17T 9591   0.164   2.897  15.780 -1.6049  2.2296 -0.9165
   7323SM  C18S 9592   0.317   2.853  15.614  0.6348 -0.0588 -0.2046
   7323SM  H18S 9593   0.424   2.878  15.602  0.4541  0.8970  0.0681
   7323SM  H18T 9594   0.263   2.880  15.520 -1.7808  0.3879  1.2161
   7323SM  H18U 9595   0.316   2.744  15.633  2.9902  0.0658  0.9161
   7323SM   C1F 9596   0.327   3.362  17.507  0.6355 -0.0802 -0.4577
   7323SM    OF 9597   0.424   3.402  17.574 -0.2994  0.1314 -0.3999
   7323SM   C2F 9598   0.208   3.453  17.478  0.7242  0.6928 -0.4266
   7323SM   H2F 9599   0.172   3.499  17.572 -1.4377  0.7640 -1.2300
   7323SM   H2G 9600   0.129   3.384  17.441  1.7100 -0.9139  0.3288
   7323SM   C3F 9601   0.230   3.573  17.382 -0.7537 -0.7474 -0.0835
   7323SM   H3F 9602   0.288   3.657  17.426 -1.6554  0.0349 -0.3519
   7323SM   H3G 9603   0.129   3.613  17.358  0.4327  2.8227  0.2195
   7323SM   C4F 9604   0.311   3.532  17.255  0.0341 -0.0741 -0.0120
   7323SM   H4F 9605   0.398   3.475  17.295 -0.1951 -0.4880 -0.0992
   7323SM   H4G 9606   0.361   3.611  17.196  0.6947 -1.6318 -1.6437
   7323SM   C5F 9607   0.241   3.448  17.150 -0.4355  0.8568 -0.5541
   7323SM   H5F 9608   0.171   3.375  17.196  0.5243 -2.1573 -3.4462
   7323SM   H5G 9609   0.320   3.385  17.103 -0.3359  0.3060  0.3412
   7323SM   C6F 9610   0.151   3.528  17.055  0.5544 -0.1593  0.1307
   7323SM   H6F 9611   0.096   3.601  17.119 -0.4807 -2.5178  2.1069
   7323SM   H6G 9612   0.071   3.462  17.016 -0.2964  0.6953  0.3651
   7323SM   C7F 9613   0.214   3.585  16.932 -0.6154 -0.1571  0.0804
   7323SM   H7F 9614   0.239   3.507  16.857  1.3769  2.0155 -1.6896
   7323SM   H7G 9615   0.313   3.628  16.958 -0.2316 -0.4987 -0.7754
   7323SM   C8F 9616   0.135   3.689  16.860  0.3077  0.8305 -0.1947
   7323SM   H8F 9617   0.119   3.776  16.927  0.8020  1.3112 -0.6843
   7323SM   H8G 9618   0.040   3.632  16.849  0.4727  0.4301  0.4046
   7323SM   C9F 9619   0.184   3.744  16.721  0.7551 -0.3502 -0.2296
   7323SM   H9F 9620   0.287   3.779  16.743  1.1351 -0.7697 -1.3114
   7323SM   H9G 9621   0.127   3.838  16.704 -0.2400 -0.3992  2.3155
   7323SM  C10F 9622   0.205   3.647  16.606 -0.8344 -0.9343 -0.0583
   7323SM  H10F 9623   0.108   3.595  16.586 -1.3724  1.1904 -3.6788
   7323SM  H10G 9624   0.288   3.578  16.632  0.6069  0.6396 -0.3148
   7323SM  C11F 9625   0.252   3.714  16.482 -0.1595  0.1517 -0.0124
   7323SM  H11F 9626   0.358   3.742  16.499 -0.1500 -0.5059  1.1104
   7323SM  H11G 9627   0.193   3.806  16.461 -0.2455  0.6638  2.2026
   7323SM  C12F 9628   0.242   3.612  16.368  0.3910  0.2536  0.8116
   7323SM  H12F 9629   0.144   3.560  16.363  1.4534 -1.7863 -0.0612
   7323SM  H12G 9630   0.314   3.529  16.389  0.1513 -0.0081  0.6104
   7323SM  C13F 9631   0.272   3.684  16.237 -0.8985 -0.3842 -0.7230
   7323SM  H13F 9632   0.372   3.731  16.250 -2.0364  2.1064 -0.2394
   7323SM  H13G 9633   0.190   3.757  16.221 -1.7849 -1.1764  0.0468
   7323SM  C14F 9634   0.280   3.585  16.118  0.5328  0.0756  0.4969
   7323SM  H14F 9635   0.201   3.512  16.145 -2.0162  2.3769 -0.1805
   7323SM  H14G 9636   0.377   3.532  16.122 -0.4629 -1.7128  2.3868
   7323SM  C15F 9637   0.261   3.659  15.986  0.0140  0.3090 -0.7066
   7323SM  H15F 9638   0.356   3.711  15.964  1.1638 -1.9139 -1.3343
   7323SM  H15G 9639   0.176   3.730  15.991  0.0148  0.2425  0.4560
   7323SM  C16F 9640   0.225   3.574  15.868  0.3484  0.6561  0.8503
   7323SM  H16F 9641   0.142   3.503  15.890 -0.2965  2.0590  3.3851
   7323SM  H16G 9642   0.312   3.513  15.836 -1.0429 -0.8049 -0.3487
   7323SM  C17F 9643   0.198   3.659  15.744  0.1917 -0.0294 -0.3026
   7323SM  H17F 9644   0.283   3.729  15.730  0.6043 -0.5027 -0.1760
   7323SM  H17G 9645   0.107   3.722  15.748  0.6790  0.6321  0.8951
   7323SM  C18F 9646   0.181   3.570  15.618  0.5205 -0.9757  0.0394
   7323SM  H18F 9647   0.076   3.535  15.620 -0.2598  1.2519  0.5759
   7323SM  H18G 9648   0.256   3.488  15.628  0.0102 -1.4373  0.1259
   7323SM  C19F 9649   0.192   3.648  15.490 -1.0127  0.0070  0.9086
   7323SM  H19F 9650   0.190   3.577  15.404 -0.9878  1.5155 -0.3833
   7323SM  H19G 9651   0.290   3.699  15.483 -0.6413 -0.7522  0.5048
   7323SM  C20F 9652   0.089   3.760  15.463 -0.5975 -0.5154 -0.4111
   7323SM  H20F 9653   0.092   3.833  15.546  1.2550 -1.3184  0.2927
   7323SM  H20G 9654  -0.011   3.715  15.481  0.1459 -1.9755  0.3034
   7323SM  C21F 9655   0.087   3.805  15.315  0.5937  1.2362  0.2607
   7323SM  H21F 9656   0.055   3.723  15.247  3.7489 -0.7829  1.0028
   7323SM  H21G 9657   0.189   3.821  15.274  0.7193 -0.3524 -0.1156
   7323SM  C22F 9658   0.012   3.929  15.277 -0.3848 -0.2109  0.1417
   7323SM  H22F 9659  -0.089   3.919  15.323 -0.3268  1.9141  0.8444
   7323SM  H22G 9660   0.010   3.933  15.166  0.0064 -1.2094  0.0895
   7323SM  C23F 9661   0.084   4.063  15.321  0.2867  0.0168  0.5773
   7323SM  H23F 9662   0.080   4.140  15.241 -0.3861 -0.3399  0.2612
   7323SM  H23G 9663   0.195   4.063  15.334  0.6144  0.6889 -1.7285
   7323SM  H23H 9664   0.033   4.093  15.415 -1.4881  1.0800 -0.6497
   7423SM     N 9665   4.421   6.381  17.702  0.4608 -0.1739  0.1205
   7423SM   C15 9666   4.546   6.421  17.770 -0.6556  0.2010  0.0238
   7423SM  H15A 9667   4.530   6.446  17.874 -0.3797 -0.2727  0.1900
   7423SM  H15B 9668   4.600   6.499  17.719 -1.2332  1.2669  1.0150
   7423SM  H15C 9669   4.617   6.340  17.785 -2.7472 -1.3798  2.1404
   7423SM   C14 9670   4.466   6.349  17.561  0.4057 -0.1577  0.8165
   7423SM  H14A 9671   4.388   6.312  17.496 -0.8364  0.0519  2.1354
   7423SM  H14B 9672   4.532   6.265  17.546 -0.8329 -1.3127  1.6051
   7423SM  H14C 9673   4.519   6.437  17.528 -0.4991  0.6660  1.4902
   7423SM   C13 9674   4.370   6.261  17.770  0.5260  0.0672  0.9183
   7423SM  H13A 9675   4.338   6.288  17.869 -1.3670  2.7356 -0.3007
   7423SM  H13B 9676   4.443   6.183  17.788  0.5593  0.1712  1.2414
   7423SM  H13C 9677   4.280   6.217  17.728  0.2950  1.0276  0.3991
   7423SM   C12 9678   4.313   6.487  17.692  0.4320  0.0351 -0.3720
   7423SM  H12A 9679   4.243   6.461  17.614 -1.0013 -0.4959  1.0443
   7423SM  H12B 9680   4.358   6.578  17.656  0.1836  1.5160  2.7489
   7423SM   C11 9681   4.240   6.525  17.822 -0.2378 -0.4724  0.2362
   7423SM  H11A 9682   4.203   6.628  17.803  1.1393 -0.2972 -1.8227
   7423SM  H11B 9683   4.304   6.531  17.912  0.7415 -0.5485 -0.4305
   7423SM     P 9684   3.986   6.457  17.820  0.0145 -0.3806 -0.0320
   7423SM   O13 9685   3.909   6.340  17.869  0.4722  0.1611  0.1257
   7423SM   O14 9686   3.938   6.583  17.875 -0.0685 -0.0244 -0.0671
   7423SM   O11 9687   3.993   6.456  17.659  0.0183  0.4530  0.2369
   7423SM   O12 9688   4.137   6.428  17.848 -0.4825 -0.0657 -0.0128
   7423SM   C1S 9689   4.009   6.341  17.585 -0.0366  0.5692 -0.2634
   7423SM   H1S 9690   3.966   6.251  17.635  0.6433 -0.5310 -1.5944
   7423SM   H1T 9691   4.116   6.315  17.573 -0.0882 -1.2638  2.3579
   7423SM    NF 9692   3.931   6.216  17.383 -0.7942 -0.0676  0.0880
   7423SM   HNF 9693   4.012   6.192  17.330 -0.5735 -0.9657  0.8083
   7423SM   C2S 9694   3.946   6.347  17.442 -0.5761 -0.3091 -0.3480
   7423SM   H2S 9695   3.843   6.387  17.447 -0.2793  0.3659  0.8201
   7423SM   C3S 9696   4.015   6.435  17.347 -0.3820 -0.5606  0.3283
   7423SM   H3S 9697   4.118   6.401  17.325 -0.5882 -1.1355  0.2279
   7423SM    O3 9698   4.023   6.571  17.393 -0.3957 -0.1779  0.7510
   7423SM   HO3 9699   4.005   6.568  17.487 -0.9988 -1.8201  0.6158
   7423SM   C4S 9700   3.934   6.441  17.220 -0.5339  0.1273 -0.4464
   7423SM   H4S 9701   3.987   6.386  17.140 -1.4310  0.1186 -1.0485
   7423SM   C5S 9702   3.810   6.492  17.186 -0.8884  0.3013 -0.3584
   7423SM   H5S 9703   3.760   6.554  17.262  4.6607  1.7711  2.6534
   7423SM   C6S 9704   3.738   6.476  17.053 -0.0834 -0.6969 -0.0631
   7423SM   H6S 9705   3.696   6.575  17.026 -0.4279 -1.1812 -1.3680
   7423SM   H6T 9706   3.642   6.423  17.068 -2.1275  2.6456 -0.4423
   7423SM   C7S 9707   3.830   6.422  16.947 -0.6503 -0.5278  0.0568
   7423SM   H7S 9708   3.877   6.324  16.970  0.8053  0.2598  0.5222
   7423SM   H7T 9709   3.908   6.500  16.935 -1.4014  0.4902  1.4762
   7423SM   C8S 9710   3.764   6.397  16.812  0.2928 -0.2039 -0.7688
   7423SM   H8S 9711   3.726   6.494  16.773 -1.2521 -0.3677  0.2445
   7423SM   H8T 9712   3.683   6.324  16.830 -0.7082  1.0209 -0.1640
   7423SM   C9S 9713   3.862   6.346  16.700 -0.2640  0.0274 -0.2853
   7423SM   H9S 9714   3.899   6.243  16.718 -2.2420 -1.0637 -2.0823
   7423SM   H9T 9715   3.945   6.419  16.709 -0.6487  0.4289  0.0692
   7423SM  C10S 9716   3.797   6.369  16.566  0.0158  1.0538  0.3380
   7423SM  H10S 9717   3.781   6.479  16.564  0.9157  1.1908 -1.1563
   7423SM  H10T 9718   3.702   6.314  16.556 -0.7137  2.5674 -1.8536
   7423SM  C11S 9719   3.881   6.334  16.441 -0.0214 -0.8545  1.1650
   7423SM  H11S 9720   3.928   6.234  16.452  1.9110  0.0496  1.7155
   7423SM  H11T 9721   3.963   6.409  16.441 -0.0286 -0.8392  0.2687
   7423SM  C12S 9722   3.803   6.345  16.309  0.1954 -0.1325  0.2251
   7423SM  H12S 9723   3.756   6.445  16.306 -0.0644 -0.2557  0.1141
   7423SM  H12T 9724   3.715   6.279  16.321 -0.0828  0.3544  0.8954
   7423SM  C13S 9725   3.876   6.298  16.174  0.0932 -0.2231 -0.6561
   7423SM  H13S 9726   3.901   6.191  16.190 -0.8971 -0.1063  2.3256
   7423SM  H13T 9727   3.967   6.360  16.161  0.8721 -1.5470 -1.7845
   7423SM  C14S 9728   3.795   6.327  16.047  0.4276  0.1714 -0.2964
   7423SM  H14S 9729   3.795   6.437  16.038  1.2023  0.1114 -1.2382
   7423SM  H14T 9730   3.697   6.276  16.056  0.9268 -1.0411 -1.3446
   7423SM  C15S 9731   3.854   6.265  15.918 -0.4181 -0.6161  0.7992
   7423SM  H15S 9732   3.882   6.159  15.938  0.1485 -0.5185  0.5573
   7423SM  H15T 9733   3.945   6.321  15.887 -1.3144 -0.5093 -1.9114
   7423SM  C16S 9734   3.751   6.272  15.797  0.3423 -0.2045  0.5725
   7423SM  H16S 9735   3.694   6.367  15.800 -0.6735 -0.7860  0.4649
   7423SM  H16T 9736   3.684   6.183  15.802 -2.4608  1.5742 -2.0134
   7423SM  C17S 9737   3.818   6.261  15.653  0.3084  0.2983 -0.1167
   7423SM  H17S 9738   3.880   6.168  15.652 -1.8538 -1.2258  0.1929
   7423SM  H17T 9739   3.890   6.343  15.635  1.0429 -0.3051 -0.0045
   7423SM  C18S 9740   3.712   6.238  15.541 -0.1455  0.4009 -0.1003
   7423SM  H18S 9741   3.648   6.329  15.530 -0.2412  0.0513 -3.4505
   7423SM  H18T 9742   3.648   6.149  15.556 -0.8451  0.6614 -1.3777
   7423SM  H18U 9743   3.771   6.228  15.447  1.8664  1.2518  1.0099
   7423SM   C1F 9744   3.855   6.121  17.436 -0.1014 -0.1029  0.1831
   7423SM    OF 9745   3.762   6.157  17.513 -0.6544 -0.1037  0.1258
   7423SM   C2F 9746   3.879   5.973  17.412 -0.3492 -0.2127  0.1777
   7423SM   H2F 9747   3.788   5.909  17.419  1.5747 -3.0222  1.1505
   7423SM   H2G 9748   3.950   5.961  17.497  0.5069  1.4768 -0.2609
   7423SM   C3F 9749   3.942   5.940  17.268  0.1147  0.0227 -0.6540
   7423SM   H3F 9750   3.952   5.830  17.268 -2.4558 -0.2697 -0.0155
   7423SM   H3G 9751   4.041   5.990  17.257  2.0322 -3.1579  0.7997
   7423SM   C4F 9752   3.849   5.973  17.153  0.0754 -0.8932 -1.0208
   7423SM   H4F 9753   3.825   6.080  17.140 -0.2551 -1.0246 -1.5619
   7423SM   H4G 9754   3.762   5.904  17.153  0.2298 -1.0911 -1.1730
   7423SM   C5F 9755   3.919   5.925  17.018  0.5698  0.6014  0.0469
   7423SM   H5F 9756   3.933   5.815  17.013  2.8209  0.8913 -1.7146
   7423SM   H5G 9757   4.020   5.968  17.002  0.9319 -0.5125 -0.7698
   7423SM   C6F 9758   3.853   5.974  16.891  0.0232  0.3144  0.2903
   7423SM   H6F 9759   3.834   6.084  16.891 -0.2493  0.2785  1.5748
   7423SM   H6G 9760   3.756   5.919  16.884 -0.6292  1.4160  0.3978
   7423SM   C7F 9761   3.930   5.931  16.766 -0.4788 -0.1413 -0.6351
   7423SM   H7F 9762   3.939   5.821  16.771 -2.5755 -0.2840  1.2110
   7423SM   H7G 9763   4.032   5.975  16.765 -0.3135 -0.4233  1.2982
   7423SM   C8F 9764   3.839   5.950  16.646  0.6789  0.2558  0.1953
   7423SM   H8F 9765   3.797   6.051  16.629 -0.1162  0.1825  1.5533
   7423SM   H8G 9766   3.749   5.887  16.660  0.1979  0.7050 -0.7680
   7423SM   C9F 9767   3.904   5.896  16.516  0.0705 -0.1803 -0.5221
   7423SM   H9F 9768   3.955   5.800  16.539 -0.1921 -0.5976 -1.6148
   7423SM   H9G 9769   3.979   5.972  16.485  0.1568 -1.2649 -3.1672
   7423SM  C10F 9770   3.809   5.878  16.392  0.2056  0.3368  0.9360
   7423SM  H10F 9771   3.792   5.983  16.362  0.0234 -0.2956 -1.3709
   7423SM  H10G 9772   3.714   5.843  16.438 -0.9119  1.4336 -0.4720
   7423SM  C11F 9773   3.858   5.803  16.275 -0.0899  0.4376 -0.2545
   7423SM  H11F 9774   3.860   5.694  16.298  1.1657  0.8903  2.1311
   7423SM  H11G 9775   3.963   5.830  16.251 -0.0661  0.5021 -0.0844
   7423SM  C12F 9776   3.773   5.815  16.146 -0.5187 -0.5946  0.1706
   7423SM  H12F 9777   3.753   5.924  16.139  1.3188 -0.3290 -2.2282
   7423SM  H12G 9778   3.670   5.774  16.152 -1.7177  1.4175 -3.3185
   7423SM  C13F 9779   3.843   5.777  16.018 -0.2939 -0.0265  0.0869
   7423SM  H13F 9780   3.885   5.674  16.023 -1.6333 -0.7744 -2.3745
   7423SM  H13G 9781   3.933   5.839  15.995 -0.0294  0.1245  1.4588
   7423SM  C14F 9782   3.756   5.782  15.888 -0.1427  0.0728 -0.0298
   7423SM  H14F 9783   3.698   5.875  15.873  0.8097  0.4752 -1.4544
   7423SM  H14G 9784   3.676   5.706  15.899 -0.8868  0.7204 -0.9158
   7423SM  C15F 9785   3.844   5.775  15.759  0.2361  0.3648 -0.3356
   7423SM  H15F 9786   3.867   5.668  15.739  1.7489  0.5897  0.0532
   7423SM  H15G 9787   3.937   5.830  15.783  0.7776  0.0547 -1.6292
   7423SM  C16F 9788   3.774   5.824  15.636  0.1026  0.2278 -0.1775
   7423SM  H16F 9789   3.762   5.934  15.650 -1.8135  0.1185 -0.7081
   7423SM  H16G 9790   3.670   5.787  15.639 -0.6370  2.1503 -0.4422
   7423SM  C17F 9791   3.840   5.787  15.502 -0.4167  0.3813  0.1725
   7423SM  H17F 9792   3.845   5.678  15.481  1.7293  0.3924  0.4570
   7423SM  H17G 9793   3.944   5.824  15.498 -0.9994  2.2555  1.2450
   7423SM  C18F 9794   3.767   5.866  15.387 -0.6659  1.6045 -0.2027
   7423SM  H18F 9795   3.831   5.891  15.300  1.0029  1.6484  0.9814
   7423SM  H18G 9796   3.736   5.970  15.412  2.7132  3.0515 -1.4170
   7423SM  C19F 9797   3.633   5.798  15.344 -0.1518  0.2298 -0.5806
   7423SM  H19F 9798   3.562   5.785  15.429  0.5613 -1.2348 -0.1763
   7423SM  H19G 9799   3.635   5.703  15.287  1.2808 -0.6014  0.7705
   7423SM  C20F 9800   3.563   5.879  15.239  0.2706 -0.4324  0.0778
   7423SM  H20F 9801   3.622   5.880  15.145 -0.7016 -0.5463 -0.5517
   7423SM  H20G 9802   3.553   5.983  15.276 -1.5459 -0.6929  0.4218
   7423SM  C21F 9803   3.427   5.812  15.200 -0.1356  0.0609 -0.4390
   7423SM  H21F 9804   3.347   5.833  15.274  0.2757  0.6811 -0.1633
   7423SM  H21G 9805   3.438   5.701  15.195  0.1807  0.0021  1.1633
   7423SM  C22F 9806   3.375   5.853  15.057  0.0077 -0.4249 -0.1513
   7423SM  H22F 9807   3.457   5.823  14.987  0.4221 -1.2039  0.6503
   7423SM  H22G 9808   3.367   5.964  15.062 -1.5566 -0.5661  0.8510
   7423SM  C23F 9809   3.249   5.778  15.009 -0.0844 -0.1038 -0.3551
   7423SM  H23F 9810   3.275   5.686  14.953 -0.0052  0.2567 -0.9238
   7423SM  H23G 9811   3.178   5.846  14.957  0.9321  0.5418 -0.9427
   7423SM  H23H 9812   3.199   5.750  15.104  2.7811 -0.1266  1.2783
   7523SM     N 9813   2.298   6.316  18.242  0.0681 -0.6353 -0.1409
   7523SM   C15 9814   2.443   6.337  18.270 -0.0547  0.3279 -0.4637
   7523SM  H15A 9815   2.485   6.429  18.230 -1.9064  0.9218 -1.1481
   7523SM  H15B 9816   2.504   6.263  18.219 -1.4192 -1.9280  1.0379
   7523SM  H15C 9817   2.461   6.327  18.376  3.8805 -2.7948 -1.1742
   7523SM   C14 9818   2.256   6.185  18.304 -0.2677  0.1700 -0.5722
   7523SM  H14A 9819   2.149   6.174  18.306 -0.4203  1.4953  1.2920
   7523SM  H14B 9820   2.299   6.183  18.403 -0.9475  1.6275 -0.2185
   7523SM  H14C 9821   2.303   6.104  18.251 -1.4571 -1.0708  0.2281
   7523SM   C13 9822   2.232   6.427  18.318 -0.2824 -0.2629 -0.1686
   7523SM  H13A 9823   2.126   6.432  18.300 -0.6106  1.1487  1.8252
   7523SM  H13B 9824   2.275   6.521  18.286  2.5184 -1.0064  1.0790
   7523SM  H13C 9825   2.246   6.403  18.422 -0.3395 -3.2511 -0.7572
   7523SM   C12 9826   2.260   6.311  18.093 -0.1986 -0.2910 -0.1834
   7523SM  H12A 9827   2.155   6.289  18.087 -1.0144  3.3518 -1.7671
   7523SM  H12B 9828   2.310   6.227  18.046  3.6717  2.7488 -2.0220
   7523SM   C11 9829   2.296   6.426  18.001 -1.2949 -0.0593 -0.6857
   7523SM  H11A 9830   2.256   6.405  17.900 -1.5229 -1.2238 -0.3627
   7523SM  H11B 9831   2.406   6.438  17.997 -1.2045 -0.8733 -0.7814
   7523SM     P 9832   2.096   6.593  18.012  0.2063  0.2228 -0.0947
   7523SM   O13 9833   2.002   6.480  18.049  0.0455 -0.8814  0.1466
   7523SM   O14 9834   2.061   6.724  18.072  0.3309 -0.1144 -0.7635
   7523SM   O11 9835   2.099   6.601  17.855  0.2124 -0.2512  0.6989
   7523SM   O12 9836   2.237   6.552  18.050 -0.3259  0.1376 -0.0636
   7523SM   C1S 9837   2.203   6.667  17.781 -0.9337 -0.3018 -0.1796
   7523SM   H1S 9838   2.305   6.638  17.816 -0.6815  0.9089  0.1448
   7523SM   H1T 9839   2.198   6.777  17.798  2.0634  0.0232 -0.8323
   7523SM    NF 9840   2.291   6.726  17.555 -0.4430 -0.5714 -0.0081
   7523SM   HNF 9841   2.257   6.790  17.486  1.6873  0.9871  0.2687
   7523SM   C2S 9842   2.192   6.650  17.627  0.2993  0.2313 -0.4433
   7523SM   H2S 9843   2.209   6.541  17.613  1.1914 -0.2638  3.4144
   7523SM   C3S 9844   2.046   6.675  17.578 -0.3767 -0.0642  0.8148
   7523SM   H3S 9845   2.019   6.781  17.598 -0.8876 -0.4501  2.3055
   7523SM    O3 9846   1.949   6.617  17.655 -0.0776  0.1810  0.2774
   7523SM   HO3 9847   2.012   6.591  17.723  0.9798  2.1113  0.1075
   7523SM   C4S 9848   2.019   6.650  17.429  0.9549  0.2494  0.2785
   7523SM   H4S 9849   2.016   6.742  17.370 -3.3409  0.0578 -0.1264
   7523SM   C5S 9850   1.975   6.536  17.370  0.4988  0.1228  0.0352
   7523SM   H5S 9851   1.958   6.449  17.435  0.9722 -1.0318 -1.3502
   7523SM   C6S 9852   1.935   6.529  17.226  0.3015 -0.2034 -0.2245
   7523SM   H6S 9853   1.828   6.558  17.231  0.4098  0.3496 -0.8715
   7523SM   H6T 9854   1.956   6.424  17.200  0.5035 -1.1815  3.3699
   7523SM   C7S 9855   1.988   6.631  17.119  0.5342  0.1724 -1.0573
   7523SM   H7S 9856   2.098   6.634  17.134  0.4356  1.8454 -0.4460
   7523SM   H7T 9857   1.939   6.731  17.126  0.4159  0.2023 -2.1401
   7523SM   C8S 9858   1.966   6.578  16.984  0.2065 -0.7893  0.1635
   7523SM   H8S 9859   1.857   6.553  16.980 -0.2895  1.0097  1.3504
   7523SM   H8T 9860   2.028   6.488  16.961  0.6815 -0.5358  0.4427
   7523SM   C9S 9861   1.992   6.684  16.874  0.0714 -0.0912  0.1831
   7523SM   H9S 9862   2.097   6.715  16.895 -0.1231  0.3779  0.4577
   7523SM   H9T 9863   1.940   6.778  16.902  0.7534  0.4119 -0.1753
   7523SM  C10S 9864   1.980   6.638  16.732  0.3712  0.3357 -0.0306
   7523SM  H10S 9865   1.887   6.578  16.719  0.3488  0.4147 -0.2384
   7523SM  H10T 9866   2.066   6.568  16.719 -0.2124 -0.9560  2.4174
   7523SM  C11S 9867   1.968   6.746  16.625 -0.2186 -0.4884 -0.0649
   7523SM  H11S 9868   2.063   6.804  16.627 -0.0856 -0.6963 -0.2927
   7523SM  H11T 9869   1.884   6.816  16.645 -0.5120 -0.9982  0.5636
   7523SM  C12S 9870   1.951   6.691  16.485 -0.0513  0.2973 -0.1889
   7523SM  H12S 9871   1.881   6.605  16.485  0.8276 -0.5468  2.7844
   7523SM  H12T 9872   2.047   6.655  16.443 -0.2892 -0.8316  0.2204
   7523SM  C13S 9873   1.893   6.791  16.385  0.8568 -0.4147  0.2611
   7523SM  H13S 9874   1.796   6.834  16.418  0.5454 -0.2620 -0.8090
   7523SM  H13T 9875   1.873   6.728  16.295  0.3949  0.5656 -0.3446
   7523SM  C14S 9876   1.983   6.907  16.348 -0.2490 -0.8626 -0.0260
   7523SM  H14S 9877   2.079   6.862  16.314  0.0942  0.4079 -0.8135
   7523SM  H14T 9878   2.001   6.972  16.437 -1.3203  0.0577 -0.4501
   7523SM  C15S 9879   1.934   6.992  16.226 -0.0648  0.0519 -0.1626
   7523SM  H15S 9880   2.018   7.061  16.205  0.1358  0.1068  0.7770
   7523SM  H15T 9881   1.839   7.045  16.249 -1.0823 -2.5433  2.2387
   7523SM  C16S 9882   1.903   6.916  16.096 -0.0620  0.0138 -0.3103
   7523SM  H16S 9883   1.828   6.838  16.122 -0.7221  1.3340  1.9897
   7523SM  H16T 9884   1.991   6.859  16.058 -0.2680 -0.2299 -0.4268
   7523SM  C17S 9885   1.859   7.004  15.986  0.2345  0.9306 -0.1786
   7523SM  H17S 9886   1.933   7.077  15.946 -0.5890  1.3486 -0.9783
   7523SM  H17T 9887   1.777   7.068  16.025  0.2962 -0.1176  1.7784
   7523SM  C18S 9888   1.788   6.926  15.874 -0.2423 -0.1625  0.0667
   7523SM  H18S 9889   1.858   6.856  15.823 -1.3605  0.0307 -1.8656
   7523SM  H18T 9890   1.736   6.996  15.805  1.6323  0.3871 -0.8554
   7523SM  H18U 9891   1.714   6.862  15.926  0.1026  1.1564  2.2792
   7523SM   C1F 9892   2.424   6.714  17.561  0.2493  0.1586  0.2321
   7523SM    OF 9893   2.475   6.619  17.615  0.4490  0.1649  0.2732
   7523SM   C2F 9894   2.507   6.808  17.480 -0.3019 -0.1056 -0.9445
   7523SM   H2F 9895   2.488   6.912  17.516  0.3473  0.0755 -1.1048
   7523SM   H2G 9896   2.486   6.790  17.372  0.6487 -2.0259 -0.8498
   7523SM   C3F 9897   2.664   6.779  17.506  0.4961 -0.3326  0.2227
   7523SM   H3F 9898   2.696   6.682  17.461  1.1083  0.2520 -0.6359
   7523SM   H3G 9899   2.683   6.771  17.616 -0.4442 -0.9580  0.3447
   7523SM   C4F 9900   2.760   6.890  17.458  0.5995 -0.3105  0.3525
   7523SM   H4F 9901   2.866   6.865  17.477  0.3643 -0.4196  1.6731
   7523SM   H4G 9902   2.744   6.984  17.515 -0.4606 -0.1292 -0.2208
   7523SM   C5F 9903   2.759   6.930  17.304  0.4170  0.3151 -0.0883
   7523SM   H5F 9904   2.832   7.011  17.285  1.6833 -0.6760  0.3524
   7523SM   H5G 9905   2.655   6.960  17.279  0.4292 -1.4003 -2.5294
   7523SM   C6F 9906   2.782   6.811  17.221 -0.1093  0.5485  0.4732
   7523SM   H6F 9907   2.701   6.737  17.237 -0.8178  1.9524  4.2363
   7523SM   H6G 9908   2.881   6.760  17.228 -0.0758  0.1274 -1.9663
   7523SM   C7F 9909   2.779   6.858  17.071 -0.0294 -0.3374  0.1694
   7523SM   H7F 9910   2.838   6.950  17.048  1.1118 -0.6408  1.7271
   7523SM   H7G 9911   2.675   6.881  17.038  0.8503  1.6302 -1.4279
   7523SM   C8F 9912   2.837   6.748  16.984 -0.0993  0.2610 -0.1656
   7523SM   H8F 9913   2.767   6.664  17.007  1.5016 -0.6847  1.5703
   7523SM   H8G 9914   2.945   6.726  16.996  0.2370  1.6100 -0.6251
   7523SM   C9F 9915   2.815   6.784  16.832 -0.2828  0.0039 -0.5377
   7523SM   H9F 9916   2.720   6.838  16.810 -0.1481 -0.6337 -2.9726
   7523SM   H9G 9917   2.815   6.685  16.782  0.8144 -0.3912  0.2118
   7523SM  C10F 9918   2.936   6.863  16.781  0.1912 -0.9366  0.1245
   7523SM  H10F 9919   3.036   6.815  16.790  0.5923 -0.1855 -0.2527
   7523SM  H10G 9920   2.936   6.950  16.850  0.5758 -1.4769  0.8161
   7523SM  C11F 9921   2.918   6.920  16.640 -0.1479 -0.1249  0.2350
   7523SM  H11F 9922   3.021   6.947  16.608  0.8589  0.7683  3.7841
   7523SM  H11G 9923   2.845   7.003  16.631 -0.2793 -0.0601  1.7247
   7523SM  C12F 9924   2.892   6.815  16.528  0.7824  0.6801 -0.6508
   7523SM  H12F 9925   2.790   6.771  16.540  2.6283 -3.7644  1.0800
   7523SM  H12G 9926   2.958   6.728  16.548 -0.2643 -0.5186 -2.1567
   7523SM  C13F 9927   2.905   6.856  16.379 -0.1851 -0.1492  0.4515
   7523SM  H13F 9928   3.014   6.862  16.357 -0.3719  3.2373 -0.1675
   7523SM  H13G 9929   2.871   6.962  16.376 -1.9236 -0.5888  2.1738
   7523SM  C14F 9930   2.816   6.772  16.283 -0.1826  0.4722 -0.3120
   7523SM  H14F 9931   2.711   6.754  16.313  0.1269 -1.9020 -0.4494
   7523SM  H14G 9932   2.850   6.667  16.275 -1.6383 -0.0986  0.7064
   7523SM  C15F 9933   2.818   6.843  16.148  0.6174 -0.7325 -0.5194
   7523SM  H15F 9934   2.915   6.895  16.129  1.3194 -1.0528  1.7975
   7523SM  H15G 9935   2.739   6.919  16.166  0.3972 -1.1035  0.1213
   7523SM  C16F 9936   2.778   6.760  16.028 -0.5130 -0.9748 -0.2467
   7523SM  H16F 9937   2.671   6.730  16.035 -1.1801  1.4359  1.1473
   7523SM  H16G 9938   2.848   6.674  16.029 -0.0567 -0.6351  1.6610
   7523SM  C17F 9939   2.777   6.836  15.897 -0.3823  0.1819  0.3858
   7523SM  H17F 9940   2.876   6.881  15.871  1.2993 -2.4129  1.8774
   7523SM  H17G 9941   2.706   6.921  15.896 -0.6299 -0.0261  0.3841
   7523SM  C18F 9942   2.737   6.744  15.781  0.1677 -0.9712 -0.1781
   7523SM  H18F 9943   2.639   6.702  15.812  0.5741 -0.7319  1.5779
   7523SM  H18G 9944   2.814   6.664  15.775  0.1526 -0.9093 -1.2220
   7523SM  C19F 9945   2.724   6.806  15.641  0.4729  0.5263 -0.5326
   7523SM  H19F 9946   2.814   6.870  15.627  0.6556  0.2200 -0.7725
   7523SM  H19G 9947   2.630   6.865  15.632 -0.1376 -0.2950  0.2497
   7523SM  C20F 9948   2.710   6.693  15.536 -0.3901  0.2311  0.0271
   7523SM  H20F 9949   2.648   6.613  15.581 -1.7245  0.0208 -2.0301
   7523SM  H20G 9950   2.811   6.655  15.509 -0.6944 -0.7552  0.2422
   7523SM  C21F 9951   2.658   6.735  15.393 -0.0707 -0.4182 -0.3259
   7523SM  H21F 9952   2.730   6.812  15.358 -0.0553 -0.4901 -0.4530
   7523SM  H21G 9953   2.557   6.780  15.409 -0.1154  0.1578 -2.0241
   7523SM  C22F 9954   2.657   6.613  15.302 -0.4849  0.1700  0.3223
   7523SM  H22F 9955   2.585   6.537  15.336  0.2084 -1.3154 -1.3663
   7523SM  H22G 9956   2.752   6.556  15.302 -0.1737  0.5707  2.8990
   7523SM  C23F 9957   2.631   6.655  15.159  0.6245 -0.1508 -0.1222
   7523SM  H23F 9958   2.706   6.733  15.132 -0.5773  1.0710 -0.0729
   7523SM  H23G 9959   2.530   6.700  15.158  1.7247  2.8395  3.2256
   7523SM  H23H 9960   2.637   6.568  15.090 -2.4399 -1.4984  1.1470
   7623SM     N 9961   4.019   0.552  18.065  0.4497  0.7958  0.6504
   7623SM   C15 9962   4.062   0.603  18.208 -0.1135 -0.2656  0.4697
   7623SM  H15A 9963   3.979   0.657  18.251 -1.1466 -0.5943 -1.0292
   7623SM  H15B 9964   4.144   0.670  18.188  0.5665 -1.1733  0.1162
   7623SM  H15C 9965   4.095   0.528  18.278 -0.2824 -0.0689  0.7633
   7623SM   C14 9966   3.914   0.449  18.084 -0.2722 -0.1482 -0.0598
   7623SM  H14A 9967   3.956   0.359  18.127  0.9337  0.9153  1.0967
   7623SM  H14B 9968   3.856   0.426  17.996 -0.9588 -0.2708  0.4144
   7623SM  H14C 9969   3.840   0.483  18.155 -0.8686  0.1073 -0.8027
   7623SM   C13 9970   3.978   0.670  17.988  0.0202 -0.1396  0.4841
   7623SM  H13A 9971   3.951   0.644  17.887  0.0669 -1.2731  0.7487
   7623SM  H13B 9972   4.062   0.738  17.984  1.7900 -2.2280 -0.1182
   7623SM  H13C 9973   3.889   0.718  18.024  0.1656 -0.7481  1.6858
   7623SM   C12 9974   4.138   0.488  17.991 -0.1534 -0.3855 -0.4588
   7623SM  H12A 9975   4.187   0.428  18.066  1.8674 -0.1961 -1.5564
   7623SM  H12B 9976   4.204   0.563  17.950 -0.2363 -1.6094 -3.0433
   7623SM   C11 9977   4.109   0.403  17.868 -0.0172  0.0560 -0.5565
   7623SM  H11A 9978   4.020   0.448  17.819 -0.1810  0.4970  0.1301
   7623SM  H11B 9979   4.066   0.303  17.892  0.2708  0.2059  0.6722
   7623SM     P 9980   4.319   0.284  17.795 -0.6278  0.6522  0.4111
   7623SM   O13 9981   4.441   0.321  17.715 -0.4061  0.7307 -0.1470
   7623SM   O14 9982   4.340   0.254  17.938 -0.3300  0.0793  0.2997
   7623SM   O11 9983   4.249   0.163  17.730 -0.0702  0.4885 -0.0687
   7623SM   O12 9984   4.217   0.405  17.773 -0.1965  0.6005  0.2539
   7623SM   C1S 9985   4.157   0.170  17.622 -0.5708  0.2932 -0.2096
   7623SM   H1S 9986   4.079   0.243  17.654 -1.4903 -0.7193 -0.0435
   7623SM   H1T 9987   4.111   0.069  17.621  1.4873 -0.7392  1.3491
   7623SM    NF 9988   4.112   0.201  17.386 -0.7947 -0.3273 -0.4693
   7623SM   HNF 9989   4.119   0.134  17.313  0.4401 -0.4647 -0.2426
   7623SM   C2S 9990   4.219   0.189  17.484  0.5107  0.0022  0.8048
   7623SM   H2S 9991   4.278   0.283  17.482 -0.4860  0.6499  1.1604
   7623SM   C3S 9992   4.320   0.074  17.449 -1.3926  0.0782  0.6121
   7623SM   H3S 9993   4.270  -0.024  17.461  0.2554 -0.9229 -0.2484
   7623SM    O3 9994   4.439   0.060  17.529  0.9219 -0.1929  0.2381
   7623SM   HO3 9995   4.420   0.129  17.594 -1.7887 -2.3111  1.9301
   7623SM   C4S 9996   4.360   0.092  17.303 -0.9234  0.6697 -0.1733
   7623SM   H4S 9997   4.405   0.191  17.285 -1.6625  0.8018 -1.4573
   7623SM   C5S 9998   4.361  -0.004  17.205 -0.3638 -0.5529  0.3688
   7623SM   H5S 9999   4.344  -0.109  17.233  0.4443 -0.7678  0.0882
   7623SM   C6S10000   4.420   0.029  17.068  0.1462  0.7175 -0.5115
   7623SM   H6S10001   4.422   0.138  17.047 -2.7174  0.8876 -0.3345
   7623SM   H6T10002   4.362  -0.022  16.987  0.4007 -1.3467  0.5455
   7623SM   C7S10003   4.560  -0.022  17.057 -0.5748 -0.4617  0.2681
   7623SM   H7S10004   4.571  -0.132  17.065 -0.8129 -0.4970  0.1256
   7623SM   H7T10005   4.615   0.028  17.140  0.4339  0.3713 -0.8565
   7623SM   C8S10006   4.629   0.025  16.931 -0.0406  0.4848 -0.0249
   7623SM   H8S10007   4.728  -0.026  16.931 -1.4969 -2.5703 -0.1942
   7623SM   H8T10008   4.643   0.135  16.939  0.8951  0.2417  2.7031
   7623SM   C9S10009   4.550  -0.007  16.800 -0.2932  0.7548  0.0637
   7623SM   H9S10010   4.462   0.060  16.799 -0.1308  1.0141  1.3676
   7623SM   H9T10011   4.511  -0.108  16.827  1.4816  0.0653  0.2146
   7623SM  C10S10012   4.624  -0.023  16.662  0.3266 -0.2645  0.3680
   7623SM  H10S10013   4.692  -0.110  16.680  1.3543  0.2742 -0.7643
   7623SM  H10T10014   4.682   0.069  16.642 -1.2833  0.1389 -3.1491
   7623SM  C11S10015   4.533  -0.054  16.536 -0.5834  0.2802 -0.2207
   7623SM  H11S10016   4.448   0.018  16.537 -2.1615 -1.5048 -0.8488
   7623SM  H11T10017   4.492  -0.156  16.548  1.5159 -0.6441 -0.4609
   7623SM  C12S10018   4.610  -0.043  16.407  0.3314  0.3067  0.5353
   7623SM  H12S10019   4.682  -0.127  16.399  0.5243  0.4092  1.2118
   7623SM  H12T10020   4.662   0.055  16.407 -1.0739  1.0832  0.4749
   7623SM  C13S10021   4.523  -0.046  16.276  0.4971  0.4431 -0.3800
   7623SM  H13S10022   4.455   0.041  16.262 -2.2467 -0.8787  3.1992
   7623SM  H13T10023   4.456  -0.131  16.299 -0.4074  1.6657  1.8227
   7623SM  C14S10024   4.603  -0.073  16.147  0.5030  0.5116 -0.3704
   7623SM  H14S10025   4.674  -0.153  16.177 -1.5727  0.2305  4.7793
   7623SM  H14T10026   4.666   0.014  16.118 -0.8973  1.4837 -0.6298
   7623SM  C15S10027   4.510  -0.118  16.028 -0.3431 -0.5120  0.6168
   7623SM  H15S10028   4.426  -0.046  16.013  0.4245  0.2112 -0.3320
   7623SM  H15T10029   4.472  -0.218  16.059 -0.1068 -0.9151 -0.3564
   7623SM  C16S10030   4.587  -0.140  15.894 -0.2377  0.3072 -1.2021
   7623SM  H16S10031   4.647  -0.231  15.912 -2.6686 -1.1407 -0.0055
   7623SM  H16T10032   4.664  -0.060  15.884 -0.8433  1.0066 -0.4356
   7623SM  C17S10033   4.501  -0.180  15.778  0.8732 -0.5900  0.9049
   7623SM  H17S10034   4.440  -0.089  15.757 -1.0098 -1.6484  1.5454
   7623SM  H17T10035   4.423  -0.253  15.808  1.7178 -1.2652  1.5123
   7623SM  C18S10036   4.583  -0.207  15.653  0.0144 -0.0055 -0.3749
   7623SM  H18S10037   4.514  -0.224  15.568  1.8022  2.8202 -2.5699
   7623SM  H18T10038   4.651  -0.291  15.680  1.1502 -0.0198 -2.9530
   7623SM  H18U10039   4.639  -0.118  15.619  0.0546 -0.5644 -1.8801
   7623SM   C1F10040   4.008   0.285  17.382  1.1180  0.8044 -0.3199
   7623SM    OF10041   3.984   0.363  17.474  0.3417 -0.0661  0.1529
   7623SM   C2F10042   3.934   0.295  17.261  0.2347 -0.1888  0.0024
   7623SM   H2F10043   3.920   0.404  17.242  0.9591  0.1914  1.4736
   7623SM   H2G10044   3.830   0.262  17.281 -0.2585  0.9710 -0.5367
   7623SM   C3F10045   3.996   0.223  17.146  0.9730  0.2298  0.2541
   7623SM   H3F10046   3.997   0.113  17.157  2.9834 -0.0343 -1.9335
   7623SM   H3G10047   4.098   0.264  17.133  1.5442  0.0148  3.3470
   7623SM   C4F10048   3.922   0.240  17.011 -0.3863 -0.0578  0.2959
   7623SM   H4F10049   3.935   0.345  16.976 -0.9896  0.5365  1.7722
   7623SM   H4G10050   3.815   0.216  17.031 -0.3795  0.1421  0.5923
   7623SM   C5F10051   3.988   0.141  16.910 -0.1985 -0.0317 -0.0569
   7623SM   H5F10052   3.964   0.046  16.962 -0.7710 -0.0529 -0.3514
   7623SM   H5G10053   4.098   0.149  16.915 -0.1639  0.9074 -1.5608
   7623SM   C6F10054   3.937   0.145  16.769 -0.1468  0.0301  0.4656
   7623SM   H6F10055   3.931   0.250  16.733 -0.4048 -0.3714 -0.7026
   7623SM   H6G10056   3.832   0.110  16.766  0.0154 -0.6193  1.8249
   7623SM   C7F10057   4.021   0.071  16.664 -0.0296  0.0417  0.1883
   7623SM   H7F10058   4.024  -0.037  16.690  1.1567  0.6370  2.8580
   7623SM   H7G10059   4.124   0.110  16.676 -0.7074  1.6403  1.1655
   7623SM   C8F10060   3.971   0.089  16.519  0.2495  1.3270  0.7827
   7623SM   H8F10061   3.961   0.197  16.494  0.9047  1.1607 -0.2225
   7623SM   H8G10062   3.873   0.042  16.499  0.2808  2.5206 -2.8450
   7623SM   C9F10063   4.070   0.028  16.419 -0.3420 -0.4409  0.4822
   7623SM   H9F10064   4.080  -0.083  16.423 -2.5101 -0.7752 -1.2640
   7623SM   H9G10065   4.165   0.079  16.445 -0.3490 -0.7477  1.1318
   7623SM  C10F10066   4.035   0.065  16.279 -0.6008  0.6206 -0.8774
   7623SM  H10F10067   4.053   0.171  16.251 -0.1954  0.3187 -1.8047
   7623SM  H10G10068   3.929   0.053  16.249 -0.8134 -0.4138  0.2116
   7623SM  C11F10069   4.113  -0.021  16.177 -0.4572  0.9543 -0.0797
   7623SM  H11F10070   4.117  -0.130  16.199 -1.5706  0.2260 -2.9661
   7623SM  H11G10071   4.218   0.015  16.180  0.7852 -2.1059 -2.0190
   7623SM  C12F10072   4.058  -0.003  16.036 -0.6475 -0.2798  0.3402
   7623SM  H12F10073   4.076   0.102  16.005  0.5595 -0.1399  1.4076
   7623SM  H12G10074   3.949  -0.023  16.031 -0.2987 -1.9456 -1.9021
   7623SM  C13F10075   4.123  -0.088  15.919  0.4286  0.3286 -0.7640
   7623SM  H13F10076   4.147  -0.193  15.948  0.7717  0.2847 -1.1963
   7623SM  H13G10077   4.222  -0.046  15.893  0.7892 -0.6167 -0.9874
   7623SM  C14F10078   4.041  -0.109  15.793  0.1108 -0.0345 -1.0479
   7623SM  H14F10079   3.935  -0.111  15.825  0.4376 -0.7353  0.0786
   7623SM  H14G10080   4.061  -0.206  15.742 -1.0949 -1.2741  0.7293
   7623SM  C15F10081   4.059  -0.002  15.686 -0.0192  0.8521  0.4503
   7623SM  H15F10082   4.159   0.006  15.637 -1.1870  1.3307 -1.9938
   7623SM  H15G10083   4.037   0.099  15.727  3.5178  1.4093  1.3273
   7623SM  C16F10084   3.958  -0.021  15.567 -0.1755 -0.3738 -0.0582
   7623SM  H16F10085   3.858  -0.026  15.616  0.7428 -2.0413  1.7736
   7623SM  H16G10086   3.988  -0.117  15.519 -1.5980 -1.2090  0.6630
   7623SM  C17F10087   3.958   0.097  15.462 -0.4136  0.4147  0.2688
   7623SM  H17F10088   4.047   0.107  15.397 -0.8538  0.0795 -0.3973
   7623SM  H17G10089   3.951   0.191  15.520  0.8364 -0.0372  1.2001
   7623SM  C18F10090   3.845   0.075  15.356 -0.2195 -0.4021 -0.0971
   7623SM  H18F10091   3.743   0.085  15.398  0.5219  2.6770  1.2921
   7623SM  H18G10092   3.855  -0.026  15.311 -2.3349 -0.7750  0.2105
   7623SM  C19F10093   3.844   0.189  15.248  0.0119 -0.0849  0.1566
   7623SM  H19F10094   3.944   0.204  15.202 -1.8065  1.9117 -3.5556
   7623SM  H19G10095   3.811   0.281  15.301 -2.2697 -0.3158 -0.7430
   7623SM  C20F10096   3.748   0.152  15.131 -0.5544 -0.1131  0.3651
   7623SM  H20F10097   3.646   0.169  15.171 -0.5446 -0.1868  0.4204
   7623SM  H20G10098   3.753   0.042  15.120  1.3447  0.0463 -0.9681
   7623SM  C21F10099   3.790   0.235  15.004 -0.4672 -0.6960 -0.6836
   7623SM  H21F10100   3.900   0.222  14.991 -0.3008  0.2768 -0.3273
   7623SM  H21G10101   3.776   0.345  15.011 -0.3054 -0.5933 -1.8720
   7623SM  C22F10102   3.725   0.178  14.875 -0.5847 -0.1020  0.2190
   7623SM  H22F10103   3.745   0.069  14.876 -0.0324 -0.0084 -0.1358
   7623SM  H22G10104   3.802   0.212  14.802  1.1285 -2.8510  0.6296
   7623SM  C23F10105   3.583   0.220  14.834 -0.1417  0.9475 -0.1255
   7623SM  H23F10106   3.559   0.187  14.731 -0.3705  1.2384 -0.1653
   7623SM  H23G10107   3.580   0.331  14.832 -1.2260  0.9395 -3.2431
   7623SM  H23H10108   3.508   0.190  14.910 -0.5082  1.6275 -0.2145
   7723SM     N10109   3.446   3.680  18.281  0.0975 -0.1617 -0.2932
   7723SM   C1510110   3.437   3.828  18.265 -0.7946 -0.7388  0.4010
   7723SM  H15A10111   3.402   3.861  18.169  0.2029 -0.7351  0.0278
   7723SM  H15B10112   3.533   3.873  18.284 -0.6776 -0.4749 -0.7460
   7723SM  H15C10113   3.357   3.872  18.322  1.5189  3.3941  0.8508
   7723SM   C1410114   3.474   3.657  18.427 -0.9909 -0.1686 -0.0169
   7723SM  H14A10115   3.561   3.713  18.459 -0.6480 -1.8051  2.1146
   7723SM  H14B10116   3.501   3.557  18.456  1.2060  0.2828 -0.3177
   7723SM  H14C10117   3.392   3.685  18.492  0.7810 -0.0494  2.3013
   7723SM   C1310118   3.314   3.624  18.245  0.3576 -0.0487  1.3108
   7723SM  H13A10119   3.266   3.681  18.166  0.6241 -1.5207  0.0282
   7723SM  H13B10120   3.251   3.630  18.333  0.0946  0.9643  1.0645
   7723SM  H13C10121   3.314   3.519  18.218  0.8499  0.3330 -0.2528
   7723SM   C1210122   3.557   3.628  18.194  0.2498 -0.1970  0.6465
   7723SM  H12A10123   3.561   3.521  18.210 -0.5482 -0.1869  0.9678
   7723SM  H12B10124   3.649   3.676  18.223  0.2818 -0.2200  0.5812
   7723SM   C1110125   3.540   3.644  18.039 -0.3863  0.0712  0.3954
   7723SM  H11A10126   3.447   3.592  18.009 -0.9359  0.7856  0.8266
   7723SM  H11B10127   3.628   3.587  18.001 -0.8557  0.9825 -2.2147
   7723SM     P10128   3.657   3.860  17.945 -0.0558  0.2755  0.0421
   7723SM   O1310129   3.606   3.988  17.891 -0.0453 -0.0281 -0.0267
   7723SM   O1410130   3.766   3.859  18.047  0.4366 -0.1653  0.0196
   7723SM   O1110131   3.719   3.778  17.824 -0.2604  0.0393  0.0830
   7723SM   O1210132   3.533   3.779  17.992 -0.4042  0.0046 -0.2849
   7723SM   C1S10133   3.634   3.742  17.715 -0.2700  0.2021 -0.3578
   7723SM   H1S10134   3.535   3.792  17.712 -0.5951  0.0000  3.0739
   7723SM   H1T10135   3.615   3.634  17.729 -0.3743  0.1870 -0.6104
   7723SM    NF10136   3.604   3.725  17.467 -0.3271 -0.3506 -0.0503
   7723SM   HNF10137   3.611   3.628  17.445  1.9751 -0.4475  0.8687
   7723SM   C2S10138   3.697   3.766  17.570  0.7640  0.1272  0.7645
   7723SM   H2S10139   3.727   3.872  17.559  1.4405 -0.0076  1.3031
   7723SM   C3S10140   3.835   3.699  17.558  0.3554 -0.6074 -0.2001
   7723SM   H3S10141   3.817   3.590  17.567 -1.0410 -0.3986 -0.2126
   7723SM    O310142   3.931   3.731  17.662  0.0623  0.3570  0.2652
   7723SM   HO310143   3.880   3.770  17.734  0.4593 -1.5708  1.6591
   7723SM   C4S10144   3.885   3.714  17.414  0.3881 -0.2371 -0.0204
   7723SM   H4S10145   3.825   3.663  17.337 -0.7064  0.4895  0.3309
   7723SM   C5S10146   3.998   3.772  17.376 -0.0245 -0.3668  0.7883
   7723SM   H5S10147   4.061   3.814  17.456 -0.0185  3.1904 -0.8500
   7723SM   C6S10148   4.049   3.793  17.233  0.2416  0.2051 -0.0344
   7723SM   H6S10149   4.115   3.708  17.207  0.4071  0.6086 -0.9909
   7723SM   H6T10150   4.111   3.886  17.233 -0.3980  0.6411  0.0197
   7723SM   C7S10151   3.943   3.793  17.120  0.1561  0.0219  0.0328
   7723SM   H7S10152   3.847   3.844  17.142  0.2875  2.0000 -3.2704
   7723SM   H7T10153   3.918   3.686  17.101 -0.4311  0.1297  0.2013
   7723SM   C8S10154   4.013   3.842  16.991 -0.0619  0.0162 -0.2349
   7723SM   H8S10155   4.107   3.786  16.971 -1.0702 -1.6078 -0.6875
   7723SM   H8T10156   4.038   3.950  16.997  0.7571 -0.2361  1.3778
   7723SM   C9S10157   3.916   3.825  16.870 -0.7080  0.7517  0.5021
   7723SM   H9S10158   3.828   3.886  16.902 -0.7238  0.1129  1.7600
   7723SM   H9T10159   3.874   3.722  16.875  1.3634 -0.1273  0.7537
   7723SM  C10S10160   3.969   3.847  16.726  0.8653 -0.1089  0.6922
   7723SM  H10S10161   4.073   3.808  16.720  0.3749 -1.5139  0.8974
   7723SM  H10T10162   3.991   3.956  16.718  0.2234  0.2148  2.7483
   7723SM  C11S10163   3.892   3.780  16.612 -0.7853 -0.5228  0.6097
   7723SM  H11S10164   3.789   3.822  16.613 -1.2568 -1.6043 -0.0858
   7723SM  H11T10165   3.891   3.669  16.624  0.7371 -0.8778 -1.8259
   7723SM  C12S10166   3.956   3.813  16.473  0.0978 -0.4980  0.8651
   7723SM  H12S10167   4.066   3.795  16.470  0.3135  0.4201  2.3640
   7723SM  H12T10168   3.932   3.921  16.460 -1.8798 -1.2021 -2.5783
   7723SM  C13S10169   3.892   3.748  16.348  0.4234  0.0385 -0.0145
   7723SM  H13S10170   3.782   3.762  16.341 -0.1983 -3.0120  1.7946
   7723SM  H13T10171   3.911   3.638  16.349 -3.7716 -0.8929  2.7765
   7723SM  C14S10172   3.948   3.812  16.222 -0.8344 -0.2602  0.5056
   7723SM  H14S10173   4.057   3.802  16.204 -0.5722  0.7167  1.4447
   7723SM  H14T10174   3.929   3.921  16.235  0.5270  0.0788 -0.1560
   7723SM  C15S10175   3.879   3.779  16.088 -0.0402  0.4638  0.1909
   7723SM  H15S10176   3.886   3.873  16.029 -2.4469  1.4014  1.2633
   7723SM  H15T10177   3.773   3.748  16.095  0.3915 -1.3958 -0.8055
   7723SM  C16S10178   3.955   3.667  16.005  0.4416  0.0650 -0.6084
   7723SM  H16S10179   3.959   3.567  16.053 -1.1633 -0.6446 -1.8254
   7723SM  H16T10180   4.063   3.693  16.000  0.5455 -0.1409  0.3423
   7723SM  C17S10181   3.891   3.646  15.871 -0.3203 -0.5446  0.2547
   7723SM  H17S10182   3.780   3.646  15.878 -0.3910 -1.1367 -0.6350
   7723SM  H17T10183   3.923   3.550  15.825  2.0980  1.4933 -2.7387
   7723SM  C18S10184   3.923   3.749  15.761  0.0603 -0.2057 -0.3821
   7723SM  H18S10185   3.939   3.849  15.807 -3.4256 -0.6610  2.2727
   7723SM  H18T10186   3.843   3.753  15.684 -0.1159 -0.8919 -0.2405
   7723SM  H18U10187   4.021   3.715  15.722  0.0942  0.8182 -1.2499
   7723SM   C1F10188   3.499   3.799  17.421 -0.0274  0.1574 -0.6755
   7723SM    OF10189   3.464   3.907  17.472 -0.1135  0.3404  0.1738
   7723SM   C2F10190   3.423   3.732  17.309  0.1448  0.0591  0.0159
   7723SM   H2F10191   3.320   3.730  17.350  0.1758  3.4562  0.5219
   7723SM   H2G10192   3.468   3.633  17.286 -0.3718 -0.3086  0.5519
   7723SM   C3F10193   3.412   3.815  17.181  0.1738 -1.2131  0.0172
   7723SM   H3F10194   3.394   3.915  17.226  0.2330 -0.3438 -1.7826
   7723SM   H3G10195   3.318   3.794  17.126 -0.4375  0.6217  0.2782
   7723SM   C4F10196   3.534   3.819  17.087  0.3693 -0.5494  0.1040
   7723SM   H4F10197   3.626   3.831  17.148  1.9223  3.7750 -2.5969
   7723SM   H4G10198   3.523   3.911  17.025 -0.4759 -0.2975  0.6090
   7723SM   C5F10199   3.542   3.705  16.995  0.2364 -0.0779  0.3682
   7723SM   H5F10200   3.535   3.604  17.039  4.0326 -0.5482  0.1860
   7723SM   H5G10201   3.644   3.718  16.952  0.1001  1.0657  0.3510
   7723SM   C6F10202   3.443   3.696  16.873 -0.3366 -0.3259  0.1693
   7723SM   H6F10203   3.424   3.802  16.847 -0.4079 -0.2443  0.5467
   7723SM   H6G10204   3.350   3.651  16.915 -0.5643  1.9171  2.2996
   7723SM   C7F10205   3.498   3.607  16.761  0.4370 -0.6788 -0.6054
   7723SM   H7F10206   3.477   3.503  16.792 -0.0303 -1.0440 -2.0387
   7723SM   H7G10207   3.601   3.632  16.729  0.1596  0.2124 -0.8478
   7723SM   C8F10208   3.420   3.631  16.627  0.5398 -0.6485 -0.1883
   7723SM   H8F10209   3.434   3.739  16.606  0.6638 -0.5788  0.2327
   7723SM   H8G10210   3.320   3.584  16.633  0.2229  0.1596  1.9026
   7723SM   C9F10211   3.486   3.560  16.510  0.2244 -0.4896 -0.4531
   7723SM   H9F10212   3.485   3.450  16.529  2.3875 -0.4285  0.3294
   7723SM   H9G10213   3.593   3.581  16.490 -0.1127  2.3440  0.4136
   7723SM  C10F10214   3.415   3.585  16.379  0.2527  0.1204  0.0373
   7723SM  H10F10215   3.402   3.695  16.367  0.3807  0.1842  0.4657
   7723SM  H10G10216   3.310   3.550  16.370  0.5670 -0.4142 -1.9230
   7723SM  C11F10217   3.487   3.542  16.248  0.3041  0.9022  0.0860
   7723SM  H11F10218   3.496   3.432  16.257 -0.1058  0.9777  1.6621
   7723SM  H11G10219   3.588   3.588  16.252  0.0631  1.3848  2.9962
   7723SM  C12F10220   3.422   3.584  16.124  0.4642  0.0400  0.5405
   7723SM  H12F10221   3.407   3.694  16.129  0.5985  0.1182 -0.6584
   7723SM  H12G10222   3.322   3.537  16.112  0.0121  1.5128 -2.0661
   7723SM  C13F10223   3.497   3.553  15.998 -0.4809  0.7320  0.1140
   7723SM  H13F10224   3.518   3.445  16.014  1.5599  1.0187 -0.2739
   7723SM  H13G10225   3.597   3.599  15.979  0.1479 -1.2679 -2.1390
   7723SM  C14F10226   3.409   3.556  15.870  0.1496 -0.7459 -1.0929
   7723SM  H14F10227   3.371   3.660  15.858 -0.0606 -0.7626 -0.6128
   7723SM  H14G10228   3.325   3.488  15.893  1.7804 -2.5179 -0.0291
   7723SM  C15F10229   3.473   3.513  15.741 -0.4229 -0.4523 -0.2516
   7723SM  H15F10230   3.533   3.595  15.697  0.8206 -2.2385 -2.1091
   7723SM  H15G10231   3.406   3.488  15.656 -1.8779  1.0259  0.4096
   7723SM  C16F10232   3.566   3.391  15.759 -0.6601  0.7076  0.4233
   7723SM  H16F10233   3.502   3.309  15.799 -0.1185 -1.8546 -3.3936
   7723SM  H16G10234   3.647   3.415  15.831  0.3937 -0.1195 -0.4558
   7723SM  C17F10235   3.630   3.325  15.632  0.5106  0.0231 -0.4694
   7723SM  H17F10236   3.548   3.280  15.572  1.3892 -2.5022  0.0970
   7723SM  H17G10237   3.680   3.229  15.659 -0.3015  0.3195  2.3754
   7723SM  C18F10238   3.723   3.422  15.556 -0.4424  0.7107  0.2258
   7723SM  H18F10239   3.790   3.469  15.632 -0.5044 -1.0560  1.4338
   7723SM  H18G10240   3.675   3.518  15.525 -0.3087  0.8368  0.4051
   7723SM  C19F10241   3.802   3.369  15.436  0.7828 -0.3089  0.1413
   7723SM  H19F10242   3.824   3.462  15.379 -2.0920  1.5522  1.7609
   7723SM  H19G10243   3.736   3.299  15.381 -2.2860  1.7346  0.9006
   7723SM  C20F10244   3.929   3.297  15.465 -0.2752 -0.4429 -0.2494
   7723SM  H20F10245   3.893   3.192  15.471 -2.3663  0.2089 -0.5666
   7723SM  H20G10246   3.988   3.347  15.545  1.6169  0.6673 -2.2595
   7723SM  C21F10247   4.023   3.300  15.334 -0.4940  0.2630  0.4235
   7723SM  H21F10248   4.079   3.396  15.334  0.6256 -0.3592 -0.1406
   7723SM  H21G10249   3.967   3.289  15.239  0.1343  1.0563 -0.0553
   7723SM  C22F10250   4.138   3.194  15.346  0.3301 -0.0789  0.1557
   7723SM  H22F10251   4.084   3.098  15.341 -0.4564  0.3445  0.4213
   7723SM  H22G10252   4.188   3.210  15.444  1.2192  1.3303 -0.4874
   7723SM  C23F10253   4.241   3.210  15.231 -0.6109  0.0841  0.4553
   7723SM  H23F10254   4.300   3.303  15.245  0.0252 -0.3414  0.6932
   7723SM  H23G10255   4.179   3.220  15.139 -2.5768  1.6494  1.8775
   7723SM  H23H10256   4.314   3.126  15.224  2.0325  2.2500  0.2510
   7823SM     N10257   4.740   2.657  17.573  0.0897  0.3056  1.2355
   7823SM   C1510258   4.890   2.668  17.563 -0.1911  0.5862  0.3286
   7823SM  H15A10259   4.939   2.685  17.658  1.1060 -2.8764  0.4256
   7823SM  H15B10260   4.927   2.748  17.500  0.1058 -0.0415 -0.3075
   7823SM  H15C10261   4.931   2.577  17.522  0.9352  1.3925 -0.4075
   7823SM   C1410262   4.673   2.770  17.647  0.0048  1.0950  0.1350
   7823SM  H14A10263   4.720   2.779  17.744  0.5482  1.7336 -0.1776
   7823SM  H14B10264   4.566   2.762  17.656 -0.1582  3.6338  1.4952
   7823SM  H14C10265   4.700   2.863  17.599 -1.0626  2.1164  1.4205
   7823SM   C1310266   4.683   2.664  17.436 -0.4422  0.7383 -0.1540
   7823SM  H13A10267   4.732   2.588  17.376 -0.6682  0.0300  0.5391
   7823SM  H13B10268   4.709   2.761  17.395  1.1804  0.1513 -0.6120
   7823SM  H13C10269   4.577   2.653  17.425 -0.3546  1.1298 -1.6167
   7823SM   C1210270   4.697   2.521  17.636 -0.0735  0.1048  1.0201
   7823SM  H12A10271   4.764   2.495  17.717 -1.7239  0.7294  2.6458
   7823SM  H12B10272   4.719   2.444  17.563 -0.8208  2.0748 -1.4162
   7823SM   C1110273   4.551   2.501  17.664  0.3231  0.2512 -0.2720
   7823SM  H11A10274   4.540   2.578  17.744  1.3413  0.1743 -0.0441
   7823SM  H11B10275   4.536   2.400  17.706 -0.3739  0.5874  0.3008
   7823SM     P10276   4.339   2.615  17.566 -0.4388  0.0712  0.1749
   7823SM   O1310277   4.218   2.531  17.573  0.2922 -0.4622 -0.2330
   7823SM   O1410278   4.368   2.710  17.679 -0.4400  0.4392  0.4851
   7823SM   O1110279   4.339   2.701  17.432  0.1427 -0.2618 -0.2448
   7823SM   O1210280   4.465   2.528  17.548 -0.4956 -0.6728  0.0541
   7823SM   C1S10281   4.349   2.640  17.303 -0.0958 -0.2811 -0.1759
   7823SM   H1S10282   4.258   2.577  17.290 -1.1371  1.4257 -1.5490
   7823SM   H1T10283   4.437   2.573  17.293 -1.5796 -2.0823 -1.9586
   7823SM    NF10284   4.303   2.676  17.059  0.4035 -0.1322  0.5295
   7823SM   HNF10285   4.375   2.632  17.007  1.5865  1.0166  1.1018
   7823SM   C2S10286   4.347   2.740  17.187 -0.4034 -0.3300  0.1485
   7823SM   H2S10287   4.268   2.815  17.207 -1.3399 -1.3102  0.2062
   7823SM   C3S10288   4.485   2.817  17.190 -0.0345 -0.4303  0.4370
   7823SM   H3S10289   4.556   2.732  17.181 -1.7230 -1.7630 -0.9429
   7823SM    O310290   4.530   2.882  17.314  0.2494 -0.1017 -0.2092
   7823SM   HO310291   4.471   2.844  17.380 -1.3023  0.6977 -1.0884
   7823SM   C4S10292   4.507   2.899  17.068 -0.4722 -0.0498  0.0831
   7823SM   H4S10293   4.557   2.843  16.987  0.9062  1.3701 -0.0934
   7823SM   C5S10294   4.504   3.032  17.054  0.2181  0.0634  0.1078
   7823SM   H5S10295   4.485   3.092  17.144  1.9483  0.1407  0.4625
   7823SM   C6S10296   4.551   3.103  16.928  0.1704 -0.5586 -0.2294
   7823SM   H6S10297   4.648   3.150  16.956 -0.6721  0.6920  0.6654
   7823SM   H6T10298   4.480   3.184  16.900  0.7202 -0.1289 -0.4241
   7823SM   C7S10299   4.566   3.022  16.799 -0.1805  0.5979  0.3720
   7823SM   H7S10300   4.471   2.968  16.781 -0.2071  1.3807 -2.1873
   7823SM   H7T10301   4.644   2.943  16.801 -0.9450 -0.2679 -1.7941
   7823SM   C8S10302   4.597   3.113  16.679  0.6325 -0.2763  1.3123
   7823SM   H8S10303   4.694   3.164  16.696  0.7118  0.0807 -0.1076
   7823SM   H8T10304   4.515   3.188  16.670  0.6144 -0.4745 -0.5740
   7823SM   C9S10305   4.610   3.035  16.545  0.2305  0.8384 -0.0157
   7823SM   H9S10306   4.521   2.969  16.533  1.1302 -0.3845 -0.0576
   7823SM   H9T10307   4.698   2.969  16.557 -1.0917 -1.3403 -1.5550
   7823SM  C10S10308   4.632   3.113  16.421  0.6481 -0.2715  0.0428
   7823SM  H10S10309   4.724   3.174  16.435  0.0420  1.3615 -2.3537
   7823SM  H10T10310   4.547   3.184  16.416  1.9139  1.2076 -1.6874
   7823SM  C11S10311   4.634   3.027  16.292  0.2926  0.5054 -0.2254
   7823SM  H11S10312   4.538   2.972  16.280  0.5516 -1.9439  5.7854
   7823SM  H11T10313   4.717   2.953  16.293 -0.1900 -0.1212 -1.9419
   7823SM  C12S10314   4.648   3.114  16.169 -0.0163 -0.2948  0.2122
   7823SM  H12S10315   4.737   3.179  16.153 -1.0736  0.8896 -1.1025
   7823SM  H12T10316   4.561   3.183  16.165  0.4251  0.1886 -2.2370
   7823SM  C13S10317   4.629   3.042  16.047 -0.0957 -0.1698 -0.3762
   7823SM  H13S10318   4.540   2.980  16.074 -1.6396  2.5272  1.1229
   7823SM  H13T10319   4.715   2.975  16.028 -0.5067 -0.6119 -0.7281
   7823SM  C14S10320   4.569   3.126  15.927 -0.4259 -0.1712  0.7612
   7823SM  H14S10321   4.486   3.187  15.967 -0.0845  0.9488 -0.1834
   7823SM  H14T10322   4.524   3.054  15.855 -0.5033  0.7765 -0.1536
   7823SM  C15S10323   4.653   3.225  15.852 -0.5095 -0.6159 -0.3910
   7823SM  H15S10324   4.745   3.171  15.822 -0.2179  0.0308 -0.6907
   7823SM  H15T10325   4.688   3.299  15.927 -0.3579 -2.7577  1.7607
   7823SM  C16S10326   4.594   3.289  15.724  0.0731 -0.4386 -0.0971
   7823SM  H16S10327   4.654   3.376  15.691  0.5891 -0.1713  1.4338
   7823SM  H16T10328   4.494   3.330  15.750 -0.4924 -0.4159 -2.1731
   7823SM  C17S10329   4.564   3.186  15.617 -0.0493  0.5687 -0.4231
   7823SM  H17S10330   4.488   3.111  15.646  0.7729  0.2949  1.1774
   7823SM  H17T10331   4.660   3.138  15.589  0.0138 -0.0376  0.7804
   7823SM  C18S10332   4.512   3.265  15.495 -0.4539  0.3695  0.6108
   7823SM  H18S10333   4.418   3.317  15.524 -0.2120  0.8786  0.4801
   7823SM  H18T10334   4.491   3.200  15.407  2.8417 -1.6586  1.1380
   7823SM  H18U10335   4.585   3.340  15.460  0.7691 -0.4188  1.3781
   7823SM   C1F10336   4.174   2.643  17.042  0.1259  0.2991 -0.4342
   7823SM    OF10337   4.090   2.673  17.122  0.2281 -0.1090  0.1671
   7823SM   C2F10338   4.145   2.567  16.919 -0.2095 -0.3270 -0.6735
   7823SM   H2F10339   4.165   2.459  16.938 -3.2498 -1.1993 -1.7700
   7823SM   H2G10340   4.214   2.606  16.841 -1.2167  1.3878 -0.7712
   7823SM   C3F10341   3.997   2.583  16.878 -0.2249 -0.2933  0.7710
   7823SM   H3F10342   3.966   2.688  16.862  1.4543  0.1000 -0.1238
   7823SM   H3G10343   3.930   2.553  16.962  0.2650 -0.2491  1.1811
   7823SM   C4F10344   3.952   2.500  16.746  0.2850  0.8979 -0.0870
   7823SM   H4F10345   3.846   2.525  16.727  0.1643  1.6078  1.3760
   7823SM   H4G10346   3.959   2.393  16.773  0.0545  1.3725  2.0817
   7823SM   C5F10347   4.041   2.523  16.622  0.8430 -0.3561  0.7378
   7823SM   H5F10348   4.147   2.498  16.641  1.0021 -2.7981 -2.5545
   7823SM   H5G10349   4.031   2.626  16.581  0.8105 -1.0437 -1.0487
   7823SM   C6F10350   3.980   2.431  16.511  0.2896 -0.3274 -0.7093
   7823SM   H6F10351   3.886   2.480  16.476  0.4895  0.2385 -0.4610
   7823SM   H6G10352   3.965   2.331  16.558  1.3076  0.3310  1.0897
   7823SM   C7F10353   4.072   2.418  16.392 -0.1503  0.2582  0.1812
   7823SM   H7F10354   4.166   2.360  16.408  0.1268 -0.5597 -3.4163
   7823SM   H7G10355   4.094   2.521  16.356  1.5516  0.5028  1.7640
   7823SM   C8F10356   3.992   2.366  16.270 -0.8029  0.4849 -0.1782
   7823SM   H8F10357   4.042   2.409  16.181  0.8291  0.0236  0.4808
   7823SM   H8G10358   3.889   2.408  16.276 -0.3178  1.6033  0.8797
   7823SM   C9F10359   3.972   2.216  16.252  0.3001 -0.4453  0.1568
   7823SM   H9F10360   3.891   2.201  16.178  0.3090  1.1998 -0.2354
   7823SM   H9G10361   3.949   2.167  16.349  0.0422  0.3167  0.4841
   7823SM  C10F10362   4.092   2.142  16.196 -0.3083 -0.0909  0.3695
   7823SM  H10F10363   4.071   2.034  16.203  2.7421 -0.7790  0.0645
   7823SM  H10G10364   4.169   2.141  16.277 -0.5777 -2.2380  0.6561
   7823SM  C11F10365   4.152   2.189  16.054 -0.2125 -0.3105 -0.3356
   7823SM  H11F10366   4.168   2.299  16.053 -2.9442  0.1769 -1.9351
   7823SM  H11G10367   4.077   2.165  15.975 -0.6998  0.5712 -0.1595
   7823SM  C12F10368   4.291   2.130  16.021 -0.3412 -0.5229  0.2164
   7823SM  H12F10369   4.280   2.021  16.007  1.3624 -0.4209 -2.4574
   7823SM  H12G10370   4.363   2.151  16.103  1.6708 -0.4737 -1.4836
   7823SM  C13F10371   4.344   2.187  15.891  0.4218  0.2399  1.1156
   7823SM  H13F10372   4.432   2.122  15.873 -2.2676 -2.6896 -3.3453
   7823SM  H13G10373   4.382   2.291  15.888 -0.2053  0.4458 -0.6674
   7823SM  C14F10374   4.256   2.169  15.756 -0.1400 -0.1432 -0.3524
   7823SM  H14F10375   4.170   2.239  15.763 -1.1540 -1.1647 -1.9501
   7823SM  H14G10376   4.221   2.064  15.755  0.5194 -0.3793 -1.9824
   7823SM  C15F10377   4.332   2.213  15.631  0.6069  0.2780 -0.4780
   7823SM  H15F10378   4.400   2.131  15.600 -0.9144 -0.6681 -1.4224
   7823SM  H15G10379   4.391   2.303  15.659  0.5870 -0.4772  2.1862
   7823SM  C16F10380   4.240   2.261  15.514 -0.3378 -0.0181 -0.3601
   7823SM  H16F10381   4.159   2.327  15.552  0.3495  1.1084 -0.8314
   7823SM  H16G10382   4.207   2.165  15.468  1.9760 -1.1816  0.2374
   7823SM  C17F10383   4.316   2.344  15.414 -0.5868 -0.2014 -0.2968
   7823SM  H17F10384   4.408   2.293  15.381  0.4735  1.4937 -0.1005
   7823SM  H17G10385   4.355   2.435  15.465  0.8865 -0.9621 -0.0325
   7823SM  C18F10386   4.237   2.412  15.299 -0.3208  0.6261  0.1301
   7823SM  H18F10387   4.157   2.481  15.334 -3.5520 -2.5864 -0.3535
   7823SM  H18G10388   4.177   2.326  15.263  0.7762 -0.6350  1.2060
   7823SM  C19F10389   4.320   2.488  15.190 -0.6997 -0.2782 -0.1656
   7823SM  H19F10390   4.368   2.580  15.230  1.6489 -0.3998 -2.4142
   7823SM  H19G10391   4.242   2.512  15.114  0.5989 -2.2317 -2.2529
   7823SM  C20F10392   4.417   2.395  15.123  0.4011 -0.3428 -0.0821
   7823SM  H20F10393   4.492   2.366  15.200 -0.9660  0.0640  1.4408
   7823SM  H20G10394   4.471   2.455  15.047  0.6324  1.2030  1.2511
   7823SM  C21F10395   4.371   2.262  15.054 -0.2300 -0.6896 -0.2765
   7823SM  H21F10396   4.313   2.286  14.963 -4.2544 -3.1984  1.3495
   7823SM  H21G10397   4.301   2.214  15.126  0.5385  0.4061  1.2555
   7823SM  C22F10398   4.479   2.162  15.028  0.3059  0.3260  0.0832
   7823SM  H22F10399   4.568   2.207  14.978  2.5826 -3.3873  0.3857
   7823SM  H22G10400   4.434   2.080  14.968  0.8533 -0.7420  1.0945
   7823SM  C23F10401   4.532   2.088  15.155 -0.1193  0.9326 -0.1683
   7823SM  H23F10402   4.606   2.014  15.118 -0.7051  0.7639 -1.0062
   7823SM  H23G10403   4.460   2.035  15.220  0.7516  0.5166  0.4897
   7823SM  H23H10404   4.575   2.166  15.222  2.6226 -1.1548  0.6702
   7923SM     N10405   0.762   3.105  18.148 -0.0975  0.2637 -0.1433
   7923SM   C1510406   0.909   3.129  18.160 -0.1358 -0.0353  0.0016
   7923SM  H15A10407   0.943   3.222  18.115 -1.9306  0.0842 -1.2238
   7923SM  H15B10408   0.958   3.046  18.110  0.3293  0.6300 -0.6793
   7923SM  H15C10409   0.924   3.129  18.267 -2.9398  0.1898  0.4611
   7923SM   C1410410   0.720   2.997  18.248  0.5295 -0.5368 -0.5682
   7923SM  H14A10411   0.729   2.899  18.202  0.0024 -0.3839 -1.0006
   7923SM  H14B10412   0.620   3.009  18.286  0.5716  0.0014 -0.6312
   7923SM  H14C10413   0.783   3.000  18.335 -1.5171  3.0554  1.0216
   7923SM   C1310414   0.702   3.237  18.187  0.8733 -0.2129 -0.0180
   7923SM  H13A10415   0.716   3.318  18.117 -0.2041 -0.0460 -0.0471
   7923SM  H13B10416   0.740   3.279  18.279 -2.8626  1.9078  0.7536
   7923SM  H13C10417   0.595   3.225  18.196  0.8695  0.4512  0.8829
   7923SM   C1210418   0.722   3.077  18.005  0.3787 -0.4564 -0.0479
   7923SM  H12A10419   0.755   3.148  17.930 -0.9361 -0.9559 -1.1490
   7923SM  H12B10420   0.618   3.104  18.003  1.2207  3.5506  1.1979
   7923SM   C1110421   0.741   2.941  17.939  0.0022  1.4237 -0.3036
   7923SM  H11A10422   0.708   2.943  17.833  3.0027  1.5946 -1.3326
   7923SM  H11B10423   0.677   2.867  17.991 -0.7184  3.5936  2.1471
   7923SM     P10424   0.991   2.952  17.849  0.3074 -0.0440 -0.2536
   7923SM   O1310425   1.127   2.972  17.908  0.3237  0.7744  0.1258
   7923SM   O1410426   0.964   2.868  17.733  0.3144 -0.3328 -0.7981
   7923SM   O1110427   0.941   3.095  17.808 -0.1618  0.4509 -0.0160
   7923SM   O1210428   0.885   2.910  17.957  0.1732 -0.4239  0.0095
   7923SM   C1S10429   1.008   3.173  17.708 -0.3016  0.0809  0.3424
   7923SM   H1S10430   1.117   3.159  17.692 -0.5533  0.7249 -2.3680
   7923SM   H1T10431   1.024   3.278  17.740  2.1753  0.4149 -1.6733
   7923SM    NF10432   1.013   3.252  17.469 -0.2482 -0.1992  0.0238
   7923SM   HNF10433   0.971   3.341  17.455  0.0493 -0.2016 -0.9519
   7923SM   C2S10434   0.935   3.178  17.569 -0.0092  0.2413  0.2996
   7923SM   H2S10435   0.929   3.074  17.531 -1.1533  0.2500  0.4456
   7923SM   C3S10436   0.788   3.227  17.579  0.7199  0.0787  0.1301
   7923SM   H3S10437   0.782   3.333  17.609  1.7314  0.6225 -1.4533
   7923SM    O310438   0.707   3.151  17.669 -0.0620  0.2009 -0.4400
   7923SM   HO310439   0.770   3.091  17.710  2.0749 -0.7019 -4.4484
   7923SM   C4S10440   0.725   3.205  17.436  0.0595 -0.1558 -0.6272
   7923SM   H4S10441   0.731   3.102  17.397  3.0264 -0.2239 -0.2394
   7923SM   C5S10442   0.684   3.294  17.357  0.3581 -0.3189  0.3211
   7923SM   H5S10443   0.691   3.401  17.382 -0.1638 -0.2289  0.1110
   7923SM   C6S10444   0.631   3.273  17.218 -0.4830 -0.0544 -0.0976
   7923SM   H6S10445   0.528   3.315  17.212 -0.0705  0.9892 -0.1667
   7923SM   H6T10446   0.623   3.165  17.196  0.7905 -0.0738 -0.5491
   7923SM   C7S10447   0.701   3.340  17.100  0.1127  0.2601  1.1407
   7923SM   H7S10448   0.792   3.281  17.075 -0.4823  0.0820 -0.7881
   7923SM   H7T10449   0.729   3.443  17.131 -1.3317  0.9799  0.1735
   7923SM   C8S10450   0.624   3.334  16.963 -0.0167 -0.9047  0.0510
   7923SM   H8S10451   0.529   3.391  16.975 -1.2802 -2.9707  0.4610
   7923SM   H8T10452   0.596   3.231  16.934  1.8717 -0.7543 -2.6878
   7923SM   C9S10453   0.707   3.379  16.845 -0.3534 -0.0660  0.0887
   7923SM   H9S10454   0.791   3.307  16.832 -1.2092 -0.9849 -0.5387
   7923SM   H9T10455   0.748   3.478  16.874 -0.3197 -0.3269  0.9751
   7923SM  C10S10456   0.622   3.398  16.717 -0.3729  0.4817 -0.0689
   7923SM  H10S10457   0.559   3.487  16.738 -0.8324  0.6125 -1.8337
   7923SM  H10T10458   0.553   3.312  16.727  0.5362 -0.0813  2.0047
   7923SM  C11S10459   0.705   3.395  16.590  0.1853  0.0895 -0.3232
   7923SM  H11S10460   0.754   3.296  16.582  0.4093  0.0444  1.1721
   7923SM  H11T10461   0.782   3.475  16.587  1.9463 -1.4153  1.6420
   7923SM  C12S10462   0.611   3.402  16.466 -0.6165 -0.2178 -0.9255
   7923SM  H12S10463   0.572   3.506  16.455 -0.5218 -0.2128 -1.2265
   7923SM  H12T10464   0.530   3.328  16.481 -1.4252  0.8150 -0.0478
   7923SM  C13S10465   0.686   3.368  16.333 -0.2904 -0.1711 -0.1987
   7923SM  H13S10466   0.715   3.261  16.340  0.2211 -0.0082  0.1823
   7923SM  H13T10467   0.775   3.435  16.334 -1.3333  1.2808 -1.0378
   7923SM  C14S10468   0.599   3.396  16.213  0.5505 -0.6493  0.1356
   7923SM  H14S10469   0.589   3.506  16.198  1.9601 -0.7251 -1.6347
   7923SM  H14T10470   0.495   3.362  16.230 -0.4448  1.9933 -0.1743
   7923SM  C15S10471   0.649   3.344  16.075 -0.2672  0.1290 -0.5147
   7923SM  H15S10472   0.649   3.233  16.068 -1.6052 -0.4690  4.8235
   7923SM  H15T10473   0.756   3.371  16.066 -0.4113  1.1817  0.6099
   7923SM  C16S10474   0.562   3.395  15.954  0.4125 -0.0518  0.5803
   7923SM  H16S10475   0.541   3.504  15.956  0.1220 -0.1140  2.8055
   7923SM  H16T10476   0.462   3.348  15.953  0.2197  0.2883  1.9179
   7923SM  C17S10477   0.626   3.363  15.815  1.0576  0.0245 -0.3217
   7923SM  H17S10478   0.641   3.252  15.816 -0.0983 -0.1938  2.4876
   7923SM  H17T10479   0.712   3.432  15.823  0.1713  0.9551  1.8965
   7923SM  C18S10480   0.538   3.408  15.704  0.4872  0.2672  0.4300
   7923SM  H18S10481   0.523   3.518  15.706 -0.2437  0.1722  0.7691
   7923SM  H18T10482   0.438   3.359  15.707  0.6668 -0.2629 -1.1789
   7923SM  H18U10483   0.588   3.385  15.607  0.2482  0.7279  0.1898
   7923SM   C1F10484   1.120   3.212  17.411  0.6793 -0.0560  0.1181
   7923SM    OF10485   1.174   3.109  17.453  0.2590 -0.2415 -0.0552
   7923SM   C2F10486   1.184   3.294  17.299  0.1722 -0.2737  0.3155
   7923SM   H2F10487   1.266   3.233  17.257  0.3339 -1.3655  2.1264
   7923SM   H2G10488   1.227   3.390  17.335 -1.0439  0.7682 -0.8794
   7923SM   C3F10489   1.090   3.321  17.181 -0.3070  0.1228 -0.2986
   7923SM   H3F10490   1.016   3.402  17.203  0.5249  0.8721 -0.2038
   7923SM   H3G10491   1.038   3.232  17.140 -0.7328  0.7330 -1.1203
   7923SM   C4F10492   1.174   3.365  17.056  0.3864 -0.6502 -0.8186
   7923SM   H4F10493   1.247   3.290  17.020 -0.2690 -1.1659 -1.1078
   7923SM   H4G10494   1.230   3.453  17.092 -2.7782  0.5873  1.5142
   7923SM   C5F10495   1.082   3.389  16.934  0.0628 -0.0931  0.1680
   7923SM   H5F10496   1.026   3.484  16.948  1.8564  1.0985 -0.3695
   7923SM   H5G10497   1.006   3.308  16.940  0.2642 -0.4060 -1.0800
   7923SM   C6F10498   1.156   3.391  16.795  0.3450 -0.1748  0.1865
   7923SM   H6F10499   1.203   3.294  16.768  0.1901  0.0332 -0.8597
   7923SM   H6G10500   1.229   3.474  16.798 -0.4486  0.5126  1.0615
   7923SM   C7F10501   1.063   3.425  16.671 -0.3393  0.4198  0.3277
   7923SM   H7F10502   1.025   3.528  16.690 -0.3608  0.9867 -2.4104
   7923SM   H7G10503   0.972   3.362  16.676 -0.1574  0.0931 -0.3232
   7923SM   C8F10504   1.142   3.422  16.538 -0.7290  0.2676 -0.1197
   7923SM   H8F10505   1.216   3.339  16.546 -0.3915  0.6396  0.6717
   7923SM   H8G10506   1.197   3.518  16.530  0.5816 -0.3519  1.0138
   7923SM   C9F10507   1.060   3.390  16.411  0.0405 -0.5056 -0.1239
   7923SM   H9F10508   0.983   3.469  16.402 -0.3654 -0.8129  0.6525
   7923SM   H9G10509   1.007   3.293  16.403  2.5326 -2.0113  0.5524
   7923SM  C10F10510   1.137   3.404  16.278 -0.3898  0.2223  0.1165
   7923SM  H10F10511   1.208   3.322  16.253 -0.8550 -0.3427  0.6367
   7923SM  H10G10512   1.198   3.496  16.287  0.0023 -0.0566  0.3133
   7923SM  C11F10513   1.034   3.403  16.165  0.4351 -0.3421  0.2757
   7923SM  H11F10514   0.966   3.491  16.162 -0.2701 -0.8924 -0.4296
   7923SM  H11G10515   0.972   3.312  16.165 -0.9053  0.5173  1.7644
   7923SM  C12F10516   1.109   3.404  16.036  0.2269  0.4435  0.7134
   7923SM  H12F10517   1.162   3.308  16.025  1.0472  0.7038  2.0894
   7923SM  H12G10518   1.173   3.494  16.027  0.9232 -0.0846  0.3848
   7923SM  C13F10519   1.012   3.418  15.919  0.0154 -0.1798  0.2128
   7923SM  H13F10520   0.943   3.503  15.936  0.8767  0.5354  0.2557
   7923SM  H13G10521   0.950   3.328  15.899  0.6953 -0.1570 -2.3615
   7923SM  C14F10522   1.082   3.446  15.785 -0.9605  0.3217  0.8947
   7923SM  H14F10523   1.138   3.354  15.755 -0.8046  0.3825  0.9958
   7923SM  H14G10524   1.158   3.527  15.795 -2.2157  1.7953 -0.9071
   7923SM  C15F10525   0.980   3.470  15.676 -0.4539 -0.2116  0.4133
   7923SM  H15F10526   0.933   3.569  15.695 -2.1584 -0.6888 -1.0903
   7923SM  H15G10527   0.902   3.392  15.689  1.0350 -1.5680  1.6281
   7923SM  C16F10528   1.046   3.467  15.539  0.3510 -0.4479 -0.2044
   7923SM  H16F10529   1.112   3.378  15.537 -1.5981 -1.9196 -1.3756
   7923SM  H16G10530   1.109   3.557  15.519 -1.9724  1.1509 -0.8212
   7923SM  C17F10531   0.967   3.450  15.408 -0.9555 -0.0883 -0.0904
   7923SM  H17F10532   1.038   3.461  15.323  0.9434  0.7366  1.5207
   7923SM  H17G10533   0.898   3.537  15.400  0.7459  1.3398  0.1121
   7923SM  C18F10534   0.882   3.323  15.388  0.3231  0.0124 -0.1585
   7923SM  H18F10535   0.808   3.329  15.471  0.8139  1.2805  0.2195
   7923SM  H18G10536   0.935   3.228  15.410 -0.4823 -0.9664 -2.2269
   7923SM  C19F10537   0.800   3.314  15.259 -0.3999  1.0483  0.0955
   7923SM  H19F10538   0.873   3.337  15.179 -1.0407  2.2007 -0.1703
   7923SM  H19G10539   0.724   3.392  15.280 -0.3445  0.3386  3.6826
   7923SM  C20F10540   0.739   3.176  15.232 -0.0050  0.7653 -0.0780
   7923SM  H20F10541   0.819   3.099  15.231 -1.9731 -1.3883  0.6360
   7923SM  H20G10542   0.715   3.193  15.125 -2.3356  0.8985  0.4284
   7923SM  C21F10543   0.620   3.141  15.320 -0.2980 -0.3445 -0.4986
   7923SM  H21F10544   0.655   3.137  15.425  0.2551  0.2237 -0.6557
   7923SM  H21G10545   0.585   3.040  15.289  0.0485 -0.7807  0.4958
   7923SM  C22F10546   0.502   3.241  15.313 -0.4403  0.4475 -1.0788
   7923SM  H22F10547   0.487   3.263  15.205 -0.6660 -1.3074 -1.4457
   7923SM  H22G10548   0.531   3.332  15.369 -0.4842 -0.5822  0.6793
   7923SM  C23F10549   0.373   3.188  15.371 -0.2310  0.3018 -0.2116
   7923SM  H23F10550   0.358   3.080  15.349  1.5975  0.0080 -0.1278
   7923SM  H23G10551   0.284   3.253  15.355 -0.8346  0.6072  3.4548
   7923SM  H23H10552   0.381   3.184  15.482  2.2892 -1.3975 -0.3674
   8023SM     N10553   3.418   2.983  18.038  0.0283 -0.1086 -0.5988
   8023SM   C1510554   3.455   2.856  17.960  0.3411 -0.3777 -0.3435
   8023SM  H15A10555   3.521   2.799  18.023  2.8515  0.3508 -2.1448
   8023SM  H15B10556   3.512   2.885  17.872  1.2941  2.8542  1.1764
   8023SM  H15C10557   3.373   2.799  17.920  0.9581 -2.4275  1.1554
   8023SM   C1410558   3.333   2.945  18.162 -0.2179 -0.2773  0.4911
   8023SM  H14A10559   3.396   2.898  18.236 -0.3020  0.5083  1.0652
   8023SM  H14B10560   3.261   2.876  18.122 -0.0095 -1.0055  1.3422
   8023SM  H14C10561   3.290   3.032  18.208 -0.1643  0.7426 -1.2977
   8023SM   C1310562   3.537   3.047  18.087 -0.5024  0.0915 -0.0869
   8023SM  H13A10563   3.585   2.980  18.158 -1.1159 -1.5533 -1.1735
   8023SM  H13B10564   3.524   3.138  18.144  0.4875  0.3409 -0.2306
   8023SM  H13C10565   3.597   3.074  18.001 -0.5094 -1.3313 -0.5608
   8023SM   C1210566   3.351   3.087  17.943  0.2198  0.0950 -0.0729
   8023SM  H12A10567   3.344   3.180  17.998 -0.0710 -0.1091  0.2413
   8023SM  H12B10568   3.252   3.046  17.927  0.7917 -1.5182  0.2861
   8023SM   C1110569   3.409   3.105  17.798  0.3816  0.1294  0.1883
   8023SM  H11A10570   3.331   3.170  17.753 -0.0033 -1.3400 -1.3601
   8023SM  H11B10571   3.407   3.009  17.741 -1.3738  0.7809 -0.9511
   8023SM     P10572   3.567   3.296  17.747 -0.0233  0.0035 -0.2846
   8023SM   O1310573   3.455   3.381  17.776  0.0232  0.3471 -0.0022
   8023SM   O1410574   3.705   3.327  17.795  0.5634 -0.0525 -0.5289
   8023SM   O1110575   3.564   3.269  17.590  0.5762 -0.1452 -0.1168
   8023SM   O1210576   3.536   3.150  17.800 -0.1368 -0.0499  0.3952
   8023SM   C1S10577   3.659   3.191  17.525 -0.0467  0.4572  0.2299
   8023SM   H1S10578   3.641   3.083  17.547  2.0317  0.0055 -0.0323
   8023SM   H1T10579   3.764   3.216  17.551 -0.1065  0.7224  0.2207
   8023SM    NF10580   3.731   3.098  17.310 -0.6774  0.3952 -0.5269
   8023SM   HNF10581   3.822   3.117  17.272 -0.9340  0.0867 -1.3097
   8023SM   C2S10582   3.663   3.213  17.371  0.7776 -0.0659  0.0444
   8023SM   H2S10583   3.559   3.210  17.333  1.1741 -0.5533 -1.0490
   8023SM   C3S10584   3.724   3.344  17.326  0.3626 -0.7328 -0.7729
   8023SM   H3S10585   3.819   3.355  17.382  0.9225 -0.5819 -1.7226
   8023SM    O310586   3.647   3.455  17.370 -0.1069  0.5138 -0.2747
   8023SM   HO310587   3.586   3.413  17.431  0.8967 -1.3090 -0.4662
   8023SM   C4S10588   3.751   3.361  17.180  1.1309  0.0394  0.2433
   8023SM   H4S10589   3.677   3.312  17.116  1.8317 -1.9185  0.8436
   8023SM   C5S10590   3.864   3.412  17.135 -0.3969 -0.2958 -0.3220
   8023SM   H5S10591   3.941   3.441  17.207  1.9584  0.2701 -2.9108
   8023SM   C6S10592   3.906   3.422  16.991 -0.3913  0.3873 -0.1962
   8023SM   H6S10593   3.991   3.351  16.982 -1.8008 -1.6176  1.2716
   8023SM   H6T10594   3.944   3.518  16.950 -2.8390  1.9604  0.9785
   8023SM   C7S10595   3.801   3.360  16.895 -0.3639  0.1541 -0.1612
   8023SM   H7S10596   3.713   3.427  16.896  0.7579  1.6676 -0.3177
   8023SM   H7T10597   3.771   3.253  16.899 -3.1722  0.9016  0.7298
   8023SM   C8S10598   3.840   3.390  16.753 -0.6209 -0.3074 -0.2614
   8023SM   H8S10599   3.943   3.350  16.740 -0.7266 -0.9796  0.8682
   8023SM   H8T10600   3.843   3.500  16.739  0.8306 -0.3339 -0.4050
   8023SM   C9S10601   3.749   3.330  16.647 -0.2286 -0.8217  0.2283
   8023SM   H9S10602   3.642   3.360  16.656 -0.4749 -0.7693 -2.2755
   8023SM   H9T10603   3.738   3.219  16.655 -0.2961 -0.8959 -0.7683
   8023SM  C10S10604   3.807   3.347  16.503  0.4367 -0.1055  0.6551
   8023SM  H10S10605   3.907   3.298  16.501 -0.9185 -3.0982  0.4359
   8023SM  H10T10606   3.819   3.457  16.491  0.9102 -0.2987 -0.9167
   8023SM  C11S10607   3.712   3.291  16.400  0.0221 -0.3805 -0.6150
   8023SM  H11S10608   3.613   3.342  16.402  0.9962  1.6189 -0.2476
   8023SM  H11T10609   3.686   3.186  16.425  2.0414 -1.4105 -2.5857
   8023SM  C12S10610   3.779   3.302  16.262 -0.3689  0.1714  0.0355
   8023SM  H12S10611   3.883   3.266  16.278 -0.8949 -1.4890 -0.1117
   8023SM  H12T10612   3.771   3.409  16.232  0.2358  0.3717  0.5791
   8023SM  C13S10613   3.706   3.221  16.155 -0.3083 -0.8238  0.3154
   8023SM  H13S10614   3.608   3.271  16.139 -0.3300 -0.1990  2.1190
   8023SM  H13T10615   3.701   3.114  16.186  2.3219 -1.4546 -1.1140
   8023SM  C14S10616   3.783   3.220  16.022  0.5587  0.7958 -0.3927
   8023SM  H14S10617   3.792   3.323  15.983 -2.3260  1.6510  0.9002
   8023SM  H14T10618   3.733   3.154  15.947 -2.1025 -0.1008  2.0075
   8023SM  C15S10619   3.920   3.155  16.037  0.0171  0.4913 -0.4913
   8023SM  H15S10620   3.917   3.056  16.087  1.3774  0.8382  0.3308
   8023SM  H15T10621   3.990   3.224  16.089  0.9234  0.6737 -1.8794
   8023SM  C16S10622   3.985   3.137  15.903 -0.1318  0.0494  0.0473
   8023SM  H16S10623   3.921   3.181  15.823  1.7681 -1.1325 -2.2659
   8023SM  H16T10624   3.997   3.029  15.878  0.5772 -0.1662  1.2646
   8023SM  C17S10625   4.116   3.209  15.879  0.8668 -0.8548  0.3626
   8023SM  H17S10626   4.168   3.192  15.975 -1.5320 -0.4157  1.8150
   8023SM  H17T10627   4.101   3.319  15.883  1.9503 -0.7222  1.4674
   8023SM  C18S10628   4.186   3.166  15.748  0.0372  0.1486  0.3581
   8023SM  H18S10629   4.120   3.181  15.660 -0.9321 -1.7457  0.7223
   8023SM  H18T10630   4.218   3.060  15.755 -2.0478 -0.6319 -0.8486
   8023SM  H18U10631   4.275   3.232  15.740 -1.0902  2.0512  2.1664
   8023SM   C1F10632   3.686   2.976  17.316  0.0983  0.2343  0.4775
   8023SM    OF10633   3.564   2.951  17.336 -0.3149  0.1968  0.1011
   8023SM   C2F10634   3.779   2.855  17.288 -0.1550  0.2892 -0.6435
   8023SM   H2F10635   3.764   2.793  17.379 -0.1326  1.5613  0.2601
   8023SM   H2G10636   3.889   2.874  17.294  0.3218 -2.3190 -0.2487
   8023SM   C3F10637   3.733   2.777  17.159  0.3134 -0.4451 -0.5310
   8023SM   H3F10638   3.626   2.746  17.169  1.0492 -2.2793  3.8516
   8023SM   H3G10639   3.791   2.683  17.150 -2.1813 -2.3593  1.7169
   8023SM   C4F10640   3.758   2.852  17.032 -0.4253 -0.4941  0.5951
   8023SM   H4F10641   3.865   2.870  17.010 -0.5473 -1.1087 -0.5772
   8023SM   H4G10642   3.723   2.957  17.045 -1.6349 -0.9148  0.8979
   8023SM   C5F10643   3.697   2.783  16.907 -0.2535  0.7566  0.3778
   8023SM   H5F10644   3.587   2.777  16.914 -0.2592 -0.4791 -0.4573
   8023SM   H5G10645   3.739   2.680  16.901 -2.9638 -0.3333 -1.6693
   8023SM   C6F10646   3.727   2.859  16.780  0.0292  0.4670  0.3458
   8023SM   H6F10647   3.827   2.821  16.751 -0.8171 -1.4358 -0.2309
   8023SM   H6G10648   3.732   2.969  16.792  1.6171  0.3796  0.7289
   8023SM   C7F10649   3.638   2.809  16.669  0.0289  0.0708 -0.3451
   8023SM   H7F10650   3.540   2.858  16.653 -0.4178 -1.2231 -1.8025
   8023SM   H7G10651   3.607   2.705  16.693 -5.6986  1.2507 -1.1694
   8023SM   C8F10652   3.714   2.814  16.534 -0.1365  0.1505 -0.0024
   8023SM   H8F10653   3.809   2.758  16.549  0.2966  0.4178 -1.5397
   8023SM   H8G10654   3.747   2.917  16.511  1.0540 -0.2592 -0.2189
   8023SM   C9F10655   3.630   2.770  16.411 -0.2591 -0.4003  0.5141
   8023SM   H9F10656   3.543   2.839  16.421  1.2020  1.5952  0.1503
   8023SM   H9G10657   3.599   2.665  16.427 -0.0250 -1.2254 -3.4248
   8023SM  C10F10658   3.709   2.782  16.280  0.3025 -0.2043 -0.1043
   8023SM  H10F10659   3.807   2.732  16.294  0.1819 -0.9189 -1.6121
   8023SM  H10G10660   3.743   2.888  16.274  1.5924 -0.6147 -0.1802
   8023SM  C11F10661   3.636   2.747  16.150  0.0299 -0.4005  0.0018
   8023SM  H11F10662   3.544   2.808  16.139  1.7645  2.4260  0.0304
   8023SM  H11G10663   3.599   2.643  16.163 -0.3809 -0.3306 -0.5853
   8023SM  C12F10664   3.721   2.771  16.020  0.0829  0.1943  0.3152
   8023SM  H12F10665   3.792   2.686  16.006  0.2088  0.1308  1.2550
   8023SM  H12G10666   3.795   2.848  16.052 -0.2242 -0.1235  1.8742
   8023SM  C13F10667   3.647   2.811  15.891 -0.5540 -0.2292 -0.0564
   8023SM  H13F10668   3.586   2.899  15.921 -0.7617 -0.0785 -0.8857
   8023SM  H13G10669   3.581   2.729  15.856  1.2063 -2.7386  2.1151
   8023SM  C14F10670   3.750   2.840  15.776  0.8159  0.4023 -0.1902
   8023SM  H14F10671   3.802   2.746  15.747  1.3476  0.2638  1.1435
   8023SM  H14G10672   3.826   2.904  15.825 -0.0422  0.9984  0.4007
   8023SM  C15F10673   3.679   2.906  15.653  0.0182  0.0952  0.2003
   8023SM  H15F10674   3.761   2.933  15.583 -0.6972  1.3693 -0.1878
   8023SM  H15G10675   3.614   2.995  15.670 -0.8598  0.0698 -2.5513
   8023SM  C16F10676   3.576   2.808  15.581 -0.3081  0.1759 -1.2258
   8023SM  H16F10677   3.496   2.775  15.652  1.6426 -0.5388  0.7698
   8023SM  H16G10678   3.622   2.709  15.559 -2.2828 -1.2173  0.3925
   8023SM  C17F10679   3.505   2.880  15.466  0.6802  0.2186  0.2560
   8023SM  H17F10680   3.570   2.881  15.376  0.8720 -0.5987  0.3804
   8023SM  H17G10681   3.492   2.987  15.494 -0.0207  0.4292 -0.7856
   8023SM  C18F10682   3.370   2.804  15.441  0.1103 -0.0381 -0.4323
   8023SM  H18F10683   3.302   2.811  15.529  0.3498  1.4905 -0.3511
   8023SM  H18G10684   3.408   2.700  15.440  0.1413 -0.0227 -1.8462
   8023SM  C19F10685   3.301   2.829  15.307  0.0068  1.1118  0.0511
   8023SM  H19F10686   3.372   2.813  15.223  0.4230  1.1305  0.3898
   8023SM  H19G10687   3.277   2.937  15.318 -0.5871  1.2038 -1.9182
   8023SM  C20F10688   3.173   2.744  15.295  0.1632 -0.2945  0.2494
   8023SM  H20F10689   3.101   2.789  15.366  0.0303  0.8753 -0.5980
   8023SM  H20G10690   3.211   2.642  15.320 -2.4460 -1.2211  0.6940
   8023SM  C21F10691   3.137   2.734  15.150  0.6498  0.6561  0.5647
   8023SM  H21F10692   3.225   2.688  15.099  0.0169  0.8742 -0.7583
   8023SM  H21G10693   3.119   2.838  15.117 -1.0835  0.5164  0.9832
   8023SM  C22F10694   3.004   2.660  15.117 -0.4383  0.4148 -1.2349
   8023SM  H22F10695   3.006   2.640  15.008  3.3287  0.3881 -1.2877
   8023SM  H22G10696   2.925   2.734  15.145 -0.7076 -0.5884  0.8203
   8023SM  C23F10697   2.987   2.529  15.194 -0.6803 -0.1961 -0.1976
   8023SM  H23F10698   2.990   2.566  15.298 -1.1034  1.8053 -0.8520
   8023SM  H23G10699   3.066   2.454  15.172  0.3185  0.7791 -0.0294
   8023SM  H23H10700   2.891   2.483  15.161  0.0209 -1.3814 -0.6244
   8123SM     N10701   6.609   0.000  12.872 -0.3503 -0.5591  0.0021
   8123SM   C1510702   6.499   0.109  12.867 -0.2162  0.2600 -0.6245
   8123SM  H15A10703   6.529   0.188  12.933  1.7770 -0.6092 -0.4166
   8123SM  H15B10704   6.401   0.071  12.891 -0.0632  0.1486 -0.1742
   8123SM  H15C10705   6.491   0.142  12.764 -2.7678 -0.6456 -0.7812
   8123SM   C1410706   6.584  -0.084  12.757  0.3943 -0.6421  0.3359
   8123SM  H14A10707   6.478  -0.095  12.746  0.5598 -2.8603  0.6068
   8123SM  H14B10708   6.633  -0.180  12.760 -0.5509 -1.1042  1.4010
   8123SM  H14C10709   6.622  -0.042  12.664 -2.4113 -1.1378 -1.1248
   8123SM   C1310710   6.734   0.084  12.870 -0.6825  0.2047 -0.3974
   8123SM  H13A10711   6.736   0.159  12.792 -2.5019  0.3744 -0.3147
   8123SM  H13B10712   6.816   0.017  12.851 -0.3945  0.0950  1.0863
   8123SM  H13C10713   6.757   0.138  12.961 -1.7389  4.3528 -2.3088
   8123SM   C1210714   6.581  -0.054  13.003  0.8153 -0.0522 -0.2910
   8123SM  H12A10715   6.477  -0.081  13.016  1.5354 -2.9007  0.3230
   8123SM  H12B10716   6.603   0.017  13.082  1.8240 -1.0725  0.3761
   8123SM   C1110717   6.664  -0.176  13.052 -0.1088  0.6198  0.1691
   8123SM  H11A10718   6.663  -0.253  12.972 -0.8742  0.8568 -0.0579
   8123SM  H11B10719   6.615  -0.233  13.133  1.8158 -0.4488  0.6575
   8123SM     P10720   6.844  -0.069  13.206  0.1522 -0.1548  0.7232
   8123SM   O1310721   6.853  -0.176  13.308 -0.1730 -0.0135 -0.0699
   8123SM   O1410722   6.961   0.014  13.189 -0.5873 -0.1260  0.8763
   8123SM   O1110723   6.721   0.025  13.240 -0.2432 -0.1509  0.2823
   8123SM   O1210724   6.796  -0.126  13.071 -0.3261 -0.1244 -0.1335
   8123SM   C1S10725   6.619  -0.015  13.328 -0.3004  0.0316  0.2032
   8123SM   H1S10726   6.623  -0.124  13.349 -0.7727 -0.2032 -0.8911
   8123SM   H1T10727   6.523  -0.003  13.273  0.3134 -1.0161 -1.1610
   8123SM    NF10728   6.493   0.024  13.537 -0.6667 -0.4896  0.2315
   8123SM   HNF10729   6.419   0.089  13.556  0.0947  0.5778 -0.3532
   8123SM   C2S10730   6.607   0.070  13.456 -0.0628 -0.2008  0.0463
   8123SM   H2S10731   6.690   0.049  13.528 -0.9130 -0.4703  0.9626
   8123SM   C3S10732   6.621   0.222  13.424 -0.5912  0.3700  0.4852
   8123SM   H3S10733   6.535   0.241  13.357 -0.1157 -1.4456 -0.7010
   8123SM    O310734   6.738   0.261  13.343 -0.2568 -0.3939 -0.0175
   8123SM   HO310735   6.767   0.181  13.298  0.0234  0.2275 -0.9830
   8123SM   C4S10736   6.599   0.316  13.547 -0.2873  0.2937 -0.0872
   8123SM   H4S10737   6.612   0.263  13.643  0.2173  2.0546  0.8642
   8123SM   C5S10738   6.534   0.440  13.547 -0.4961  0.8667  0.1306
   8123SM   H5S10739   6.487   0.479  13.455 -2.3498  0.1449  0.7236
   8123SM   C6S10740   6.502   0.515  13.680 -0.5795 -0.2095 -0.0202
   8123SM   H6S10741   6.394   0.541  13.679 -0.7429 -0.6326  1.9488
   8123SM   H6T10742   6.559   0.609  13.695 -1.2986  0.2627 -0.1655
   8123SM   C7S10743   6.538   0.434  13.805  0.2550 -0.2969 -0.2904
   8123SM   H7S10744   6.646   0.411  13.808 -0.1188 -2.1880 -0.1728
   8123SM   H7T10745   6.484   0.337  13.805 -0.3838  0.0366 -1.5319
   8123SM   C8S10746   6.498   0.519  13.930 -0.5965  0.1540 -0.0482
   8123SM   H8S10747   6.538   0.620  13.907  1.3207 -0.5526 -0.0711
   8123SM   H8T10748   6.551   0.483  14.021  2.1955  2.4588 -0.6276
   8123SM   C9S10749   6.352   0.526  13.954  0.1686  0.9310  0.8280
   8123SM   H9S10750   6.316   0.421  13.947 -1.3120  1.4240  0.6261
   8123SM   H9T10751   6.301   0.566  13.864  0.2457 -3.8130 -1.6034
   8123SM  C10S10752   6.311   0.594  14.084  0.3292  0.2494  0.1772
   8123SM  H10S10753   6.201   0.605  14.092  0.6207  2.7883  1.6047
   8123SM  H10T10754   6.349   0.695  14.109  3.1453 -0.5832 -0.3122
   8123SM  C11S10755   6.347   0.512  14.209  0.0322 -0.0464  0.1532
   8123SM  H11S10756   6.457   0.520  14.224 -0.0724 -0.2823  1.0865
   8123SM  H11T10757   6.315   0.407  14.196 -2.3462  0.8124 -1.7935
   8123SM  C12S10758   6.273   0.546  14.339 -0.0570 -0.1996 -0.7140
   8123SM  H12S10759   6.167   0.550  14.308  0.0279  1.8772 -0.8912
   8123SM  H12T10760   6.294   0.648  14.378  0.2645 -0.0895 -1.1563
   8123SM  C13S10761   6.295   0.447  14.451  0.4572 -0.2018  0.7705
   8123SM  H13S10762   6.399   0.409  14.465  0.0102 -1.5325  0.6661
   8123SM  H13T10763   6.247   0.355  14.411 -0.2158  0.2312  0.5778
   8123SM  C14S10764   6.231   0.480  14.584  0.1526  0.3643 -0.0222
   8123SM  H14S10765   6.121   0.470  14.572  0.2082  0.6859 -0.8246
   8123SM  H14T10766   6.255   0.583  14.618  1.1695 -0.2274  1.1546
   8123SM  C15S10767   6.275   0.387  14.695  0.6490  0.2336  0.1491
   8123SM  H15S10768   6.386   0.394  14.702  0.8222  0.9616 -2.3354
   8123SM  H15T10769   6.242   0.283  14.674 -0.9305  0.4209  1.5230
   8123SM  C16S10770   6.209   0.429  14.829 -1.1366 -0.0191 -0.4305
   8123SM  H16S10771   6.209   0.341  14.898 -0.6057 -2.1144 -2.9573
   8123SM  H16T10772   6.099   0.440  14.816 -1.4204  0.6747  1.9398
   8123SM  C17S10773   6.287   0.547  14.887  0.1661  0.2601 -0.3793
   8123SM  H17S10774   6.262   0.647  14.845  0.6551  0.5144 -0.0823
   8123SM  H17T10775   6.395   0.519  14.891  0.1791  0.3269 -0.2306
   8123SM  C18S10776   6.230   0.562  15.033  0.2745  0.5356  0.1610
   8123SM  H18S10777   6.124   0.597  15.025 -0.0419 -0.2600  0.7619
   8123SM  H18T10778   6.289   0.628  15.100 -0.3166 -1.3859  2.7144
   8123SM  H18U10779   6.221   0.461  15.078 -0.5422 -0.1649 -1.4821
   8123SM   C1F10780   6.480  -0.099  13.586 -0.6513  0.3602 -0.4877
   8123SM    OF10781   6.578  -0.174  13.594  0.7174  0.0791  0.0614
   8123SM   C2F10782   6.349  -0.139  13.638  0.6460 -0.3200 -0.0830
   8123SM   H2F10783   6.289  -0.202  13.569 -1.2785  2.1734 -0.8432
   8123SM   H2G10784   6.289  -0.049  13.663  1.2082  0.3692 -1.1541
   8123SM   C3F10785   6.378  -0.223  13.770  0.3809 -0.1642  0.8665
   8123SM   H3F10786   6.449  -0.170  13.837  0.5670 -0.0189  0.5558
   8123SM   H3G10787   6.418  -0.323  13.742 -0.6856  0.2078 -2.5299
   8123SM   C4F10788   6.253  -0.245  13.852 -0.3042 -0.4437  0.4000
   8123SM   H4F10789   6.175  -0.292  13.789  0.6335  0.3928 -1.4511
   8123SM   H4G10790   6.206  -0.149  13.879 -0.5845 -0.0331 -1.4527
   8123SM   C5F10791   6.268  -0.328  13.978  0.4296  0.6015  0.2809
   8123SM   H5F10792   6.347  -0.286  14.045 -0.9581  1.3591  1.4991
   8123SM   H5G10793   6.296  -0.432  13.954  1.0759  0.4276  1.6665
   8123SM   C6F10794   6.142  -0.336  14.070 -0.3114 -0.0624 -0.1206
   8123SM   H6F10795   6.057  -0.364  14.003 -1.2838  2.8708 -0.2297
   8123SM   H6G10796   6.113  -0.237  14.111 -0.2646  0.8242 -2.0999
   8123SM   C7F10797   6.160  -0.431  14.188 -0.4110  0.0443  0.8483
   8123SM   H7F10798   6.264  -0.408  14.222 -0.0632 -0.2759  0.0370
   8123SM   H7G10799   6.167  -0.531  14.140  0.4250  0.9117 -0.9447
   8123SM   C8F10800   6.057  -0.430  14.298 -0.4089  0.0910 -0.5609
   8123SM   H8F10801   6.094  -0.489  14.384 -2.6445 -1.1625 -0.3911
   8123SM   H8G10802   5.963  -0.483  14.271  1.0688 -2.3717 -1.1655
   8123SM   C9F10803   6.024  -0.293  14.359  0.2058  0.1991 -0.5192
   8123SM   H9F10804   5.971  -0.309  14.456  2.2313 -6.4035  0.0110
   8123SM   H9G10805   5.967  -0.235  14.284 -2.0140  0.4514  1.2620
   8123SM  C10F10806   6.146  -0.209  14.399  0.3955 -0.1386 -0.0298
   8123SM  H10F10807   6.107  -0.114  14.442 -2.8190 -2.4971  2.7868
   8123SM  H10G10808   6.212  -0.185  14.312  1.0530 -0.8052  0.2767
   8123SM  C11F10809   6.242  -0.271  14.505  0.0739 -0.1154  0.3827
   8123SM  H11F10810   6.328  -0.202  14.497  0.2562 -0.3992 -0.1141
   8123SM  H11G10811   6.269  -0.376  14.481 -1.3945 -0.7372  1.3115
   8123SM  C12F10812   6.188  -0.279  14.649  0.0719 -0.0843 -0.0100
   8123SM  H12F10813   6.103  -0.350  14.648  0.7822 -1.0447  2.1449
   8123SM  H12G10814   6.154  -0.180  14.686 -1.7014  0.1469 -2.0307
   8123SM  C13F10815   6.285  -0.341  14.755  0.0441 -0.4547  0.0458
   8123SM  H13F10816   6.363  -0.264  14.776  0.2700 -0.7701  0.3800
   8123SM  H13G10817   6.332  -0.427  14.702  0.0541  0.5709 -1.7020
   8123SM  C14F10818   6.231  -0.381  14.889  0.5365 -0.1951 -0.7616
   8123SM  H14F10819   6.311  -0.443  14.936  0.6748  0.7571  0.3043
   8123SM  H14G10820   6.136  -0.438  14.884 -0.5923  1.5883 -0.4156
   8123SM  C15F10821   6.210  -0.269  14.990  0.0565 -0.0568  0.3943
   8123SM  H15F10822   6.129  -0.203  14.952 -0.9072 -2.8992 -3.0511
   8123SM  H15G10823   6.296  -0.199  15.003 -0.6352  0.9913 -0.5148
   8123SM  C16F10824   6.158  -0.323  15.128  0.2185  0.5665  0.2976
   8123SM  H16F10825   6.235  -0.352  15.203  1.1138  1.2753 -0.3180
   8123SM  H16G10826   6.094  -0.412  15.111  2.6025 -1.2091  0.1214
   8123SM  C17F10827   6.076  -0.225  15.205  0.2252 -0.6999  0.1229
   8123SM  H17F10828   5.991  -0.189  15.144  1.4954  2.7552  0.1662
   8123SM  H17G10829   6.151  -0.143  15.210 -0.6679  0.2313 -1.3612
   8123SM  C18F10830   6.035  -0.265  15.343  0.5852 -0.7526 -0.4354
   8123SM  H18F10831   5.988  -0.176  15.389  0.3662 -2.0753  2.0597
   8123SM  H18G10832   6.130  -0.282  15.398 -0.4197 -0.9074  1.3194
   8123SM  C19F10833   5.932  -0.378  15.353 -0.1272 -0.4294 -0.1854
   8123SM  H19F10834   5.924  -0.403  15.462  0.7918  0.3444  0.0725
   8123SM  H19G10835   5.970  -0.467  15.299  1.0204 -1.3019  1.9280
   8123SM  C20F10836   5.798  -0.340  15.311  0.2465  0.6189  0.7508
   8123SM  H20F10837   5.784  -0.320  15.202 -1.6186 -2.7124  0.2077
   8123SM  H20G10838   5.761  -0.250  15.363 -3.2624 -0.7909  1.0427
   8123SM  C21F10839   5.688  -0.448  15.317 -0.2935  0.5919  0.2025
   8123SM  H21F10840   5.716  -0.531  15.248 -2.7165 -1.4651  1.5330
   8123SM  H21G10841   5.595  -0.404  15.274 -0.5080 -2.3923 -2.8469
   8123SM  C22F10842   5.654  -0.515  15.450  0.6390  0.4037  0.0589
   8123SM  H22F10843   5.637  -0.434  15.525 -2.2999 -0.8842  0.9451
   8123SM  H22G10844   5.747  -0.567  15.483  0.6899 -0.1666 -0.9540
   8123SM  C23F10845   5.532  -0.600  15.454 -0.2071 -0.1854 -0.4799
   8123SM  H23F10846   5.542  -0.662  15.546  5.0022  1.2068  0.2175
   8123SM  H23G10847   5.528  -0.673  15.371  0.9747 -0.2274 -0.5079
   8123SM  H23H10848   5.439  -0.538  15.459  1.2957  2.3697 -1.8758
   8223SM     N10849   5.263   0.156  13.115 -0.4004  0.0845 -0.7464
   8223SM   C1510850   5.308   0.191  13.253 -0.4929  0.2610 -1.0701
   8223SM  H15A10851   5.368   0.123  13.312 -2.1811 -1.0535 -0.7935
   8223SM  H15B10852   5.220   0.214  13.312 -0.1194  0.4788 -0.5940
   8223SM  H15C10853   5.365   0.283  13.252  2.8362 -1.6299 -0.3378
   8223SM   C1410854   5.208   0.006  13.117  0.1290  0.1043  0.7132
   8223SM  H14A10855   5.138  -0.006  13.199  0.3603 -0.5877  0.8143
   8223SM  H14B10856   5.284  -0.068  13.135  0.9702  0.6191 -0.5707
   8223SM  H14C10857   5.156  -0.011  13.024 -1.7040  2.1035  1.2765
   8223SM   C1310858   5.149   0.240  13.077  0.7421  0.0625 -0.2950
   8223SM  H13A10859   5.171   0.345  13.067 -0.0909  0.2660 -0.0608
   8223SM  H13B10860   5.067   0.223  13.145 -0.4917 -1.1351 -1.9978
   8223SM  H13C10861   5.113   0.206  12.981  0.1236  1.2252 -0.4946
   8223SM   C1210862   5.379   0.163  13.013 -0.0505 -0.2614  0.5369
   8223SM  H12A10863   5.340   0.124  12.921  1.3251  0.4007 -0.3700
   8223SM  H12B10864   5.449   0.084  13.037 -0.2149 -0.9310 -1.0510
   8223SM   C1110865   5.446   0.296  12.992  0.3118  0.3823 -0.4729
   8223SM  H11A10866   5.375   0.378  12.971 -0.1914  0.5417  1.6753
   8223SM  H11B10867   5.513   0.292  12.903  0.7717  0.0106 -0.1207
   8223SM     P10868   5.670   0.383  13.107  0.3594  0.5304 -0.2200
   8223SM   O1310869   5.761   0.270  13.068 -0.1113 -0.1492  0.0899
   8223SM   O1410870   5.686   0.504  13.026  0.0475  0.0046  0.6065
   8223SM   O1110871   5.699   0.412  13.257 -0.2367 -0.0584 -0.2059
   8223SM   O1210872   5.518   0.334  13.107  0.3025  0.2305  0.4293
   8223SM   C1S10873   5.625   0.357  13.365  0.5640 -0.2984 -0.3342
   8223SM   H1S10874   5.540   0.296  13.327  1.3489 -1.6444 -0.0059
   8223SM   H1T10875   5.582   0.436  13.430  0.0007  0.0265 -1.0888
   8223SM    NF10876   5.632   0.221  13.560  0.5917  0.6064  0.2693
   8223SM   HNF10877   5.614   0.269  13.646 -1.4605  1.4784 -0.5772
   8223SM   C2S10878   5.715   0.273  13.459  0.4242  0.5942 -0.4006
   8223SM   H2S10879   5.751   0.182  13.407 -4.2440 -1.4451 -0.5782
   8223SM   C3S10880   5.839   0.358  13.515  0.2899  0.0313  0.7287
   8223SM   H3S10881   5.806   0.438  13.584 -0.6997  0.5657 -0.3397
   8223SM    O310882   5.919   0.409  13.408 -0.3281 -0.5555  0.5652
   8223SM   HO310883   5.867   0.395  13.329 -0.6961 -1.3681  0.9378
   8223SM   C4S10884   5.936   0.270  13.591  0.4035  0.0087  0.3919
   8223SM   H4S10885   5.981   0.187  13.534 -1.8321 -0.0809 -1.3711
   8223SM   C5S10886   5.953   0.272  13.725 -0.2759  0.3411 -0.1042
   8223SM   H5S10887   5.902   0.352  13.781 -1.4116 -0.3934 -0.0644
   8223SM   C6S10888   6.044   0.180  13.797 -0.1713  0.0149 -0.4342
   8223SM   H6S10889   6.150   0.210  13.777 -0.2427  0.5262 -0.0502
   8223SM   H6T10890   6.030   0.077  13.756 -2.7890 -0.0716  0.5177
   8223SM   C7S10891   6.016   0.190  13.947 -0.6402 -0.3773 -0.4686
   8223SM   H7S10892   5.906   0.178  13.958 -0.6289 -1.9905 -1.7844
   8223SM   H7T10893   6.046   0.292  13.982 -0.3069 -0.7138  0.2599
   8223SM   C8S10894   6.097   0.098  14.047  0.5363 -0.2507  0.6697
   8223SM   H8S10895   6.200   0.096  14.006  0.2531  0.5951 -0.1054
   8223SM   H8T10896   6.059  -0.007  14.042  0.9080 -0.3587  0.0094
   8223SM   C9S10897   6.091   0.149  14.194  0.6986 -0.4148  0.3986
   8223SM   H9S10898   6.094   0.260  14.195 -2.5323  0.2011 -5.9342
   8223SM   H9T10899   6.180   0.105  14.242 -0.1128 -1.7002  0.7786
   8223SM  C10S10900   5.972   0.108  14.285  0.0955 -0.1472  0.6209
   8223SM  H10S10901   5.954  -0.001  14.278 -0.1554 -0.0498 -0.5107
   8223SM  H10T10902   5.878   0.160  14.257 -1.1225 -0.7368  3.2368
   8223SM  C11S10903   5.990   0.145  14.434 -0.4652 -0.0657 -1.0201
   8223SM  H11S10904   5.969   0.255  14.439 -2.5344 -0.3800 -1.7429
   8223SM  H11T10905   6.096   0.124  14.459 -0.1913 -1.4524 -3.1417
   8223SM  C12S10906   5.894   0.071  14.528  0.0483  0.1078  0.6635
   8223SM  H12S10907   5.884  -0.038  14.510 -1.4076  0.0602  1.5687
   8223SM  H12T10908   5.793   0.102  14.494  1.4191 -0.3773 -4.6398
   8223SM  C13S10909   5.911   0.090  14.677  0.0946  0.5711 -0.3960
   8223SM  H13S10910   5.936   0.197  14.693  0.8487  0.2163  0.9862
   8223SM  H13T10911   5.985   0.019  14.720 -1.3881 -1.7649 -1.4646
   8223SM  C14S10912   5.776   0.058  14.759  1.0639 -0.7368  0.3090
   8223SM  H14S10913   5.688   0.115  14.723  1.9242  0.9213  0.7284
   8223SM  H14T10914   5.794   0.095  14.862 -3.0462  0.0542  0.9184
   8223SM  C15S10915   5.728  -0.095  14.765 -0.0678  0.0304 -0.3364
   8223SM  H15S10916   5.804  -0.152  14.824 -2.3170 -1.2197  1.5262
   8223SM  H15T10917   5.714  -0.148  14.669 -2.3476 -1.0633  0.5205
   8223SM  C16S10918   5.603  -0.115  14.855  0.1938  0.1331  0.0577
   8223SM  H16S10919   5.516  -0.059  14.814  1.3190  1.6640 -0.3425
   8223SM  H16T10920   5.626  -0.061  14.949  3.9267  0.3116 -0.8189
   8223SM  C17S10921   5.566  -0.257  14.887  0.1491  0.4393 -0.3847
   8223SM  H17S10922   5.659  -0.313  14.909  0.8719  2.0954  1.0306
   8223SM  H17T10923   5.521  -0.299  14.794 -2.4652 -1.3034  1.5518
   8223SM  C18S10924   5.465  -0.309  14.987 -0.5052  0.5280 -0.1028
   8223SM  H18S10925   5.486  -0.272  15.090  2.5568 -1.1699  0.0040
   8223SM  H18T10926   5.470  -0.420  14.991  0.6980  0.6082  1.6146
   8223SM  H18U10927   5.360  -0.284  14.961 -1.3034  0.1376  2.4494
   8223SM   C1F10928   5.552   0.112  13.538 -0.4168 -1.1005 -0.6783
   8223SM    OF10929   5.560   0.048  13.433  0.5369 -0.3818 -0.0673
   8223SM   C2F10930   5.450   0.087  13.646 -0.1812  0.5586 -0.0758
   8223SM   H2F10931   5.362   0.153  13.632 -0.8178 -0.3189 -0.2825
   8223SM   H2G10932   5.498   0.113  13.743  0.8283  3.7918 -1.3106
   8223SM   C3F10933   5.384  -0.057  13.646  0.1737  0.0880  0.4442
   8223SM   H3F10934   5.461  -0.122  13.693  0.2884  0.8494  1.3338
   8223SM   H3G10935   5.340  -0.091  13.549  0.1543  1.9093 -0.2135
   8223SM   C4F10936   5.262  -0.070  13.746  0.0589  0.2075 -0.5007
   8223SM   H4F10937   5.218  -0.172  13.735 -0.3402  0.1506  1.2615
   8223SM   H4G10938   5.184   0.003  13.713  0.7811  1.2886  0.1411
   8223SM   C5F10939   5.293  -0.051  13.896 -0.0840  1.0029  0.4661
   8223SM   H5F10940   5.333   0.051  13.913  0.2537  0.8700  0.4799
   8223SM   H5G10941   5.373  -0.124  13.922 -1.2375 -0.8309 -0.8886
   8223SM   C6F10942   5.163  -0.075  13.975  0.5051  0.0027 -0.6314
   8223SM   H6F10943   5.084  -0.112  13.907  1.0308 -2.1497 -0.1779
   8223SM   H6G10944   5.123   0.021  14.013 -4.0752 -1.7754 -0.4165
   8223SM   C7F10945   5.184  -0.165  14.102 -0.2372 -0.2539 -0.1613
   8223SM   H7F10946   5.252  -0.106  14.168 -0.6678  0.9322 -0.7443
   8223SM   H7G10947   5.228  -0.261  14.068  2.1054 -0.1889  2.3475
   8223SM   C8F10948   5.052  -0.198  14.183 -0.2303  0.9007  0.0622
   8223SM   H8F10949   4.980  -0.248  14.115  1.1468 -3.2654  1.3789
   8223SM   H8G10950   5.007  -0.099  14.207 -2.2676  0.1975 -0.6475
   8223SM   C9F10951   5.072  -0.279  14.313  0.6554  0.0753 -0.2631
   8223SM   H9F10952   5.179  -0.306  14.327  0.6079  0.5806  1.3131
   8223SM   H9G10953   5.007  -0.369  14.319  0.3726  0.2199 -1.0474
   8223SM  C10F10954   5.033  -0.187  14.434 -0.3855 -0.1121 -0.3623
   8223SM  H10F10955   4.928  -0.206  14.462 -0.4858 -2.2464 -1.8995
   8223SM  H10G10956   5.053  -0.080  14.411 -0.9023  0.1848  0.5347
   8223SM  C11F10957   5.125  -0.226  14.554 -0.3832  0.1802 -1.0149
   8223SM  H11F10958   5.229  -0.185  14.548  0.2904 -1.3880 -0.5362
   8223SM  H11G10959   5.127  -0.334  14.580  0.7508  0.5907  0.7635
   8223SM  C12F10960   5.058  -0.164  14.679  0.2548  0.3668  0.2806
   8223SM  H12F10961   4.948  -0.181  14.680  0.3767 -0.4458  0.8045
   8223SM  H12G10962   5.059  -0.053  14.670 -0.1300  0.3720  0.2661
   8223SM  C13F10963   5.124  -0.198  14.815  0.1090  0.0820  0.5688
   8223SM  H13F10964   5.231  -0.169  14.802  0.3024 -1.3210 -1.5885
   8223SM  H13G10965   5.127  -0.306  14.840 -1.7642  0.2621  1.7062
   8223SM  C14F10966   5.045  -0.130  14.930  0.4475 -0.7884 -0.0602
   8223SM  H14F10967   4.942  -0.172  14.926  0.0995 -0.2503  2.1348
   8223SM  H14G10968   5.042  -0.023  14.903 -0.5941 -0.7364  0.2550
   8223SM  C15F10969   5.096  -0.145  15.074 -0.7762  0.1170  0.0239
   8223SM  H15F10970   5.119  -0.251  15.096  0.3837  0.3714  0.0923
   8223SM  H15G10971   5.019  -0.114  15.148  0.0981 -0.6240  1.2916
   8223SM  C16F10972   5.222  -0.057  15.099  0.9361  0.2657  0.5299
   8223SM  H16F10973   5.195   0.050  15.087  0.6004  0.2063  0.7681
   8223SM  H16G10974   5.299  -0.077  15.021 -1.0297 -1.8215 -0.9918
   8223SM  C17F10975   5.262  -0.080  15.247  0.0797  0.2728 -0.8842
   8223SM  H17F10976   5.283  -0.189  15.253  0.5418  0.3614 -0.7813
   8223SM  H17G10977   5.178  -0.048  15.311  0.1700  2.0590 -1.5917
   8223SM  C18F10978   5.392  -0.011  15.293  0.1620  0.7101 -0.8606
   8223SM  H18F10979   5.385   0.100  15.304  1.4253  0.7703 -0.5057
   8223SM  H18G10980   5.466  -0.042  15.216  1.1942 -1.7869  1.0043
   8223SM  C19F10981   5.452  -0.065  15.426 -0.2708 -0.0544 -0.1453
   8223SM  H19F10982   5.448  -0.175  15.416 -1.3891  0.1878 -3.4423
   8223SM  H19G10983   5.380  -0.045  15.508  0.2746  2.5753 -0.2288
   8223SM  C20F10984   5.580   0.001  15.462 -0.4642 -0.0618  0.2089
   8223SM  H20F10985   5.569   0.108  15.434 -0.2262 -0.0170  0.2859
   8223SM  H20G10986   5.656  -0.035  15.389 -1.5374  1.8602 -1.9453
   8223SM  C21F10987   5.627  -0.019  15.607  0.1545  0.0473 -0.3160
   8223SM  H21F10988   5.621  -0.125  15.638 -0.4428 -0.0918 -0.8792
   8223SM  H21G10989   5.553   0.026  15.678 -0.2698 -2.3943  0.8730
   8223SM  C22F10990   5.768   0.030  15.620 -0.9927  0.3793 -0.5379
   8223SM  H22F10991   5.770   0.130  15.573 -3.3739  0.4857 -0.5509
   8223SM  H22G10992   5.838  -0.035  15.564 -0.4347 -1.0492  1.6608
   8223SM  C23F10993   5.815   0.033  15.767  0.3406 -0.9194  0.7385
   8223SM  H23F10994   5.921   0.066  15.776 -0.2825  0.8288  2.0951
   8223SM  H23G10995   5.801  -0.066  15.817 -1.4738 -0.9816  0.1630
   8223SM  H23H10996   5.752   0.107  15.821  2.3976  2.0336 -0.6373
   8323SM     N10997   0.608   0.634  12.498  1.1591 -0.3605 -0.6666
   8323SM   C1510998   0.646   0.500  12.451  0.4716 -0.1298 -0.2973
   8323SM  H15A10999   0.754   0.493  12.444  0.5522 -2.9243  1.7616
   8323SM  H15B11000   0.589   0.484  12.361 -2.7290  1.0651  1.3688
   8323SM  H15C11001   0.628   0.417  12.518 -1.7040 -0.2568 -0.9675
   8323SM   C1411002   0.693   0.733  12.433  0.2892 -0.2258 -0.6136
   8323SM  H14A11003   0.682   0.739  12.325  1.0007  0.8092 -0.6442
   8323SM  H14B11004   0.798   0.713  12.449  0.2153  0.7201  1.3301
   8323SM  H14C11005   0.670   0.830  12.474 -0.4480 -0.7153  0.1536
   8323SM   C1311006   0.469   0.661  12.443 -0.4721 -0.1131  0.0617
   8323SM  H13A11007   0.415   0.743  12.487 -0.0883 -0.7066  1.6939
   8323SM  H13B11008   0.403   0.584  12.481 -0.1909 -0.4631 -0.1562
   8323SM  H13C11009   0.467   0.664  12.335 -2.9363 -0.3815  0.0249
   8323SM   C1211010   0.609   0.650  12.649  0.6898 -0.4414  0.0374
   8323SM  H12A11011   0.563   0.746  12.669  1.9008  0.3188 -0.7191
   8323SM  H12B11012   0.710   0.658  12.687  0.1436  0.1485  1.4616
   8323SM   C1111013   0.543   0.526  12.724  0.1555 -0.5552 -0.5959
   8323SM  H11A11014   0.461   0.488  12.660  1.7274 -2.6460 -1.5143
   8323SM  H11B11015   0.488   0.565  12.812 -0.2051 -1.1067 -0.5722
   8323SM     P11016   0.734   0.444  12.876  0.2339  0.0130 -0.2377
   8323SM   O1311017   0.777   0.303  12.912  0.2590  0.6401 -0.1242
   8323SM   O1411018   0.843   0.535  12.843  0.0671 -0.4721  0.0617
   8323SM   O1111019   0.645   0.505  12.986 -0.4956  0.4795 -0.0561
   8323SM   O1211020   0.642   0.422  12.755  0.1111 -0.4929  0.7680
   8323SM   C1S11021   0.552   0.442  13.077  0.3528 -0.4630  0.7136
   8323SM   H1S11022   0.558   0.331  13.073 -2.3231 -0.6345 -0.2673
   8323SM   H1T11023   0.449   0.471  13.049  1.4159  0.8108 -2.3514
   8323SM    NF11024   0.517   0.392  13.318 -0.2474  0.4936  0.0294
   8323SM   HNF11025   0.437   0.430  13.364  1.0923  1.0588  2.0162
   8323SM   C2S11026   0.579   0.485  13.224 -0.2272  0.1865  0.1769
   8323SM   H2S11027   0.688   0.477  13.243 -0.4625  0.2882  1.7455
   8323SM   C3S11028   0.537   0.633  13.248  0.5797  0.2817  0.3103
   8323SM   H3S11029   0.427   0.644  13.241  0.6613  2.4544  1.5177
   8323SM    O311030   0.573   0.726  13.142  0.4140 -0.1205  0.3038
   8323SM   HO311031   0.615   0.674  13.073  0.2446  0.2968 -0.1281
   8323SM   C4S11032   0.576   0.680  13.382 -0.2351 -0.2945  0.6923
   8323SM   H4S11033   0.503   0.657  13.461 -0.6825  2.2204  1.0820
   8323SM   C5S11034   0.688   0.750  13.404  0.1268  0.4448 -0.8888
   8323SM   H5S11035   0.749   0.779  13.317  2.2037  1.4706  0.8022
   8323SM   C6S11036   0.741   0.803  13.532  0.3292 -0.3338 -0.6128
   8323SM   H6S11037   0.724   0.912  13.544  0.0629 -0.2697 -1.5173
   8323SM   H6T11038   0.850   0.784  13.535  0.1229 -1.5734 -0.7581
   8323SM   C7S11039   0.681   0.722  13.651 -0.2954  0.7269 -0.3168
   8323SM   H7S11040   0.703   0.613  13.649 -2.2347  0.1769  2.5720
   8323SM   H7T11041   0.571   0.736  13.659 -0.6191 -1.9749  1.0806
   8323SM   C8S11042   0.739   0.774  13.779  0.1936 -0.3496  0.5081
   8323SM   H8S11043   0.716   0.882  13.785 -0.7547 -0.6175  2.6130
   8323SM   H8T11044   0.849   0.787  13.777  0.0594  1.1934  1.5445
   8323SM   C9S11045   0.704   0.701  13.908  0.3459 -0.6143  0.3249
   8323SM   H9S11046   0.742   0.600  13.881  1.9149  0.1510 -0.4530
   8323SM   H9T11047   0.595   0.704  13.928  0.4711 -1.6730  1.2629
   8323SM  C10S11048   0.779   0.753  14.029  0.1770 -0.2051 -0.5622
   8323SM  H10S11049   0.752   0.859  14.051 -0.9034 -0.8524  1.4948
   8323SM  H10T11050   0.887   0.742  14.007  0.4821 -0.7857  1.1053
   8323SM  C11S11051   0.755   0.666  14.148 -0.4313  0.2658 -0.5779
   8323SM  H11S11052   0.805   0.568  14.132 -0.3602  0.0177  0.9782
   8323SM  H11T11053   0.646   0.661  14.168 -0.7304 -1.5087 -2.3248
   8323SM  C12S11054   0.829   0.720  14.273  0.0477  0.1516  0.0286
   8323SM  H12S11055   0.781   0.818  14.296  2.0823  1.0915  0.5130
   8323SM  H12T11056   0.934   0.750  14.254 -0.5131  1.7270 -0.7986
   8323SM  C13S11057   0.825   0.629  14.394 -0.1914  0.2565 -0.4145
   8323SM  H13S11058   0.885   0.536  14.392 -1.4889 -0.6464  0.5975
   8323SM  H13T11059   0.725   0.596  14.430  0.4293 -1.9550 -0.5933
   8323SM  C14S11060   0.893   0.692  14.521 -0.0122 -0.0141  0.3083
   8323SM  H14S11061   0.860   0.793  14.552  1.2229 -0.0827  1.9782
   8323SM  H14T11062   1.001   0.686  14.495 -0.1816 -1.2700 -0.2114
   8323SM  C15S11063   0.876   0.607  14.645  0.0345  0.6973  0.0217
   8323SM  H15S11064   0.918   0.505  14.633 -1.6297 -0.0060 -0.1477
   8323SM  H15T11065   0.766   0.599  14.665  0.1131  0.8232  0.5219
   8323SM  C16S11066   0.935   0.682  14.769 -0.0479 -0.5967  0.2437
   8323SM  H16S11067   0.903   0.789  14.768  1.1429 -0.2210 -1.8313
   8323SM  H16T11068   1.044   0.677  14.750  0.0465 -2.0597  1.0089
   8323SM  C17S11069   0.892   0.624  14.912  0.3553  0.0468  0.4035
   8323SM  H17S11070   0.944   0.526  14.922 -1.2293 -0.9508 -0.6006
   8323SM  H17T11071   0.781   0.613  14.915  0.2876  0.4615 -0.2605
   8323SM  C18S11072   0.928   0.719  15.033  0.7321  0.3047  0.9122
   8323SM  H18S11073   0.880   0.678  15.124  1.2151 -1.0645  0.5765
   8323SM  H18T11074   0.887   0.815  14.996 -1.5604 -1.4973 -1.6309
   8323SM  H18U11075   1.038   0.729  15.043  1.2572  2.6248 -4.0885
   8323SM   C1F11076   0.562   0.268  13.337 -0.5908  0.3445 -0.2172
   8323SM    OF11077   0.661   0.229  13.271 -0.5490  0.3259  0.2718
   8323SM   C2F11078   0.487   0.187  13.435  0.3467  0.8498 -1.1436
   8323SM   H2F11079   0.495   0.078  13.415  2.2549  0.6812  0.3464
   8323SM   H2G11080   0.378   0.208  13.426 -0.2154 -0.2372  1.9336
   8323SM   C3F11081   0.544   0.213  13.577 -0.8302 -0.1956 -0.5207
   8323SM   H3F11082   0.535   0.323  13.589  0.5515 -0.1558  0.3989
   8323SM   H3G11083   0.651   0.183  13.582 -1.0659 -0.9469  0.5450
   8323SM   C4F11084   0.473   0.151  13.695 -0.3641 -0.1836  0.0920
   8323SM   H4F11085   0.498   0.043  13.694  0.6085  0.0373 -0.8671
   8323SM   H4G11086   0.362   0.161  13.688 -0.3761  0.0057  0.4827
   8323SM   C5F11087   0.522   0.217  13.826  0.0275  0.6488  0.0282
   8323SM   H5F11088   0.438   0.202  13.896 -1.1930 -0.5823 -1.6445
   8323SM   H5G11089   0.540   0.327  13.822 -1.2285  0.9828  2.0732
   8323SM   C6F11090   0.659   0.157  13.865  0.6871 -0.2045  0.3811
   8323SM   H6F11091   0.731   0.180  13.784  0.6057  1.3061  0.7162
   8323SM   H6G11092   0.650   0.046  13.873  0.3754 -0.1669  0.5484
   8323SM   C7F11093   0.720   0.219  13.990 -0.4144 -0.1374 -0.2885
   8323SM   H7F11094   0.710   0.330  13.989 -0.8750 -0.1302  1.3918
   8323SM   H7G11095   0.824   0.185  14.008 -1.0503 -0.7656  2.8442
   8323SM   C8F11096   0.657   0.170  14.119 -0.4092 -0.0618  0.0133
   8323SM   H8F11097   0.691   0.065  14.133  1.7308  0.6470  0.3842
   8323SM   H8G11098   0.546   0.168  14.113 -0.3391 -1.7186 -3.2280
   8323SM   C9F11099   0.699   0.246  14.245 -0.2966 -0.3342 -0.1799
   8323SM   H9F11100   0.695   0.356  14.232  0.8386  0.0343  2.0003
   8323SM   H9G11101   0.804   0.223  14.273 -0.6932 -1.0998  0.7806
   8323SM  C10F11102   0.611   0.202  14.364 -0.6110  0.3038  0.4215
   8323SM  H10F11103   0.631   0.097  14.396 -1.2256 -0.4515 -1.5595
   8323SM  H10G11104   0.505   0.223  14.341 -0.3755  1.3554  0.2320
   8323SM  C11F11105   0.644   0.292  14.484  0.8037  0.5841  0.1368
   8323SM  H11F11106   0.619   0.395  14.452  0.4124  1.1153  2.0501
   8323SM  H11G11107   0.754   0.294  14.498  0.6351 -0.8427  2.0690
   8323SM  C12F11108   0.563   0.264  14.613  0.3984 -0.2004  0.0776
   8323SM  H12F11109   0.563   0.157  14.643  0.0573  0.0903  1.1624
   8323SM  H12G11110   0.458   0.287  14.584  0.6770 -0.1566 -0.9316
   8323SM  C13F11111   0.625   0.357  14.718  0.1111 -0.3800  0.2994
   8323SM  H13F11112   0.614   0.463  14.687 -1.9877 -0.1423  1.6471
   8323SM  H13G11113   0.730   0.332  14.744 -0.6245 -3.3536  0.8989
   8323SM  C14F11114   0.551   0.360  14.854  0.5772 -0.1525  0.1082
   8323SM  H14F11115   0.448   0.400  14.844  0.3334 -0.1184  2.3322
   8323SM  H14G11116   0.604   0.444  14.904  2.6326 -0.1918 -1.8848
   8323SM  C15F11117   0.542   0.221  14.924 -0.3839  1.0374 -0.1338
   8323SM  H15F11118   0.646   0.186  14.911 -0.2892  1.3946 -0.3530
   8323SM  H15G11119   0.483   0.138  14.879  0.5047 -2.0428  3.8387
   8323SM  C16F11120   0.498   0.235  15.075 -0.1208 -0.1475  0.0160
   8323SM  H16F11121   0.423   0.315  15.091 -0.6524 -0.2110 -1.9967
   8323SM  H16G11122   0.594   0.258  15.128  0.1204 -2.7368  0.8720
   8323SM  C17F11123   0.433   0.109  15.131  0.5264 -0.0639 -0.4799
   8323SM  H17F11124   0.508   0.028  15.115  1.6000  1.0853 -1.5010
   8323SM  H17G11125   0.350   0.087  15.061  0.8619  2.6804 -1.8808
   8323SM  C18F11126   0.373   0.128  15.268 -0.7972  0.6294  0.8361
   8323SM  H18F11127   0.297   0.209  15.262 -1.3869  0.1900  2.1423
   8323SM  H18G11128   0.456   0.149  15.339  1.8787 -0.2362 -1.8280
   8323SM  C19F11129   0.313  -0.000  15.324 -0.6106  0.0894  0.3079
   8323SM  H19F11130   0.387  -0.082  15.311 -0.5072  0.2720 -0.2714
   8323SM  H19G11131   0.229  -0.019  15.254  2.0138  0.7593 -3.3125
   8323SM  C20F11132   0.286   0.001  15.478 -0.7222 -0.0354 -0.3109
   8323SM  H20F11133   0.239   0.091  15.525  2.2238  2.8061 -2.3839
   8323SM  H20G11134   0.387  -0.001  15.523 -0.5301 -0.5896 -0.7597
   8323SM  C21F11135   0.212  -0.129  15.526  0.0066 -1.0076 -0.5386
   8323SM  H21F11136   0.281  -0.215  15.513 -1.3969 -2.5071  1.2681
   8323SM  H21G11137   0.122  -0.136  15.461 -1.3774  1.9402  0.8642
   8323SM  C22F11138   0.172  -0.116  15.676  0.5340 -0.5029 -0.1352
   8323SM  H22F11139   0.073  -0.165  15.688 -0.0953  0.8081  0.2259
   8323SM  H22G11140   0.154  -0.011  15.709 -0.3045 -0.4828 -0.6332
   8323SM  C23F11141   0.266  -0.184  15.774 -0.2490 -0.6252  0.2414
   8323SM  H23F11142   0.353  -0.115  15.781 -1.6387  1.4878 -1.9653
   8323SM  H23G11143   0.296  -0.282  15.730 -1.7028 -0.5011 -1.1037
   8323SM  H23H11144   0.221  -0.202  15.874 -1.5216 -2.9367 -0.6528
   8423SM     N11145   0.104   5.153  12.728 -0.1661  0.1816 -0.0541
   8423SM   C1511146   0.032   5.210  12.852  0.0783  0.2229  0.0997
   8423SM  H15A11147  -0.036   5.283  12.811 -0.6681 -0.6172 -0.1843
   8423SM  H15B11148   0.101   5.255  12.922  0.2090 -0.6296  0.5335
   8423SM  H15C11149  -0.034   5.132  12.888 -1.6567  1.4225 -0.3281
   8423SM   C1411150   0.003   5.132  12.621 -0.2593  0.3046 -0.6390
   8423SM  H14A11151  -0.072   5.060  12.649 -1.8872  1.6898 -1.2945
   8423SM  H14B11152   0.046   5.128  12.522  0.4055  3.5532 -0.6017
   8423SM  H14C11153  -0.060   5.219  12.612 -1.4408 -0.5771 -1.1045
   8423SM   C1311154   0.207   5.257  12.680 -0.0930 -0.2228  0.1585
   8423SM  H13A11155   0.258   5.218  12.593 -0.8652  0.5668 -0.6686
   8423SM  H13B11156   0.279   5.275  12.759  0.5679 -1.0568 -0.2259
   8423SM  H13C11157   0.162   5.350  12.651 -0.6718 -0.5187  0.1000
   8423SM   C1211158   0.174   5.024  12.765 -0.5420 -0.3068 -0.9455
   8423SM  H12A11159   0.227   4.997  12.675 -0.8190  0.7479 -1.4282
   8423SM  H12B11160   0.098   4.951  12.791 -1.3956  0.8377 -0.1349
   8423SM   C1111161   0.275   5.036  12.886 -0.2688  0.1003 -0.1083
   8423SM  H11A11162   0.341   5.122  12.862 -0.8995  0.7616  0.4660
   8423SM  H11B11163   0.339   4.945  12.888 -1.5539 -0.8336  1.2849
   8423SM     P11164   0.143   4.928  13.080 -0.2291  0.0830  0.5376
   8423SM   O1311165   0.006   4.916  13.025  0.4481 -0.5669  0.4559
   8423SM   O1411166   0.238   4.813  13.073  0.5390  0.2671  0.1861
   8423SM   O1111167   0.135   4.978  13.228  0.5596 -0.1336 -0.1922
   8423SM   O1211168   0.215   5.053  13.015  0.4164  0.5563  0.2616
   8423SM   C1S11169   0.079   5.106  13.261  0.3236  0.0107 -0.4175
   8423SM   H1S11170  -0.007   5.135  13.196  0.1253 -2.6929 -1.4735
   8423SM   H1T11171   0.154   5.187  13.246  0.2351  0.2934  0.6180
   8423SM    NF11172  -0.045   5.240  13.428 -0.2028 -0.1215 -0.0691
   8423SM   HNF11173  -0.003   5.303  13.493 -0.0565 -1.7004  1.4123
   8423SM   C2S11174   0.026   5.115  13.408 -0.7844 -0.5431  0.9899
   8423SM   H2S11175  -0.048   5.033  13.412  0.5829 -1.8962 -0.1618
   8423SM   C3S11176   0.135   5.077  13.511 -0.7904  0.4331 -0.3083
   8423SM   H3S11177   0.211   5.158  13.515  0.0961 -0.4462  1.0648
   8423SM    O311178   0.211   4.957  13.478  0.3364 -0.0061  0.4267
   8423SM   HO311179   0.176   4.929  13.393 -0.4119 -0.4197  0.8611
   8423SM   C4S11180   0.085   5.069  13.650 -0.0622  0.6588  0.9604
   8423SM   H4S11181   0.032   4.975  13.670  1.3469 -0.7645 -1.4218
   8423SM   C5S11182   0.119   5.150  13.748 -0.3194  0.0206 -0.0446
   8423SM   H5S11183   0.195   5.229  13.732  1.4114 -1.5086  0.3011
   8423SM   C6S11184   0.090   5.145  13.898  0.0961  0.0131  0.3678
   8423SM   H6S11185  -0.013   5.183  13.913  0.6066  2.5237 -1.8177
   8423SM   H6T11186   0.161   5.210  13.954  3.4541 -1.8162 -1.4371
   8423SM   C7S11187   0.092   4.999  13.967  0.2995  0.2599  0.2229
   8423SM   H7S11188   0.194   4.962  13.944 -0.4547 -1.5186 -0.4579
   8423SM   H7T11189   0.015   4.934  13.919  1.1596 -0.9280  0.4068
   8423SM   C8S11190   0.064   5.016  14.116  0.0534 -0.6816 -0.2052
   8423SM   H8S11191   0.078   5.124  14.139 -2.4220  0.0090 -1.5123
   8423SM   H8T11192   0.135   4.959  14.180  0.6948  1.0610  0.6886
   8423SM   C9S11193  -0.087   4.982  14.160 -0.0180  0.3056 -0.0020
   8423SM   H9S11194  -0.117   4.885  14.117 -1.7516  0.2442  1.2516
   8423SM   H9T11195  -0.162   5.054  14.121 -0.8040 -0.1607  0.6268
   8423SM  C10S11196  -0.098   4.967  14.311 -0.7377 -0.4324 -0.0860
   8423SM  H10S11197  -0.052   5.060  14.351 -0.5497 -0.5251 -0.0865
   8423SM  H10T11198  -0.035   4.884  14.349  0.1462  0.2124 -0.1262
   8423SM  C11S11199  -0.240   4.953  14.357 -0.1219 -0.4030 -0.1728
   8423SM  H11S11200  -0.261   4.845  14.371  4.9593 -1.8646 -1.6106
   8423SM  H11T11201  -0.312   4.994  14.283 -0.3815 -0.7097 -0.0905
   8423SM  C12S11202  -0.271   5.025  14.494 -0.3923 -0.2803  1.1091
   8423SM  H12S11203  -0.379   5.007  14.514 -0.5623  0.7976  1.2118
   8423SM  H12T11204  -0.264   5.132  14.466 -2.3371 -0.8434 -1.9835
   8423SM  C13S11205  -0.177   4.981  14.604 -0.1949  0.0051 -0.4511
   8423SM  H13S11206  -0.072   5.008  14.580 -0.1190  0.4891  0.3775
   8423SM  H13T11207  -0.190   4.871  14.615  0.6954 -0.0225  0.5152
   8423SM  C14S11208  -0.214   5.046  14.734 -0.1177  0.0515 -0.4555
   8423SM  H14S11209  -0.323   5.057  14.747 -0.1419 -1.1689  0.5927
   8423SM  H14T11210  -0.174   5.149  14.732  1.3659 -0.4268  1.6451
   8423SM  C15S11211  -0.167   4.978  14.864 -0.7212  0.7219  0.3110
   8423SM  H15S11212  -0.058   4.997  14.871 -0.2336 -1.5283 -0.3105
   8423SM  H15T11213  -0.182   4.868  14.863 -1.0550  0.7642  0.5352
   8423SM  C16S11214  -0.230   5.050  14.981 -0.4736 -0.4235 -0.5708
   8423SM  H16S11215  -0.340   5.045  14.965 -0.9915  0.0660  2.2410
   8423SM  H16T11216  -0.203   5.158  14.979 -0.3383 -0.4710 -1.5307
   8423SM  C17S11217  -0.213   4.977  15.116 -0.3212  0.3787  0.2638
   8423SM  H17S11218  -0.223   4.868  15.093  0.4270  0.4206 -0.3364
   8423SM  H17T11219  -0.286   5.000  15.195  1.7040 -2.4944  3.2468
   8423SM  C18S11220  -0.076   4.993  15.178  0.2188 -1.2145 -0.0189
   8423SM  H18S11221   0.002   4.986  15.099 -0.6292 -1.4561 -0.8561
   8423SM  H18T11222  -0.066   4.910  15.252  1.0537 -0.0099  1.2701
   8423SM  H18U11223  -0.053   5.087  15.231  0.3521 -1.3470  0.1622
   8423SM   C1F11224  -0.168   5.262  13.383 -0.3640 -0.6013 -0.2171
   8423SM    OF11225  -0.209   5.173  13.307 -0.1942 -0.2457  0.0150
   8423SM   C2F11226  -0.252   5.378  13.430 -1.0186  0.4539 -0.7490
   8423SM   H2F11227  -0.241   5.454  13.349  0.8991  2.0724  0.9115
   8423SM   H2G11228  -0.202   5.420  13.520 -1.7565  0.9918 -0.5721
   8423SM   C3F11229  -0.397   5.323  13.463 -0.7665  0.9690 -0.0135
   8423SM   H3F11230  -0.444   5.262  13.382 -0.1718 -0.1124  0.4397
   8423SM   H3G11231  -0.459   5.414  13.478 -0.2838  1.4768 -1.0134
   8423SM   C4F11232  -0.407   5.260  13.595  0.4741  0.0571  0.1407
   8423SM   H4F11233  -0.508   5.281  13.634  1.5062  0.8718  2.5447
   8423SM   H4G11234  -0.343   5.316  13.667 -0.8464  1.3597  0.3489
   8423SM   C5F11235  -0.391   5.104  13.595  0.1741  0.0271  0.1386
   8423SM   H5F11236  -0.289   5.078  13.560  0.8691  0.6500  1.6178
   8423SM   H5G11237  -0.467   5.062  13.527  1.1452  0.2419 -1.1095
   8423SM   C6F11238  -0.401   5.046  13.738 -0.2143  0.8099  0.0223
   8423SM   H6F11239  -0.501   5.054  13.785 -0.4705  0.4300 -0.4466
   8423SM   H6G11240  -0.320   5.089  13.800  0.3432 -0.2179  0.0270
   8423SM   C7F11241  -0.373   4.895  13.734 -0.1320  0.7653  0.2869
   8423SM   H7F11242  -0.264   4.887  13.753 -0.3021 -0.8808  0.7962
   8423SM   H7G11243  -0.402   4.840  13.642 -0.1978 -2.6125  2.1645
   8423SM   C8F11244  -0.440   4.811  13.842  0.3632 -0.1185  0.6167
   8423SM   H8F11245  -0.422   4.704  13.818 -1.3084 -0.4453  0.6747
   8423SM   H8G11246  -0.549   4.832  13.830  0.6381  1.1016  0.1258
   8423SM   C9F11247  -0.386   4.840  13.983  0.8768 -0.3365 -0.7986
   8423SM   H9F11248  -0.432   4.937  14.015 -0.4857 -1.2988  0.2901
   8423SM   H9G11249  -0.278   4.861  13.968  0.5122  2.3919 -0.2016
   8423SM  C10F11250  -0.422   4.725  14.080  0.2599  0.0022 -0.5053
   8423SM  H10F11251  -0.368   4.731  14.177  1.1783 -0.6487 -0.9637
   8423SM  H10G11252  -0.400   4.624  14.042 -1.2423 -0.1267 -1.0906
   8423SM  C11F11253  -0.580   4.727  14.113  0.2464 -0.2253  0.0939
   8423SM  H11F11254  -0.621   4.625  14.132 -1.8236  0.6577  0.6682
   8423SM  H11G11255  -0.627   4.766  14.020 -0.3441  1.8786  1.2301
   8423SM  C12F11256  -0.619   4.813  14.226  0.4333 -0.0748 -0.2028
   8423SM  H12F11257  -0.726   4.841  14.221  0.9358  2.0410 -0.5222
   8423SM  H12G11258  -0.563   4.909  14.221 -1.8414  1.3064 -0.4629
   8423SM  C13F11259  -0.590   4.745  14.364 -0.4971 -0.0828  0.0516
   8423SM  H13F11260  -0.480   4.729  14.374 -0.5231 -0.1382  0.2455
   8423SM  H13G11261  -0.647   4.649  14.363  0.9881 -1.0067  0.7686
   8423SM  C14F11262  -0.622   4.822  14.485 -0.0727  0.1087 -0.3223
   8423SM  H14F11263  -0.731   4.825  14.506  0.0638 -0.2773  0.4500
   8423SM  H14G11264  -0.593   4.930  14.480 -3.1909  1.0633 -0.2137
   8423SM  C15F11265  -0.549   4.747  14.597  0.4929 -0.2091 -0.0207
   8423SM  H15F11266  -0.440   4.758  14.582  0.5124  1.4647  1.0697
   8423SM  H15G11267  -0.574   4.640  14.578  1.0562 -0.2296 -0.6620
   8423SM  C16F11268  -0.596   4.785  14.738  0.1581  0.7063  0.8495
   8423SM  H16F11269  -0.701   4.751  14.753 -0.8227  3.1080 -0.0683
   8423SM  H16G11270  -0.609   4.895  14.743  0.5176  0.7240  1.5005
   8423SM  C17F11271  -0.490   4.743  14.842 -0.3673  0.3391 -0.4364
   8423SM  H17F11272  -0.405   4.814  14.828  1.6222 -1.7440  0.3953
   8423SM  H17G11273  -0.459   4.637  14.834  0.6505  0.4097  1.8966
   8423SM  C18F11274  -0.548   4.752  14.985  0.5713 -0.3245 -0.1388
   8423SM  H18F11275  -0.648   4.703  14.988  0.3235  0.0365 -1.6582
   8423SM  H18G11276  -0.558   4.860  15.009 -1.8357 -0.1383 -1.5441
   8423SM  C19F11277  -0.463   4.670  15.078  0.2924  0.3502 -0.3238
   8423SM  H19F11278  -0.360   4.708  15.063  1.3976 -3.2307 -3.5435
   8423SM  H19G11279  -0.446   4.564  15.048  1.5032 -0.1343  1.8464
   8423SM  C20F11280  -0.499   4.673  15.226 -0.6012 -0.0467  0.0490
   8423SM  H20F11281  -0.607   4.647  15.237 -0.2678 -1.6258 -0.2329
   8423SM  H20G11282  -0.471   4.775  15.261  2.1556 -1.0331  0.9638
   8423SM  C21F11283  -0.425   4.575  15.318 -0.2135  0.8248 -0.4646
   8423SM  H21F11284  -0.317   4.596  15.304 -0.3673  2.4389  0.5248
   8423SM  H21G11285  -0.434   4.472  15.277 -1.4024  0.2624  1.0900
   8423SM  C22F11286  -0.465   4.591  15.461 -0.2830  1.0450  0.2812
   8423SM  H22F11287  -0.454   4.693  15.502 -0.3294  0.7526  1.0465
   8423SM  H22G11288  -0.401   4.516  15.513 -2.0939 -1.7116 -1.2161
   8423SM  C23F11289  -0.611   4.544  15.478  0.9464 -0.4490 -0.3163
   8423SM  H23F11290  -0.630   4.522  15.585  2.0122  0.7136  0.1374
   8423SM  H23G11291  -0.648   4.466  15.408  0.9603  1.6491 -2.8140
   8423SM  H23H11292  -0.672   4.632  15.450  2.1809  0.0810 -1.4802
   8523SM     N11293   1.267   0.783  12.585  0.2628 -0.7764 -0.8442
   8523SM   C1511294   1.127   0.805  12.635  0.6522 -0.2956 -1.0258
   8523SM  H15A11295   1.073   0.723  12.681 -0.1799  0.1488 -1.1924
   8523SM  H15B11296   1.065   0.843  12.555  0.5484  1.3901 -0.1851
   8523SM  H15C11297   1.128   0.887  12.705 -1.9914 -1.0081 -0.0153
   8523SM   C1411298   1.265   0.658  12.503  0.1609 -0.6442 -0.2864
   8523SM  H14A11299   1.195   0.667  12.421  0.1152 -1.0751 -0.2997
   8523SM  H14B11300   1.238   0.574  12.566 -2.0896 -0.4944 -0.9905
   8523SM  H14C11301   1.367   0.634  12.473  1.6165  2.8193  1.3619
   8523SM   C1311302   1.301   0.900  12.492 -0.1262  0.6073  0.0850
   8523SM  H13A11303   1.400   0.897  12.449 -0.3179 -0.3968 -0.3024
   8523SM  H13B11304   1.296   0.994  12.546  1.6989  1.9762 -1.9570
   8523SM  H13C11305   1.227   0.906  12.412  0.4005  0.9293 -0.3854
   8523SM   C1211306   1.371   0.780  12.698 -0.2160 -0.7331  0.0414
   8523SM  H12A11307   1.366   0.867  12.762 -0.8246  0.3217 -1.3836
   8523SM  H12B11308   1.470   0.783  12.654 -0.5563 -0.2411 -0.7174
   8523SM   C1111309   1.361   0.658  12.790 -0.4091  0.9731 -0.1068
   8523SM  H11A11310   1.253   0.634  12.799 -0.4750  0.6636 -1.4380
   8523SM  H11B11311   1.400   0.692  12.888  0.2495  0.3384 -0.1369
   8523SM     P11312   1.411   0.409  12.837 -0.9176  0.2933  0.2070
   8523SM   O1311313   1.264   0.380  12.838 -0.2189  0.3171 -0.2546
   8523SM   O1411314   1.498   0.296  12.783  0.3209 -0.3892  0.4554
   8523SM   O1111315   1.436   0.461  12.989 -0.0110 -0.2071  0.1353
   8523SM   O1211316   1.439   0.544  12.752  0.4052  0.4389  0.0135
   8523SM   C1S11317   1.564   0.414  13.042 -0.2076  0.2801 -0.2636
   8523SM   H1S11318   1.650   0.438  12.975  1.4966  0.4745  1.8706
   8523SM   H1T11319   1.557   0.305  13.062 -0.4861  0.0929 -1.3170
   8523SM    NF11320   1.708   0.410  13.255 -0.5466 -0.6006 -0.0176
   8523SM   HNF11321   1.678   0.354  13.332  2.6276 -3.0661 -0.3839
   8523SM   C2S11322   1.599   0.479  13.181 -0.0026 -0.4999  0.4209
   8523SM   H2S11323   1.630   0.582  13.153  0.6617 -1.3342 -2.2176
   8523SM   C3S11324   1.481   0.512  13.275  0.6679  0.4638  0.0733
   8523SM   H3S11325   1.441   0.412  13.301  1.0788  0.0948 -0.6825
   8523SM    O311326   1.371   0.585  13.213 -1.0705 -0.4911  0.0239
   8523SM   HO311327   1.396   0.588  13.121  0.8484  1.2087  0.5331
   8523SM   C4S11328   1.501   0.581  13.405 -0.2839 -0.6053 -0.8735
   8523SM   H4S11329   1.556   0.677  13.403 -2.1302  0.7553  3.1050
   8523SM   C5S11330   1.485   0.529  13.534 -0.0347 -0.3582 -0.6541
   8523SM   H5S11331   1.473   0.420  13.546  0.0072 -0.3647 -0.6703
   8523SM   C6S11332   1.539   0.608  13.655 -0.0147  0.0942  0.1855
   8523SM   H6S11333   1.458   0.613  13.731 -0.5368  0.8674 -0.3913
   8523SM   H6T11334   1.574   0.710  13.626  1.4086 -0.6131 -0.6995
   8523SM   C7S11335   1.671   0.546  13.713 -0.9359 -0.0875 -0.5404
   8523SM   H7S11336   1.743   0.540  13.629  1.4192 -1.6340  1.4500
   8523SM   H7T11337   1.650   0.444  13.751 -0.9187  0.8451  2.1964
   8523SM   C8S11338   1.740   0.631  13.826 -0.9538  0.0971 -0.0318
   8523SM   H8S11339   1.757   0.739  13.805 -1.2970  0.7453  2.6066
   8523SM   H8T11340   1.844   0.596  13.837  0.2587  3.0545 -0.9566
   8523SM   C9S11341   1.666   0.613  13.954  0.4210  0.0694 -0.3237
   8523SM   H9S11342   1.633   0.508  13.968  2.0065 -0.4355 -0.2081
   8523SM   H9T11343   1.572   0.672  13.958 -1.1525 -2.2983 -0.6201
   8523SM  C10S11344   1.763   0.637  14.072  0.4082 -0.0226 -0.0095
   8523SM  H10S11345   1.817   0.733  14.064 -0.9510  0.7240 -0.6407
   8523SM  H10T11346   1.839   0.558  14.053  0.5083  0.1194 -0.2148
   8523SM  C11S11347   1.712   0.622  14.215  0.1665  0.0921 -0.1754
   8523SM  H11S11348   1.656   0.527  14.227 -1.5787  1.0558 -0.4330
   8523SM  H11T11349   1.645   0.710  14.226 -0.8590 -0.4565 -1.7128
   8523SM  C12S11350   1.822   0.627  14.318 -0.6579  0.0545  0.2845
   8523SM  H12S11351   1.855   0.733  14.330 -1.7709  0.2889  1.4519
   8523SM  H12T11352   1.912   0.570  14.287 -0.5239 -1.5456  3.2217
   8523SM  C13S11353   1.796   0.547  14.446 -0.1591 -0.1619  0.5717
   8523SM  H13S11354   1.780   0.444  14.409  1.2589  0.2537 -1.3342
   8523SM  H13T11355   1.697   0.584  14.482 -0.7485  0.0223 -1.1784
   8523SM  C14S11356   1.903   0.570  14.549 -0.8926 -0.4630 -0.0922
   8523SM  H14S11357   1.927   0.678  14.562  0.4222 -0.6132 -0.9980
   8523SM  H14T11358   2.003   0.535  14.516 -1.4059  1.2274 -3.9255
   8523SM  C15S11359   1.864   0.507  14.689 -0.5150 -0.5020  0.2317
   8523SM  H15S11360   1.855   0.401  14.656  0.8220 -0.6172  0.1611
   8523SM  H15T11361   1.769   0.550  14.728 -0.1178  0.4686  0.1584
   8523SM  C16S11362   1.974   0.528  14.787 -0.2075 -0.0952 -0.2297
   8523SM  H16S11363   1.987   0.635  14.814  0.5521 -0.3933  0.6525
   8523SM  H16T11364   2.074   0.503  14.745 -0.3490  0.2933 -0.8062
   8523SM  C17S11365   1.967   0.447  14.916  0.4486  0.0777  0.0381
   8523SM  H17S11366   2.064   0.435  14.969  0.3660 -0.1149  0.1463
   8523SM  H17T11367   1.947   0.340  14.890  0.8910 -0.5289  1.9974
   8523SM  C18S11368   1.872   0.518  15.023 -0.3572 -0.2019  0.1050
   8523SM  H18S11369   1.908   0.621  15.044 -0.4405 -0.3642  1.0851
   8523SM  H18T11370   1.878   0.463  15.120  0.0176  1.0211  0.7940
   8523SM  H18U11371   1.766   0.511  14.992 -0.5664  1.2324  0.4349
   8523SM   C1F11372   1.831   0.392  13.202  0.1245 -0.7080 -0.2027
   8523SM    OF11373   1.861   0.440  13.093  0.7178 -0.7605  0.0712
   8523SM   C2F11374   1.928   0.319  13.291  0.1174 -0.0579  0.2145
   8523SM   H2F11375   1.863   0.246  13.344 -1.1137  1.6559  1.1592
   8523SM   H2G11376   1.967   0.384  13.372  1.0911  2.1346 -1.8986
   8523SM   C3F11377   2.050   0.258  13.218  0.5845 -0.3071  0.6215
   8523SM   H3F11378   2.123   0.342  13.210  0.5771 -0.4261 -1.0292
   8523SM   H3G11379   2.020   0.222  13.117  0.8949 -0.3495  0.5431
   8523SM   C4F11380   2.114   0.139  13.293 -0.2901 -0.2157 -0.3635
   8523SM   H4F11381   2.182   0.076  13.231 -1.0199 -2.9626  1.4241
   8523SM   H4G11382   2.030   0.067  13.307 -0.1623 -0.2597  0.1709
   8523SM   C5F11383   2.182   0.184  13.426  0.6856  0.4145  0.7499
   8523SM   H5F11384   2.101   0.228  13.489  1.1626 -0.8929  2.3458
   8523SM   H5G11385   2.258   0.263  13.407 -3.5152  4.7628 -0.0639
   8523SM   C6F11386   2.245   0.066  13.498 -0.3382 -0.3549  0.2352
   8523SM   H6F11387   2.333   0.030  13.441 -0.3815  0.4822 -0.3615
   8523SM   H6G11388   2.175  -0.018  13.521 -0.5727 -0.8580 -2.0931
   8523SM   C7F11389   2.307   0.113  13.633  0.3317 -0.3689 -0.0447
   8523SM   H7F11390   2.235   0.181  13.684  1.8141  0.6499  0.7687
   8523SM   H7G11391   2.397   0.177  13.623  0.6625 -0.9021 -0.5261
   8523SM   C8F11392   2.337   0.007  13.752 -0.3405  0.1061  0.0335
   8523SM   H8F11393   2.417  -0.062  13.719 -1.7524 -1.0584 -1.1085
   8523SM   H8G11394   2.244  -0.050  13.772  0.2436 -1.1424 -0.7032
   8523SM   C9F11395   2.369   0.093  13.873 -0.5357 -0.1032 -0.1857
   8523SM   H9F11396   2.279   0.150  13.907  0.2212  0.6682  0.5656
   8523SM   H9G11397   2.443   0.171  13.845 -0.6465 -0.5810 -1.9607
   8523SM  C10F11398   2.415   0.015  13.997  0.6179  0.0338  0.1479
   8523SM  H10F11399   2.516  -0.026  13.976  1.2041  2.5646 -2.4159
   8523SM  H10G11400   2.345  -0.069  14.021  0.3215  0.6260  1.4334
   8523SM  C11F11401   2.417   0.102  14.112 -0.6722 -0.3123  0.1471
   8523SM  H11F11402   2.313   0.133  14.136  0.3099  2.9408  0.6902
   8523SM  H11G11403   2.472   0.195  14.089  2.0076 -0.8448  3.5241
   8523SM  C12F11404   2.490   0.047  14.231  0.5666  0.2574 -0.6542
   8523SM  H12F11405   2.600   0.049  14.212  0.6701 -1.1620 -0.3273
   8523SM  H12G11406   2.460  -0.057  14.256  1.1742  0.4493  1.0794
   8523SM  C13F11407   2.466   0.134  14.353 -1.1684  0.6852  0.5732
   8523SM  H13F11408   2.360   0.157  14.375 -1.6427  0.0422 -0.8951
   8523SM  H13G11409   2.520   0.230  14.342 -1.0214  0.6346  0.8435
   8523SM  C14F11410   2.522   0.071  14.482  0.5531 -0.5680  0.0567
   8523SM  H14F11411   2.631   0.054  14.484  0.6796 -0.1131  3.5455
   8523SM  H14G11412   2.472  -0.028  14.489  2.0893 -1.3687 -0.0657
   8523SM  C15F11413   2.487   0.167  14.602 -0.7351 -0.3331 -0.0762
   8523SM  H15F11414   2.379   0.179  14.626 -0.5691 -0.6623  0.8767
   8523SM  H15G11415   2.530   0.267  14.580 -2.1396  0.7134  1.6887
   8523SM  C16F11416   2.551   0.113  14.732 -0.3438 -0.5501  0.0014
   8523SM  H16F11417   2.660   0.097  14.714 -0.4581 -2.7279  0.9644
   8523SM  H16G11418   2.511   0.011  14.751  0.3864 -0.6399  1.1389
   8523SM  C17F11419   2.523   0.195  14.863 -0.2183  0.1319 -0.2620
   8523SM  H17F11420   2.536   0.128  14.951 -1.2313  0.9056  0.5022
   8523SM  H17G11421   2.418   0.231  14.854 -0.6886 -0.8508  0.9588
   8523SM  C18F11422   2.623   0.305  14.903  0.2478  0.0710  0.1812
   8523SM  H18F11423   2.656   0.361  14.812 -0.6260 -1.7890 -1.3558
   8523SM  H18G11424   2.706   0.243  14.942 -0.7402 -0.4218  1.5860
   8523SM  C19F11425   2.574   0.409  15.012 -0.3009  0.2604 -0.7380
   8523SM  H19F11426   2.510   0.350  15.081 -0.2541  3.5104  2.3001
   8523SM  H19G11427   2.510   0.489  14.970  1.3717  2.6200  1.0088
   8523SM  C20F11428   2.688   0.466  15.092 -0.0414  0.2193  0.1502
   8523SM  H20F11429   2.640   0.530  15.169  0.4076  1.0021 -0.2171
   8523SM  H20G11430   2.757   0.529  15.032 -2.0949  2.1106 -0.3562
   8523SM  C21F11431   2.760   0.363  15.184 -0.2443  0.6607  0.4671
   8523SM  H21F11432   2.810   0.286  15.120 -3.2331 -0.9058 -0.1713
   8523SM  H21G11433   2.691   0.309  15.251  0.9164 -1.2622  0.1908
   8523SM  C22F11434   2.874   0.421  15.269 -0.9618  0.3977  0.3865
   8523SM  H22F11435   2.907   0.340  15.337 -1.2590  0.3278  0.4480
   8523SM  H22G11436   2.818   0.496  15.329 -0.9464  1.3012 -0.6943
   8523SM  C23F11437   2.996   0.485  15.197  0.5075 -0.0218  0.7419
   8523SM  H23F11438   3.053   0.399  15.155  2.1555  0.4778  1.8374
   8523SM  H23G11439   3.059   0.536  15.273 -1.0288  1.2053  1.2387
   8523SM  H23H11440   2.970   0.569  15.130  1.1893  1.3487  2.1231
   8623SM     N11441   0.708   5.561  13.142 -0.4460  0.0950 -0.4378
   8623SM   C1511442   0.721   5.704  13.193  0.1356 -0.2277 -0.5013
   8623SM  H15A11443   0.787   5.705  13.278 -0.8522  0.5443  0.2775
   8623SM  H15B11444   0.619   5.725  13.223  0.2608 -0.0602 -0.1910
   8623SM  H15C11445   0.757   5.767  13.112  0.5566 -0.0771 -0.1985
   8623SM   C1411446   0.636   5.469  13.234 -0.0564 -0.8426  0.6071
   8623SM  H14A11447   0.713   5.419  13.291  0.1856 -1.0835  0.0811
   8623SM  H14B11448   0.589   5.387  13.182  0.8582 -1.9010  1.3968
   8623SM  H14C11449   0.562   5.523  13.292 -0.0267  0.1377 -0.2448
   8623SM   C1311450   0.632   5.561  13.014  0.3383 -0.3684 -0.3515
   8623SM  H13A11451   0.529   5.592  13.021  0.0817 -1.2582  0.0578
   8623SM  H13B11452   0.648   5.461  12.974  1.2706 -1.6944  2.9614
   8623SM  H13C11453   0.681   5.626  12.943  1.6570 -0.8844  0.0501
   8623SM   C1211454   0.839   5.501  13.110  0.7268  0.2000  0.2477
   8623SM  H12A11455   0.915   5.518  13.185 -0.0070 -0.5050  1.1612
   8623SM  H12B11456   0.877   5.547  13.020  0.5646 -0.1728 -0.0149
   8623SM   C1111457   0.849   5.349  13.090  0.0997  0.7266  0.2909
   8623SM  H11A11458   0.823   5.296  13.184  1.2367  2.1952  1.4761
   8623SM  H11B11459   0.956   5.321  13.073 -0.2395 -0.5210  0.0384
   8623SM     P11460   0.654   5.196  12.977 -0.1401 -0.3213 -0.0608
   8623SM   O1311461   0.533   5.276  12.941  0.7226 -0.8346 -0.3921
   8623SM   O1411462   0.685   5.081  12.889 -0.1044 -0.2601  0.0352
   8623SM   O1111463   0.653   5.153  13.129  0.1148  0.9262 -0.5653
   8623SM   O1211464   0.774   5.300  12.969  0.2503  0.0404  0.2192
   8623SM   C1S11465   0.554   5.053  13.168 -0.4402  0.5044  0.1705
   8623SM   H1S11466   0.556   4.966  13.099 -0.6772 -0.5912  1.4988
   8623SM   H1T11467   0.453   5.091  13.139 -0.1092 -0.4984 -2.6308
   8623SM    NF11468   0.486   4.887  13.345 -0.0742 -0.4688 -0.2335
   8623SM   HNF11469   0.402   4.911  13.393  0.2768  0.6471 -0.1601
   8623SM   C2S11470   0.566   4.997  13.313  0.4791  0.1948 -0.5109
   8623SM   H2S11471   0.665   4.965  13.353 -0.6760 -1.8046  0.9095
   8623SM   C3S11472   0.537   5.124  13.410  0.4716 -0.2300  0.3622
   8623SM   H3S11473   0.447   5.183  13.383  0.9074  0.4307  0.3484
   8623SM    O311474   0.641   5.211  13.396  0.0490  0.1612  0.1619
   8623SM   HO311475   0.647   5.213  13.300  0.8282  2.0374  0.2063
   8623SM   C4S11476   0.526   5.092  13.556 -0.3443 -0.0643  0.2696
   8623SM   H4S11477   0.433   5.129  13.602 -1.1195 -0.3688 -1.0063
   8623SM   C5S11478   0.622   5.041  13.632  0.4414 -0.8903 -0.4342
   8623SM   H5S11479   0.718   5.024  13.581  1.0873 -0.5373  0.6163
   8623SM   C6S11480   0.627   5.021  13.781  0.4721  0.7180 -0.4628
   8623SM   H6S11481   0.716   5.076  13.819  1.5446 -1.7442  0.8928
   8623SM   H6T11482   0.666   4.917  13.787 -1.2229  0.1254  0.9788
   8623SM   C7S11483   0.499   5.036  13.863 -0.0478  0.1442  0.5148
   8623SM   H7S11484   0.434   4.947  13.851 -2.2094  1.6684  0.3801
   8623SM   H7T11485   0.449   5.132  13.840 -0.8917  0.0891  2.0013
   8623SM   C8S11486   0.546   5.053  14.007 -0.0057  0.1242  0.4097
   8623SM   H8S11487   0.615   5.139  14.019 -0.0892 -0.1460  4.6519
   8623SM   H8T11488   0.610   4.966  14.035 -0.9784 -1.3636 -1.7121
   8623SM   C9S11489   0.428   5.064  14.104  0.5799 -0.1173  0.0219
   8623SM   H9S11490   0.378   4.964  14.106  1.3477 -0.5153  1.8326
   8623SM   H9T11491   0.363   5.148  14.075 -0.2441 -0.7852 -0.0894
   8623SM  C10S11492   0.474   5.105  14.250 -0.4598 -0.2639 -0.0795
   8623SM  H10S11493   0.539   5.196  14.247 -0.3392 -0.2345  2.1996
   8623SM  H10T11494   0.529   5.020  14.294  0.0260  0.8484  1.5447
   8623SM  C11S11495   0.350   5.146  14.340 -0.4672  0.2005 -0.8044
   8623SM  H11S11496   0.287   5.056  14.351  1.2444 -1.2635 -2.2290
   8623SM  H11T11497   0.295   5.229  14.290 -1.8589 -0.7236 -0.8406
   8623SM  C12S11498   0.389   5.186  14.474 -0.1031 -0.3900 -0.6989
   8623SM  H12S11499   0.469   5.262  14.479  0.5657 -1.1044 -0.0603
   8623SM  H12T11500   0.443   5.102  14.524  0.9552  2.0842  2.7163
   8623SM  C13S11501   0.273   5.239  14.551  0.3276  0.2754 -0.1207
   8623SM  H13S11502   0.188   5.168  14.544  0.2357  0.5051 -2.0743
   8623SM  H13T11503   0.236   5.331  14.500 -2.2863 -1.4572 -1.5938
   8623SM  C14S11504   0.299   5.263  14.701  0.7954 -0.5076  0.0061
   8623SM  H14S11505   0.376   5.343  14.710  1.0666 -0.9593  2.7967
   8623SM  H14T11506   0.334   5.171  14.751  2.4488  0.3668  0.5448
   8623SM  C15S11507   0.181   5.334  14.784 -0.6230  0.3505  0.0332
   8623SM  H15S11508   0.088   5.278  14.763 -0.4551 -0.6640  1.7822
   8623SM  H15T11509   0.167   5.438  14.748  1.2295  1.4784  2.2979
   8623SM  C16S11510   0.203   5.341  14.937 -0.0147  0.1815  0.1415
   8623SM  H16S11511   0.118   5.390  14.989  0.1271 -0.1045  0.6473
   8623SM  H16T11512   0.293   5.406  14.943  1.4055 -1.5901 -0.9818
   8623SM  C17S11513   0.208   5.201  14.999  0.1287  0.1480  0.4873
   8623SM  H17S11514   0.298   5.147  14.963 -0.6704 -0.2058 -1.0625
   8623SM  H17T11515   0.119   5.145  14.964 -1.1184  2.1158  0.3687
   8623SM  C18S11516   0.215   5.187  15.148  0.2524  0.3829 -0.1366
   8623SM  H18S11517   0.303   5.246  15.182 -0.0050 -0.4559  2.2122
   8623SM  H18T11518   0.222   5.080  15.179  0.9799  0.7827  1.1390
   8623SM  H18U11519   0.127   5.227  15.203  0.0341  1.4657 -1.2275
   8623SM   C1F11520   0.519   4.771  13.294 -0.7607  0.3064  0.5305
   8623SM    OF11521   0.616   4.756  13.217  0.0473  0.0330  0.1604
   8623SM   C2F11522   0.429   4.655  13.327  0.0024  0.1182  0.3419
   8623SM   H2F11523   0.451   4.594  13.237 -1.1579  0.8947 -0.4919
   8623SM   H2G11524   0.323   4.690  13.326  0.5726  2.1307  2.0717
   8623SM   C3F11525   0.460   4.574  13.453  0.2280  0.5046  0.1682
   8623SM   H3F11526   0.567   4.546  13.464 -0.1080 -2.1647 -2.1190
   8623SM   H3G11527   0.410   4.476  13.436  1.4151  0.2469 -2.4488
   8623SM   C4F11528   0.410   4.641  13.583 -0.0553  0.2122  0.8762
   8623SM   H4F11529   0.302   4.661  13.569  0.0810 -0.6253 -2.3363
   8623SM   H4G11530   0.458   4.740  13.595  0.1755  0.0916  0.9548
   8623SM   C5F11531   0.436   4.563  13.709 -0.5014 -0.1853 -0.6549
   8623SM   H5F11532   0.545   4.541  13.714  0.0494  2.5021  1.3803
   8623SM   H5G11533   0.379   4.469  13.719 -0.1274 -0.4021 -0.5176
   8623SM   C6F11534   0.400   4.654  13.832 -0.1488  0.0282  0.6217
   8623SM   H6F11535   0.292   4.679  13.838  0.3031  2.5139 -0.3613
   8623SM   H6G11536   0.468   4.742  13.831  0.8087 -0.6990 -0.5080
   8623SM   C7F11537   0.424   4.575  13.963  0.1538 -0.7005 -0.2105
   8623SM   H7F11538   0.535   4.570  13.968  0.1900  0.5355  1.0120
   8623SM   H7G11539   0.379   4.474  13.966  0.4689 -0.8482 -0.4497
   8623SM   C8F11540   0.380   4.654  14.096  0.1495 -0.6721  0.4959
   8623SM   H8F11541   0.272   4.680  14.095 -0.0173 -1.1046  2.4854
   8623SM   H8G11542   0.429   4.753  14.085 -0.3928 -0.5317 -0.7985
   8623SM   C9F11543   0.428   4.585  14.223  0.1283  0.6536 -0.0913
   8623SM   H9F11544   0.528   4.545  14.196 -0.3156 -0.5381 -0.0230
   8623SM   H9G11545   0.357   4.501  14.241 -1.2584  2.1879  1.9658
   8623SM  C10F11546   0.427   4.672  14.349 -0.8267  0.7170 -0.4310
   8623SM  H10F11547   0.501   4.752  14.326 -0.3305  0.2019 -0.6757
   8623SM  H10G11548   0.461   4.623  14.442 -0.3647  0.4335 -0.7409
   8623SM  C11F11549   0.287   4.723  14.380 -0.2591  0.4529  0.2229
   8623SM  H11F11550   0.211   4.651  14.343  0.2340  1.0039 -1.9902
   8623SM  H11G11551   0.265   4.809  14.313 -3.5788 -0.7361 -0.4067
   8623SM  C12F11552   0.275   4.744  14.531 -0.6325  0.0487  0.7130
   8623SM  H12F11553   0.364   4.797  14.570 -0.5620  1.5070 -1.2389
   8623SM  H12G11554   0.273   4.643  14.577  1.8822  0.3420  1.6089
   8623SM  C13F11555   0.145   4.819  14.569 -0.6192  0.1838  0.9263
   8623SM  H13F11556   0.067   4.758  14.519 -1.1218  1.0370  0.6477
   8623SM  H13G11557   0.135   4.920  14.524  1.0868 -0.5236 -1.1717
   8623SM  C14F11558   0.123   4.810  14.722 -0.0503 -0.4565  0.6017
   8623SM  H14F11559   0.025   4.861  14.738  1.2296  2.3015  0.2001
   8623SM  H14G11560   0.198   4.869  14.779 -0.7498 -0.0945  1.1786
   8623SM  C15F11561   0.117   4.673  14.790  0.0986  0.2056  0.8326
   8623SM  H15F11562   0.216   4.621  14.788 -1.1248 -2.2721 -0.3432
   8623SM  H15G11563   0.047   4.609  14.732  0.6942 -1.4440  1.8821
   8623SM  C16F11564   0.059   4.675  14.936  0.1640  0.4281 -0.5972
   8623SM  H16F11565  -0.052   4.683  14.931  0.0004 -0.4954  0.9202
   8623SM  H16G11566   0.099   4.762  14.992  0.2204  0.3169 -0.4628
   8623SM  C17F11567   0.089   4.536  15.009  0.2434  0.3585  0.4661
   8623SM  H17F11568   0.197   4.512  14.998  0.0759 -0.4081  0.4618
   8623SM  H17G11569   0.030   4.461  14.953  1.3917 -0.2724  0.0820
   8623SM  C18F11570   0.046   4.528  15.159  0.4204  0.3448  0.3709
   8623SM  H18F11571   0.057   4.423  15.191  0.0358 -0.1236 -0.9518
   8623SM  H18G11572  -0.063   4.551  15.161  0.5904  1.5535 -1.4010
   8623SM  C19F11573   0.126   4.613  15.257  0.2521  0.0126 -0.5804
   8623SM  H19F11574   0.104   4.722  15.248  2.0568  0.4918  0.3577
   8623SM  H19G11575   0.231   4.592  15.228  0.1265  0.1340 -1.1341
   8623SM  C20F11576   0.112   4.559  15.400  0.2547  0.7933  0.3840
   8623SM  H20F11577   0.132   4.450  15.395 -0.0567  0.7808 -1.2586
   8623SM  H20G11578   0.008   4.558  15.439 -0.6517 -1.3051 -1.8005
   8623SM  C21F11579   0.201   4.635  15.496 -0.0991 -0.2677  0.6510
   8623SM  H21F11580   0.138   4.718  15.535  0.1462  0.1192  0.2393
   8623SM  H21G11581   0.292   4.676  15.447 -0.5428 -0.5665 -0.4684
   8623SM  C22F11582   0.244   4.544  15.620 -0.7037  0.5497  0.1682
   8623SM  H22F11583   0.178   4.459  15.648  1.4193 -0.8000  1.3422
   8623SM  H22G11584   0.249   4.613  15.707  0.1724  1.4403 -0.5569
   8623SM  C23F11585   0.385   4.485  15.601  0.2928  0.3732 -0.2684
   8623SM  H23F11586   0.447   4.566  15.557  2.5025 -0.9634  0.2710
   8623SM  H23G11587   0.384   4.396  15.534  1.4037 -2.8598  3.6409
   8623SM  H23H11588   0.430   4.457  15.698  1.0859  2.1246 -0.0978
   8723SM     N11589   1.131   4.333  12.625  0.0457 -0.3737  0.3573
   8723SM   C1511590   1.150   4.194  12.592 -0.8043  0.3634  0.2643
   8723SM  H15A11591   1.078   4.136  12.649  0.7012 -0.3521  1.5256
   8723SM  H15B11592   1.255   4.173  12.605 -0.0778  2.4689 -1.6510
   8723SM  H15C11593   1.135   4.182  12.486  0.8590 -0.2341  0.0592
   8723SM   C1411594   1.226   4.418  12.540  0.4492  0.6274  0.0405
   8723SM  H14A11595   1.323   4.372  12.548  0.4820  0.5343 -0.7501
   8723SM  H14B11596   1.231   4.520  12.576 -0.3519  0.2875  1.1740
   8723SM  H14C11597   1.201   4.408  12.435  1.4899 -0.3690 -0.1361
   8723SM   C1311598   0.992   4.369  12.578 -0.5461  0.9112 -0.2558
   8723SM  H13A11599   0.997   4.359  12.471  0.3703 -2.5405 -0.0179
   8723SM  H13B11600   0.977   4.469  12.614 -0.9265  1.2757 -1.3842
   8723SM  H13C11601   0.918   4.297  12.610 -0.1139  1.4856  2.2498
   8723SM   C1211602   1.154   4.373  12.767 -0.1735  0.3509  0.8381
   8723SM  H12A11603   1.244   4.321  12.795  0.5720  0.1345 -1.7844
   8723SM  H12B11604   1.068   4.338  12.823 -0.8628  0.1274 -0.3426
   8723SM   C1111605   1.160   4.520  12.793 -0.3137 -0.1316  0.1861
   8723SM  H11A11606   1.248   4.568  12.744  1.1795 -0.1581  2.6569
   8723SM  H11B11607   1.186   4.530  12.901 -1.1541  1.0745  0.2958
   8723SM     P11608   1.028   4.739  12.755 -0.0509  0.1672  0.3051
   8723SM   O1311609   1.126   4.780  12.650  0.0240  0.2752 -0.0948
   8723SM   O1411610   0.889   4.785  12.729 -0.5782  0.4677  0.6283
   8723SM   O1111611   1.068   4.802  12.895  0.7519  0.5822 -0.7038
   8723SM   O1211612   1.032   4.580  12.764  0.2681 -0.1770  0.4490
   8723SM   C1S11613   1.001   4.726  13.006 -0.6208  0.4206 -0.4385
   8723SM   H1S11614   1.072   4.645  13.035  1.2161  2.4025  0.9041
   8723SM   H1T11615   0.900   4.686  12.984 -0.0910 -1.1888 -0.0692
   8723SM    NF11616   0.902   4.739  13.236  0.2986 -0.1097 -1.0085
   8723SM   HNF11617   0.806   4.766  13.233 -0.6931 -3.1578 -0.3518
   8723SM   C2S11618   0.996   4.809  13.141  0.3536 -0.2815  0.2923
   8723SM   H2S11619   1.094   4.813  13.192  0.8559  0.6763 -0.7007
   8723SM   C3S11620   0.976   4.964  13.109  0.4835 -0.1981  0.5199
   8723SM   H3S11621   0.885   4.974  13.045  0.5513  0.8802  0.5734
   8723SM    O311622   1.074   5.027  13.025  0.0776 -0.3407  0.0350
   8723SM   HO311623   1.115   4.952  12.982 -1.1906  0.0707 -2.0322
   8723SM   C4S11624   0.954   5.050  13.234 -0.5226 -0.5944 -0.4575
   8723SM   H4S11625   0.857   5.095  13.257  0.2043  1.0683 -0.5132
   8723SM   C5S11626   1.059   5.092  13.314  0.7823  0.3133 -0.0998
   8723SM   H5S11627   1.163   5.064  13.293  0.6023 -0.6707  0.2857
   8723SM   C6S11628   1.039   5.177  13.437 -0.3158  0.1627 -0.5550
   8723SM   H6S11629   0.935   5.215  13.436 -0.7015 -0.8575 -0.4159
   8723SM   H6T11630   1.107   5.265  13.427  1.2063 -0.8620  0.3384
   8723SM   C7S11631   1.063   5.106  13.576  0.3633 -0.7582  0.1542
   8723SM   H7S11632   1.161   5.054  13.564 -0.8949 -3.0146 -1.0697
   8723SM   H7T11633   0.980   5.034  13.588 -2.9103  2.5593 -0.7558
   8723SM   C8S11634   1.044   5.200  13.699 -0.0867  0.2031 -0.4299
   8723SM   H8S11635   0.957   5.264  13.674 -0.0878 -0.6607 -2.8052
   8723SM   H8T11636   1.127   5.272  13.716  0.0328 -0.2469  1.0593
   8723SM   C9S11637   1.013   5.121  13.832 -0.5687  0.0909  0.4683
   8723SM   H9S11638   1.107   5.066  13.855 -0.7208  0.5079  2.1950
   8723SM   H9T11639   0.932   5.049  13.806  1.8516 -1.9269 -2.3124
   8723SM  C10S11640   0.985   5.205  13.955 -0.3262 -0.3298  0.4409
   8723SM  H10S11641   0.910   5.282  13.930 -1.1806 -0.5361  2.2122
   8723SM  H10T11642   1.082   5.252  13.981 -1.0954  1.3636  0.3908
   8723SM  C11S11643   0.925   5.113  14.062  0.5829  0.0707  0.5519
   8723SM  H11S11644   1.011   5.054  14.099  1.6404  1.3874  0.2581
   8723SM  H11T11645   0.836   5.054  14.032 -0.5771  2.2600 -0.5798
   8723SM  C12S11646   0.870   5.199  14.182 -0.1485 -0.2089 -0.4492
   8723SM  H12S11647   0.793   5.268  14.142 -0.0195 -0.9237 -2.0026
   8723SM  H12T11648   0.954   5.264  14.213  0.7776 -0.1828 -2.8245
   8723SM  C13S11649   0.824   5.100  14.288 -0.1684 -0.5227 -1.1457
   8723SM  H13S11650   0.897   5.017  14.300 -0.3925 -0.8509 -1.9364
   8723SM  H13T11651   0.739   5.038  14.252  0.9546 -2.1650 -1.0869
   8723SM  C14S11652   0.791   5.169  14.422  0.2059  0.0787 -0.1230
   8723SM  H14S11653   0.707   5.238  14.396 -0.4407 -0.9081 -0.7277
   8723SM  H14T11654   0.877   5.230  14.456 -0.6033  1.0715  0.1926
   8723SM  C15S11655   0.752   5.064  14.529 -0.4280 -0.1012  0.2765
   8723SM  H15S11656   0.832   4.989  14.541  1.3102  1.5857 -0.3365
   8723SM  H15T11657   0.672   5.008  14.476  0.0552 -0.3749 -0.1620
   8723SM  C16S11658   0.694   5.113  14.664 -0.6329  0.1906  0.3859
   8723SM  H16S11659   0.615   5.190  14.649  0.6508  1.5452  0.3829
   8723SM  H16T11660   0.761   5.188  14.710 -0.5039 -0.2869  0.9804
   8723SM  C17S11661   0.630   5.006  14.753  0.0283  0.7800 -0.5830
   8723SM  H17S11662   0.697   4.917  14.761  3.2865  2.9006 -2.1146
   8723SM  H17T11663   0.542   4.959  14.705 -0.5440  1.6423 -0.4027
   8723SM  C18S11664   0.594   5.057  14.897  0.2275 -0.0581 -0.6548
   8723SM  H18S11665   0.557   5.161  14.889  0.1010 -0.1002 -0.6192
   8723SM  H18T11666   0.679   5.060  14.968 -1.2639 -2.0069  1.3477
   8723SM  H18U11667   0.513   4.998  14.946  1.6372 -2.5056 -1.0919
   8723SM   C1F11668   0.935   4.631  13.307 -0.3421 -0.3477 -0.2768
   8723SM    OF11669   1.047   4.584  13.288  1.0562  0.1694  0.1360
   8723SM   C2F11670   0.836   4.569  13.394 -0.2936  0.5271 -0.4282
   8723SM   H2F11671   0.818   4.466  13.356  0.8533 -0.6942  2.1046
   8723SM   H2G11672   0.746   4.634  13.397 -0.1285  0.7896 -1.0093
   8723SM   C3F11673   0.880   4.554  13.542 -0.0464 -0.0803  0.1771
   8723SM   H3F11674   0.976   4.498  13.537  1.0874  1.4655  2.7236
   8723SM   H3G11675   0.797   4.500  13.592 -0.8612  0.7895 -0.1988
   8723SM   C4F11676   0.909   4.696  13.604 -0.0024  0.6851 -0.3651
   8723SM   H4F11677   0.832   4.771  13.579  0.4220  0.7993 -1.3579
   8723SM   H4G11678   1.010   4.730  13.571  1.5641 -1.0374  2.1962
   8723SM   C5F11679   0.908   4.689  13.760 -0.9488 -0.3065 -0.1536
   8723SM   H5F11680   0.805   4.657  13.786 -0.4834 -0.3101  1.8580
   8723SM   H5G11681   0.921   4.793  13.797 -1.1654 -0.9735  1.8881
   8723SM   C6F11682   1.020   4.595  13.806  0.6302  0.0489  0.1070
   8723SM   H6F11683   1.115   4.616  13.753  2.5148 -1.5143  2.6175
   8723SM   H6G11684   0.984   4.492  13.783 -2.4736  1.3306 -1.3613
   8723SM   C7F11685   1.049   4.608  13.958 -0.1853 -0.2888  0.2783
   8723SM   H7F11686   1.142   4.549  13.972  0.0141  0.0610  0.4533
   8723SM   H7G11687   0.963   4.555  14.003 -1.0214 -0.8377 -1.8667
   8723SM   C8F11688   1.057   4.749  14.017  0.0435 -0.1956 -0.4602
   8723SM   H8F11689   0.957   4.798  14.024  0.5337  0.6694  0.7141
   8723SM   H8G11690   1.102   4.818  13.942 -0.1332  0.2056 -0.2050
   8723SM   C9F11691   1.112   4.761  14.164  0.2092 -0.3979 -0.1070
   8723SM   H9F11692   1.110   4.868  14.192 -1.1896 -0.5670  0.4801
   8723SM   H9G11693   1.214   4.716  14.160  0.2362 -0.2996 -0.5640
   8723SM  C10F11694   1.033   4.697  14.291 -0.1056 -0.4876  0.0350
   8723SM  H10F11695   1.013   4.588  14.280 -3.0882 -0.3988  3.0874
   8723SM  H10G11696   0.933   4.745  14.296  0.4758  0.6341  2.4960
   8723SM  C11F11697   1.103   4.719  14.424  0.3338 -0.3748  0.4232
   8723SM  H11F11698   1.104   4.827  14.452  0.2151 -0.3774  0.4369
   8723SM  H11G11699   1.207   4.681  14.410  0.2040 -0.0864 -1.6323
   8723SM  C12F11700   1.024   4.641  14.537  0.5836 -0.1759 -0.0880
   8723SM  H12F11701   1.025   4.533  14.514  0.4521  0.0276 -1.0828
   8723SM  H12G11702   0.921   4.682  14.546  0.2898 -0.5529 -1.5029
   8723SM  C13F11703   1.092   4.671  14.664 -0.3440  1.0392  0.5737
   8723SM  H13F11704   1.078   4.779  14.689 -1.5161  0.6820  1.5534
   8723SM  H13G11705   1.198   4.641  14.648 -0.8241 -0.0625 -0.6571
   8723SM  C14F11706   1.024   4.597  14.778  1.0130  0.5124 -0.3269
   8723SM  H14F11707   1.036   4.492  14.744 -0.7684 -0.1153  0.8281
   8723SM  H14G11708   0.914   4.609  14.775  1.1267  2.1486  0.9648
   8723SM  C15F11709   1.078   4.616  14.918 -0.6423  0.0100 -0.3747
   8723SM  H15F11710   1.050   4.722  14.936  0.2657  0.2840 -0.5080
   8723SM  H15G11711   1.189   4.621  14.920 -0.6598  0.3014  1.2261
   8723SM  C16F11712   1.027   4.524  15.027  0.0458  0.4753  0.1084
   8723SM  H16F11713   1.080   4.427  15.023 -2.4620 -0.9489 -1.6735
   8723SM  H16G11714   0.918   4.503  15.017 -0.6815  3.6265  0.3652
   8723SM  C17F11715   1.050   4.594  15.161  0.3925  0.2597  0.2862
   8723SM  H17F11716   0.968   4.669  15.170  0.2592  0.0289  1.0669
   8723SM  H17G11717   1.146   4.649  15.155 -0.1351  1.0859 -0.8858
   8723SM  C18F11718   1.047   4.494  15.275 -0.3545 -0.4554 -0.2177
   8723SM  H18F11719   1.104   4.400  15.259 -0.9088 -0.7272 -0.6521
   8723SM  H18G11720   0.938   4.473  15.287 -0.1343 -0.9205  1.2972
   8723SM  C19F11721   1.087   4.552  15.412 -0.3997 -0.3566  0.3710
   8723SM  H19F11722   1.063   4.488  15.499 -1.1809 -0.0641  0.3812
   8723SM  H19G11723   1.044   4.654  15.426  1.2820  0.4907 -0.3231
   8723SM  C20F11724   1.240   4.588  15.429 -0.6105 -0.2277  0.6580
   8723SM  H20F11725   1.261   4.673  15.361 -1.5316 -1.6496 -1.5287
   8723SM  H20G11726   1.298   4.499  15.394 -3.5400 -1.8346 -0.5007
   8723SM  C21F11727   1.273   4.639  15.572 -0.1578  0.0976 -0.2926
   8723SM  H21F11728   1.221   4.574  15.645 -2.4674  3.9432  1.8441
   8723SM  H21G11729   1.235   4.744  15.577  2.1711  0.9454  1.3878
   8723SM  C22F11730   1.417   4.626  15.602 -0.4306 -0.5077 -0.1355
   8723SM  H22F11731   1.468   4.700  15.538  0.2923  0.6812  1.7368
   8723SM  H22G11732   1.449   4.520  15.593 -0.1490 -0.9545  4.0237
   8723SM  C23F11733   1.458   4.666  15.741  0.0088 -0.1227  0.1183
   8723SM  H23F11734   1.426   4.770  15.764  0.6368 -0.2098  1.4789
   8723SM  H23G11735   1.569   4.664  15.749 -0.0274 -0.8128  0.5743
   8723SM  H23H11736   1.424   4.600  15.824  1.5462  1.6608  2.2989
   8823SM     N11737   3.980   5.797  13.177 -0.0947 -0.3809  0.2725
   8823SM   C1511738   3.945   5.938  13.196 -0.6415 -0.2488 -0.2186
   8823SM  H15A11739   3.995   5.980  13.283 -0.7609  0.9339 -0.6990
   8823SM  H15B11740   3.838   5.952  13.194 -0.4844  0.9627 -1.5213
   8823SM  H15C11741   3.980   5.988  13.107 -0.2471 -1.9369 -1.0430
   8823SM   C1411742   3.927   5.709  13.292  0.3707  0.3150 -0.4963
   8823SM  H14A11743   3.965   5.731  13.391 -1.2384 -3.0078  1.0186
   8823SM  H14B11744   3.964   5.609  13.273  3.5376  0.2886  4.0715
   8823SM  H14C11745   3.819   5.714  13.292  0.3311  0.4994  1.9193
   8823SM   C1311746   3.913   5.759  13.043 -0.2064 -0.0977 -0.3601
   8823SM  H13A11747   3.809   5.789  13.039 -0.0138  0.9198  1.3665
   8823SM  H13B11748   3.943   5.656  13.027  1.1677  0.1533  0.4690
   8823SM  H13C11749   3.959   5.806  12.958 -1.0098 -0.2863 -0.9114
   8823SM   C1211750   4.131   5.779  13.178  0.2831  0.1678 -0.0841
   8823SM  H12A11751   4.159   5.780  13.282 -2.4665  0.5488  0.7168
   8823SM  H12B11752   4.167   5.863  13.119 -0.7916  0.3251 -0.5446
   8823SM   C1111753   4.191   5.651  13.110  0.0189 -0.0843 -0.0138
   8823SM  H11A11754   4.301   5.663  13.109  0.1844 -1.0272  1.7912
   8823SM  H11B11755   4.158   5.660  13.005 -1.2225  2.1002  0.4975
   8823SM     P11756   4.081   5.410  13.111 -0.2864 -0.3795 -0.1295
   8823SM   O1311757   3.946   5.441  13.077 -0.0102  0.2785  0.1596
   8823SM   O1411758   4.170   5.361  13.007 -0.1377  0.3676  0.1446
   8823SM   O1111759   4.071   5.305  13.220  0.3122 -0.8144  0.1140
   8823SM   O1211760   4.144   5.534  13.182  0.0282  0.1201  0.4587
   8823SM   C1S11761   4.182   5.259  13.289 -0.4691 -0.2591 -1.1106
   8823SM   H1S11762   4.276   5.312  13.260  1.2467 -0.8226  2.8473
   8823SM   H1T11763   4.200   5.151  13.272  0.8499 -0.2940  0.3111
   8823SM    NF11764   4.264   5.225  13.525  0.8425  0.1421  0.2251
   8823SM   HNF11765   4.268   5.139  13.576 -0.6310 -0.1345 -0.0938
   8823SM   C2S11766   4.146   5.267  13.446 -0.5683  0.3673  0.2214
   8823SM   H2S11767   4.124   5.373  13.472  0.8742  0.2420  2.1783
   8823SM   C3S11768   4.016   5.181  13.482  0.3749  0.0071 -0.3394
   8823SM   H3S11769   4.050   5.078  13.458  0.2468  0.7368 -4.4113
   8823SM    O311770   3.900   5.199  13.401 -0.1695 -0.0608  1.0138
   8823SM   HO311771   3.926   5.256  13.328 -2.1166 -1.6418 -1.0922
   8823SM   C4S11772   3.986   5.196  13.634 -0.3736  0.1816 -0.0343
   8823SM   H4S11773   4.053   5.144  13.704 -1.0323  0.0888  0.5245
   8823SM   C5S11774   3.908   5.292  13.687 -0.3474 -0.3314 -0.8394
   8823SM   H5S11775   3.864   5.365  13.618  0.0413 -0.6519 -1.4408
   8823SM   C6S11776   3.892   5.319  13.839 -0.4953 -0.3220  1.1679
   8823SM   H6S11777   3.784   5.308  13.863 -0.9933  0.4247 -0.5634
   8823SM   H6T11778   3.918   5.424  13.865 -2.4258  0.6208 -0.4897
   8823SM   C7S11779   3.972   5.226  13.935  0.2395  0.3281  0.3380
   8823SM   H7S11780   4.078   5.257  13.930  0.2445  0.4431  1.0254
   8823SM   H7T11781   3.974   5.119  13.904 -0.7798  0.5192 -0.4641
   8823SM   C8S11782   3.918   5.229  14.081 -0.1267  0.2659  0.7376
   8823SM   H8S11783   3.988   5.171  14.145 -0.5128  0.6414  1.5246
   8823SM   H8T11784   3.817   5.183  14.085 -0.1556  0.4171  2.4187
   8823SM   C9S11785   3.909   5.364  14.148 -0.4422 -0.5794 -0.7191
   8823SM   H9S11786   3.824   5.420  14.105 -1.5877  0.4022  2.5389
   8823SM   H9T11787   3.999   5.427  14.136 -1.0822 -0.0002 -3.1310
   8823SM  C10S11788   3.877   5.352  14.300  0.1553  1.0449  0.4259
   8823SM  H10S11789   3.779   5.301  14.314  0.0113  1.3373  0.4789
   8823SM  H10T11790   3.867   5.459  14.328  0.2371  1.1579  0.0313
   8823SM  C11S11791   3.973   5.286  14.391 -0.0305 -0.2289 -0.6378
   8823SM  H11S11792   4.074   5.325  14.365  0.1154  1.1287  1.7065
   8823SM  H11T11793   3.971   5.178  14.365  0.8371 -0.0517 -1.5062
   8823SM  C12S11794   3.942   5.307  14.540 -0.3204  0.2510 -0.3590
   8823SM  H12S11795   3.839   5.272  14.566 -2.3127  4.2617 -1.9507
   8823SM  H12T11796   3.937   5.412  14.578 -0.8438 -0.1121  0.6241
   8823SM  C13S11797   4.039   5.230  14.627  0.2689 -0.2594 -0.1902
   8823SM  H13S11798   4.139   5.278  14.628  0.2452 -0.2161  0.2185
   8823SM  H13T11799   4.050   5.128  14.584  1.4726  0.8408 -2.7023
   8823SM  C14S11800   4.001   5.232  14.773 -0.4215 -0.5130 -0.7997
   8823SM  H14S11801   3.926   5.154  14.797 -0.5604 -0.1988 -0.2081
   8823SM  H14T11802   3.971   5.337  14.790 -1.2747 -0.7339 -0.9166
   8823SM  C15S11803   4.115   5.187  14.864  0.5084 -0.3783  0.2054
   8823SM  H15S11804   4.206   5.249  14.852 -1.3880  2.7607  1.0435
   8823SM  H15T11805   4.150   5.087  14.829 -0.8452 -1.2919  1.3101
   8823SM  C16S11806   4.085   5.191  15.012 -0.2699  0.3198 -0.3654
   8823SM  H16S11807   4.045   5.291  15.036  1.0120  0.5243  1.0388
   8823SM  H16T11808   4.182   5.189  15.067 -0.4474  1.5545  0.0172
   8823SM  C17S11809   3.980   5.079  15.057 -0.0903  0.0778 -0.6724
   8823SM  H17S11810   3.991   4.978  15.011 -0.8719  0.4724 -1.7620
   8823SM  H17T11811   3.884   5.112  15.013  0.5408  2.8859 -0.0957
   8823SM  C18S11812   3.973   5.074  15.203  0.4238  0.2508  0.0115
   8823SM  H18S11813   3.951   5.176  15.243 -2.8408 -0.7570  1.1815
   8823SM  H18T11814   4.065   5.047  15.259 -0.1869  1.2284  1.5541
   8823SM  H18U11815   3.897   5.003  15.243  1.1223  0.6267  2.1110
   8823SM   C1F11816   4.375   5.296  13.518  0.0918 -0.1050  0.3243
   8823SM    OF11817   4.381   5.389  13.434  0.1198  0.3365  0.0379
   8823SM   C2F11818   4.492   5.253  13.602 -0.2417 -0.1840  0.1361
   8823SM   H2F11819   4.585   5.291  13.555 -2.0347  1.1583 -2.6427
   8823SM   H2G11820   4.500   5.143  13.589 -0.8607 -0.2507  0.3035
   8823SM   C3F11821   4.488   5.294  13.748 -0.0242  0.8527 -0.0745
   8823SM   H3F11822   4.495   5.404  13.762  1.3807  0.9847 -1.4661
   8823SM   H3G11823   4.581   5.254  13.794 -0.9940 -0.1400  1.0809
   8823SM   C4F11824   4.368   5.238  13.839 -0.1837 -0.0648 -0.3620
   8823SM   H4F11825   4.377   5.128  13.846 -0.3374  0.0439  2.9274
   8823SM   H4G11826   4.266   5.265  13.803 -0.3826 -1.7474 -1.1421
   8823SM   C5F11827   4.389   5.281  13.979  0.0377  0.0552  0.8173
   8823SM   H5F11828   4.291   5.273  14.032 -1.3633 -1.1525 -1.7383
   8823SM   H5G11829   4.429   5.384  13.984  0.5554 -0.0434 -0.7290
   8823SM   C6F11830   4.491   5.190  14.051 -0.1263 -0.6640  0.3135
   8823SM   H6F11831   4.590   5.211  14.005 -0.6073  1.2185  0.0567
   8823SM   H6G11832   4.474   5.082  14.035 -2.5162 -0.0168 -2.4043
   8823SM   C7F11833   4.507   5.229  14.196 -0.4271  0.5124 -0.6365
   8823SM   H7F11834   4.408   5.222  14.246  0.8406  0.1318  1.9746
   8823SM   H7G11835   4.524   5.338  14.209 -0.1010  0.2450  1.4172
   8823SM   C8F11836   4.615   5.143  14.256  0.1762  0.1173 -0.4019
   8823SM   H8F11837   4.710   5.153  14.200  0.0558  0.6815 -0.5118
   8823SM   H8G11838   4.589   5.035  14.259 -0.7957  0.3613  1.0812
   8823SM   C9F11839   4.653   5.191  14.397  0.1897 -0.3159  0.0365
   8823SM   H9F11840   4.555   5.191  14.449 -0.0355 -0.4311 -0.3868
   8823SM   H9G11841   4.692   5.295  14.396 -2.2873  0.6687 -0.9150
   8823SM  C10F11842   4.755   5.093  14.463 -0.5760  0.2892  0.4144
   8823SM  H10F11843   4.858   5.123  14.434  0.1186 -1.3112  1.0626
   8823SM  H10G11844   4.734   4.991  14.423 -0.1733  0.1370  0.5827
   8823SM  C11F11845   4.762   5.084  14.618 -0.6538  0.1789 -0.4388
   8823SM  H11F11846   4.666   5.055  14.666 -0.5907  1.0064  0.2265
   8823SM  H11G11847   4.785   5.190  14.644  1.6673 -0.4922  0.4688
   8823SM  C12F11848   4.875   4.985  14.661  0.2872  0.2321 -0.0040
   8823SM  H12F11849   4.969   5.021  14.615  1.5073 -1.4237  1.1013
   8823SM  H12G11850   4.866   4.881  14.625  1.8696 -0.1071  0.5007
   8823SM  C13F11851   4.886   4.977  14.818 -0.0109  0.0277  0.3384
   8823SM  H13F11852   4.793   4.941  14.866  0.4664 -0.4879  0.9012
   8823SM  H13G11853   4.906   5.080  14.854 -1.6179  0.7476 -0.7044
   8823SM  C14F11854   5.011   4.894  14.851  0.0327  0.2438 -0.0465
   8823SM  H14F11855   5.083   4.939  14.779 -0.7462  0.1183 -0.9263
   8823SM  H14G11856   5.005   4.788  14.818  0.6650 -0.4124  1.7991
   8823SM  C15F11857   5.058   4.905  14.994  0.4620  0.1822 -0.4834
   8823SM  H15F11858   4.991   4.864  15.072 -0.5965  2.1515 -0.3170
   8823SM  H15G11859   5.061   5.014  15.015 -3.1967 -0.2271  3.6235
   8823SM  C16F11860   5.189   4.831  15.024  0.0643 -1.0501  0.9025
   8823SM  H16F11861   5.274   4.871  14.964  2.1836 -1.5849  3.3692
   8823SM  H16G11862   5.171   4.724  14.999 -0.9240 -0.6270 -0.3150
   8823SM  C17F11863   5.227   4.839  15.169  0.3322 -0.6391  0.3474
   8823SM  H17F11864   5.149   4.795  15.234  0.0335 -0.9897 -0.2355
   8823SM  H17G11865   5.242   4.941  15.212 -2.2506  0.9153 -2.0465
   8823SM  C18F11866   5.348   4.758  15.196 -0.0441  1.0848 -0.8254
   8823SM  H18F11867   5.436   4.801  15.143  1.4296 -1.1220 -0.2850
   8823SM  H18G11868   5.339   4.653  15.160 -1.3425  0.3392  1.5103
   8823SM  C19F11869   5.384   4.744  15.352 -0.0490  0.0556 -0.4196
   8823SM  H19F11870   5.293   4.697  15.395 -0.8576  0.5609 -1.5019
   8823SM  H19G11871   5.384   4.846  15.397 -1.5540  0.6898 -1.7564
   8823SM  C20F11872   5.504   4.650  15.388  0.5275 -0.4978 -0.7250
   8823SM  H20F11873   5.598   4.690  15.343 -0.0895  3.9572  1.4344
   8823SM  H20G11874   5.479   4.550  15.346 -0.3378 -0.9634  0.8280
   8823SM  C21F11875   5.521   4.628  15.539 -0.2514  0.2372  0.6160
   8823SM  H21F11876   5.430   4.570  15.568 -0.8290 -0.8175 -2.8310
   8823SM  H21G11877   5.531   4.729  15.585  0.2698  0.0661  0.8820
   8823SM  C22F11878   5.648   4.544  15.570 -0.3516  0.5959  0.3268
   8823SM  H22F11879   5.746   4.594  15.556 -0.5651  0.6825 -0.9912
   8823SM  H22G11880   5.651   4.455  15.503  2.0523 -0.1478  1.2982
   8823SM  C23F11881   5.635   4.487  15.713 -0.8729 -0.5071 -0.8042
   8823SM  H23F11882   5.640   4.570  15.786 -2.3980 -0.8874 -0.2347
   8823SM  H23G11883   5.721   4.418  15.729 -0.4330 -0.0042 -0.9729
   8823SM  H23H11884   5.539   4.434  15.731 -1.7099  0.8998 -1.0196
   8923SM     N11885   1.714   5.937  12.797  0.2268 -0.1447  0.1425
   8923SM   C1511886   1.727   5.834  12.688 -0.2116 -0.1044 -0.5494
   8923SM  H15A11887   1.748   5.872  12.589  1.8609 -0.3306 -0.2339
   8923SM  H15B11888   1.638   5.775  12.673  0.0418 -0.5901 -0.1744
   8923SM  H15C11889   1.797   5.759  12.721 -1.6595 -1.8225 -1.1922
   8923SM   C1411890   1.842   5.977  12.843  0.2043  0.2946 -0.2975
   8923SM  H14A11891   1.901   5.900  12.892  4.2532  3.6767  0.7074
   8923SM  H14B11892   1.835   6.056  12.916  0.3817 -0.8922  1.0518
   8923SM  H14C11893   1.908   6.022  12.770  0.1948  1.5725  0.4523
   8923SM   C1311894   1.643   6.060  12.740 -0.0828 -0.0095  0.1664
   8923SM  H13A11895   1.540   6.039  12.716  0.1338  1.2493 -2.1645
   8923SM  H13B11896   1.700   6.098  12.656  0.8504 -0.6002  0.5208
   8923SM  H13C11897   1.642   6.133  12.820  1.1194 -2.4677  2.5987
   8923SM   C1211898   1.636   5.880  12.917 -0.3510  0.4670  0.4927
   8923SM  H12A11899   1.534   5.865  12.885 -0.3051 -1.0366  0.9555
   8923SM  H12B11900   1.627   5.951  12.999  0.5991 -1.3255  2.2344
   8923SM   C1111901   1.685   5.747  12.984 -0.2248  0.4549 -0.1521
   8923SM  H11A11902   1.686   5.670  12.904  0.4932  0.5169 -0.2104
   8923SM  H11B11903   1.602   5.719  13.052  0.7166  0.9983  1.2623
   8923SM     P11904   1.817   5.803  13.196  0.2200 -0.1341 -0.0516
   8923SM   O1311905   1.952   5.842  13.229 -0.2451 -0.4932  0.0641
   8923SM   O1411906   1.712   5.899  13.228 -0.8181 -0.2060  0.1494
   8923SM   O1111907   1.776   5.669  13.277  0.5919  0.1957  0.6138
   8923SM   O1211908   1.810   5.762  13.047 -0.8237  0.9253  0.3501
   8923SM   C1S11909   1.856   5.603  13.375 -0.2705  0.0494  0.4357
   8923SM   H1S11910   1.965   5.613  13.358 -0.2334 -0.4769  0.3266
   8923SM   H1T11911   1.836   5.494  13.370 -1.6544  0.3274 -1.0929
   8923SM    NF11912   1.910   5.579  13.617 -0.1147 -0.7208  0.3438
   8923SM   HNF11913   1.882   5.494  13.662  0.4532 -1.3671 -0.4878
   8923SM   C2S11914   1.819   5.645  13.523 -0.1977  0.5775 -0.2632
   8923SM   H2S11915   1.838   5.753  13.538 -0.8167  0.3842  2.4576
   8923SM   C3S11916   1.675   5.617  13.543  0.1307  0.2354 -0.1007
   8923SM   H3S11917   1.668   5.506  13.537  0.4607  0.2133 -0.0524
   8923SM    O311918   1.580   5.653  13.445 -0.1916 -0.5138  0.4550
   8923SM   HO311919   1.639   5.679  13.374  1.6671 -0.7259  1.8345
   8923SM   C4S11920   1.613   5.665  13.677  0.2986  0.2837 -0.3447
   8923SM   H4S11921   1.643   5.768  13.701  0.9154  0.3351 -1.2772
   8923SM   C5S11922   1.529   5.598  13.759 -0.8383 -1.0065  0.6819
   8923SM   H5S11923   1.487   5.499  13.738 -2.0680 -0.2465 -0.6762
   8923SM   C6S11924   1.471   5.656  13.880 -0.5532 -0.0026  0.4000
   8923SM   H6S11925   1.361   5.643  13.866 -0.5362 -0.6582  0.8439
   8923SM   H6T11926   1.498   5.764  13.888 -0.7136  0.0464  0.2989
   8923SM   C7S11927   1.491   5.589  14.010  0.1585  0.5612 -0.4849
   8923SM   H7S11928   1.598   5.559  14.021  0.5340  2.0282  0.1088
   8923SM   H7T11929   1.436   5.493  14.011  1.4640 -0.2404  1.2573
   8923SM   C8S11930   1.442   5.673  14.130 -0.0426  0.0789 -0.7252
   8923SM   H8S11931   1.333   5.688  14.113 -0.0512 -0.3779 -1.0648
   8923SM   H8T11932   1.500   5.767  14.141  0.6066 -0.4725  0.7903
   8923SM   C9S11933   1.454   5.588  14.260  0.2603  0.3581 -0.2469
   8923SM   H9S11934   1.560   5.567  14.286 -0.0904 -2.1747 -0.5859
   8923SM   H9T11935   1.408   5.488  14.249  1.6686 -0.5276  1.4976
   8923SM  C10S11936   1.382   5.654  14.373 -0.3495 -0.0317 -0.2647
   8923SM  H10S11937   1.290   5.696  14.326  0.1981  1.6757  0.1142
   8923SM  H10T11938   1.434   5.747  14.405 -1.1541 -0.4170  2.3547
   8923SM  C11S11939   1.352   5.564  14.493 -0.1626  0.2540 -0.0587
   8923SM  H11S11940   1.446   5.531  14.543 -0.4059  0.7494  0.7486
   8923SM  H11T11941   1.285   5.479  14.467 -1.6043  0.7865  1.6968
   8923SM  C12S11942   1.282   5.648  14.604  0.5143  0.2587  0.5410
   8923SM  H12S11943   1.195   5.693  14.552  1.8345  0.9927 -1.1440
   8923SM  H12T11944   1.355   5.726  14.636  1.9562 -0.6297 -0.4479
   8923SM  C13S11945   1.244   5.570  14.728 -0.4503  0.6000 -0.4779
   8923SM  H13S11946   1.170   5.492  14.700 -0.6336 -0.6903  3.0993
   8923SM  H13T11947   1.191   5.644  14.792 -1.6842  1.3847 -2.3364
   8923SM  C14S11948   1.366   5.500  14.801  0.7998  0.4135 -0.1841
   8923SM  H14S11949   1.448   5.574  14.811  0.3700  0.9443 -0.5248
   8923SM  H14T11950   1.396   5.410  14.743  3.8956  0.6635  0.8490
   8923SM  C15S11951   1.329   5.454  14.950  0.4449  0.5828 -0.1431
   8923SM  H15S11952   1.244   5.381  14.951 -2.1549  3.3935  0.9795
   8923SM  H15T11953   1.295   5.541  15.011 -1.9505  0.0630 -0.6118
   8923SM  C16S11954   1.451   5.392  15.027  0.3423  0.4661 -0.5271
   8923SM  H16S11955   1.524   5.475  15.025 -0.6571  1.3765 -0.3721
   8923SM  H16T11956   1.505   5.313  14.971 -1.3455 -0.6339 -0.7011
   8923SM  C17S11957   1.418   5.346  15.172  0.5562  0.4352  0.4905
   8923SM  H17S11958   1.345   5.263  15.169  0.0774  0.8761 -0.5388
   8923SM  H17T11959   1.362   5.437  15.202 -0.5844  1.0079 -2.9429
   8923SM  C18S11960   1.535   5.317  15.256 -0.2447 -0.4560 -0.7320
   8923SM  H18S11961   1.497   5.262  15.344  0.8244 -0.3302 -0.1793
   8923SM  H18T11962   1.583   5.417  15.267 -1.9174  0.1893  1.3621
   8923SM  H18U11963   1.608   5.250  15.205 -0.2755 -0.2686 -1.0270
   8923SM   C1F11964   2.037   5.617  13.651  0.2747 -0.2866 -0.0861
   8923SM    OF11965   2.083   5.723  13.611 -0.0705 -0.6882  0.0743
   8923SM   C2F11966   2.117   5.527  13.741 -0.0046  0.1807  0.6259
   8923SM   H2F11967   2.221   5.531  13.701 -0.5535  1.8915 -0.7622
   8923SM   H2G11968   2.075   5.426  13.724 -0.7536  0.6629 -0.5800
   8923SM   C3F11969   2.108   5.588  13.879 -0.1197  0.1758 -0.5272
   8923SM   H3F11970   2.001   5.594  13.907  0.1677 -2.0590  1.3521
   8923SM   H3G11971   2.158   5.685  13.900 -0.2615  0.2117 -0.3476
   8923SM   C4F11972   2.177   5.488  13.983  0.7434 -0.1466 -0.0369
   8923SM   H4F11973   2.286   5.497  13.960  1.0191  0.5194  1.4602
   8923SM   H4G11974   2.129   5.388  13.977  0.0042  0.2713 -1.5791
   8923SM   C5F11975   2.168   5.537  14.126 -0.3403 -0.6475 -0.2172
   8923SM   H5F11976   2.063   5.538  14.164 -0.1852 -1.0367  0.2255
   8923SM   H5G11977   2.209   5.639  14.141  0.4496 -1.1043  0.8909
   8923SM   C6F11978   2.250   5.450  14.215 -0.5749  0.8144 -0.4214
   8923SM   H6F11979   2.357   5.454  14.186 -1.0908  3.1532 -2.3523
   8923SM   H6G11980   2.213   5.348  14.191 -0.1480  1.0225 -2.0632
   8923SM   C7F11981   2.222   5.477  14.367  0.5928  0.0637 -0.3395
   8923SM   H7F11982   2.114   5.504  14.374  0.3459 -1.0676  0.5781
   8923SM   H7G11983   2.286   5.557  14.408  1.1200 -1.7353  2.6813
   8923SM   C8F11984   2.256   5.362  14.449 -0.0309  0.3400 -0.5627
   8923SM   H8F11985   2.353   5.323  14.414 -0.6339 -0.7566 -1.0651
   8923SM   H8G11986   2.185   5.279  14.428 -1.9555  2.1073 -1.4750
   8923SM   C9F11987   2.265   5.374  14.600  0.8039 -0.1347  0.5243
   8923SM   H9F11988   2.186   5.440  14.644  0.5892 -1.1230  1.6790
   8923SM   H9G11989   2.363   5.422  14.621  0.4566  0.6059  0.4733
   8923SM  C10F11990   2.251   5.245  14.672 -0.5201 -0.0588 -0.2241
   8923SM  H10F11991   2.327   5.175  14.629  1.1567  0.8502  1.1546
   8923SM  H10G11992   2.148   5.210  14.648 -0.5165  1.0595 -2.0271
   8923SM  C11F11993   2.272   5.261  14.828 -0.5368 -0.9820 -0.4021
   8923SM  H11F11994   2.270   5.160  14.875  0.6967 -0.8447 -0.0435
   8923SM  H11G11995   2.201   5.331  14.876  0.9016  1.6164 -1.8571
   8923SM  C12F11996   2.412   5.305  14.870  0.3675 -0.6402  0.2099
   8923SM  H12F11997   2.438   5.401  14.820  1.4751 -0.7411  0.5515
   8923SM  H12G11998   2.484   5.232  14.827  1.5090 -0.5607  1.8671
   8923SM  C13F11999   2.444   5.326  15.019  0.2770 -0.1924 -0.2424
   8923SM  H13F12000   2.552   5.349  15.031 -0.0634  1.3335  0.0644
   8923SM  H13G12001   2.419   5.235  15.078 -2.4784  2.1124  2.5173
   8923SM  C14F12002   2.350   5.426  15.089  0.0427 -0.2128 -0.0705
   8923SM  H14F12003   2.249   5.379  15.094 -0.2070  0.0606 -1.8061
   8923SM  H14G12004   2.338   5.520  15.030  2.5931  0.0220 -0.3292
   8923SM  C15F12005   2.407   5.458  15.226 -0.3627  0.0964 -0.1961
   8923SM  H15F12006   2.472   5.379  15.268 -0.0195 -0.5522 -1.8771
   8923SM  H15G12007   2.321   5.473  15.295  1.3756  0.4627  2.0189
   8923SM  C16F12008   2.478   5.591  15.230  0.2288 -0.0130 -0.2137
   8923SM  H16F12009   2.420   5.672  15.182 -2.1973 -0.1708  2.2102
   8923SM  H16G12010   2.577   5.579  15.182  1.4096 -0.1287  2.0662
   8923SM  C17F12011   2.509   5.630  15.377 -0.1314 -0.2635 -0.3535
   8923SM  H17F12012   2.605   5.685  15.387 -1.0536  1.0785  2.2028
   8923SM  H17G12013   2.513   5.531  15.429 -0.1509 -0.0575  0.0447
   8923SM  C18F12014   2.394   5.715  15.439  0.1156  0.0212 -0.2012
   8923SM  H18F12015   2.290   5.680  15.425  0.6728 -1.5289 -0.6518
   8923SM  H18G12016   2.397   5.809  15.380 -0.0161  0.7096  0.8518
   8923SM  C19F12017   2.422   5.741  15.588  0.1177  0.2178 -0.1191
   8923SM  H19F12018   2.363   5.831  15.616  0.1188 -0.1352  1.0770
   8923SM  H19G12019   2.525   5.782  15.579  0.3396 -0.4797 -0.8781
   8923SM  C20F12020   2.397   5.618  15.681 -0.2504  0.5098  0.4605
   8923SM  H20F12021   2.464   5.533  15.654 -2.0010 -1.1823  1.1692
   8923SM  H20G12022   2.299   5.573  15.652  0.2517  0.2433 -0.9035
   8923SM  C21F12023   2.377   5.643  15.832 -0.7570 -0.7742 -0.5721
   8923SM  H21F12024   2.311   5.732  15.844  0.5426  0.0215  1.0752
   8923SM  H21G12025   2.472   5.664  15.885 -2.4329  1.6201  1.7788
   8923SM  C22F12026   2.308   5.531  15.903 -0.2472 -0.0071  0.1511
   8923SM  H22F12027   2.353   5.433  15.876  1.0091  0.4794  0.4109
   8923SM  H22G12028   2.204   5.525  15.866 -0.0687 -0.8505 -0.2477
   8923SM  C23F12029   2.317   5.545  16.055  0.7990  0.2471 -0.6719
   8923SM  H23F12030   2.267   5.639  16.089 -0.0533 -0.1945 -0.6784
   8923SM  H23G12031   2.427   5.556  16.067  1.0566  1.0346 -3.1617
   8923SM  H23H12032   2.276   5.466  16.121 -0.3044  1.9384  0.7830
   9023SM     N12033   1.032   5.171  12.637 -0.0910  0.0290 -0.7493
   9023SM   C1512034   1.050   5.063  12.534 -0.2360 -0.2936  1.0997
   9023SM  H15A12035   1.090   4.966  12.562  1.7494  0.0849 -0.2145
   9023SM  H15B12036   1.116   5.104  12.459  0.0902  1.2173  2.1609
   9023SM  H15C12037   0.957   5.050  12.482  0.8826 -1.0684 -0.8278
   9023SM   C1412038   0.987   5.296  12.573 -0.4922  0.2507 -0.6343
   9023SM  H14A12039   0.982   5.379  12.642 -1.1172 -0.3041  0.0065
   9023SM  H14B12040   0.893   5.283  12.522 -0.5496 -3.3033  0.1567
   9023SM  H14C12041   1.058   5.332  12.500  1.7325 -0.9806  0.7909
   9023SM   C1312042   0.932   5.119  12.732  0.3905  0.1542  0.2194
   9023SM  H13A12043   0.949   5.022  12.778 -1.0633 -0.7121 -0.9628
   9023SM  H13B12044   0.832   5.126  12.694  0.5421 -2.2821 -0.8240
   9023SM  H13C12045   0.932   5.180  12.821 -0.9603  0.2179  0.1882
   9023SM   C1212046   1.161   5.200  12.711  0.2141 -0.5955  0.0159
   9023SM  H12A12047   1.230   5.233  12.634 -1.5152  3.0182 -0.1645
   9023SM  H12B12048   1.197   5.107  12.753  0.9229 -0.2754  0.1416
   9023SM   C1112049   1.169   5.306  12.820 -0.0240 -0.2218 -0.4595
   9023SM  H11A12050   1.272   5.313  12.863 -0.1629 -0.1153 -0.1369
   9023SM  H11B12051   1.104   5.264  12.900  0.7539 -2.1727 -0.8082
   9023SM     P12052   1.167   5.573  12.841 -0.6995  0.1209  0.6481
   9023SM   O1312053   1.261   5.640  12.746 -0.1634 -0.1280 -0.0930
   9023SM   O1412054   1.045   5.648  12.879 -0.6710  0.0487 -0.2017
   9023SM   O1112055   1.241   5.528  12.970  0.1841 -0.0561  0.1089
   9023SM   O1212056   1.122   5.436  12.772  0.1889  0.0907 -0.8536
   9023SM   C1S12057   1.231   5.607  13.091  0.1514 -0.5625  0.9285
   9023SM   H1S12058   1.129   5.650  13.105  0.9601  1.7005  0.3356
   9023SM   H1T12059   1.290   5.701  13.092 -1.3519  0.4330  2.5447
   9023SM    NF12060   1.264   5.600  13.342 -0.7768  0.2780 -0.1794
   9023SM   HNF12061   1.351   5.623  13.385  0.0599 -1.6752 -0.7290
   9023SM   C2S12062   1.280   5.524  13.212  0.1067  0.5435  0.1460
   9023SM   H2S12063   1.212   5.437  13.222  0.0534  0.5722  0.0278
   9023SM   C3S12064   1.431   5.473  13.199  0.2066  0.2801 -0.4339
   9023SM   H3S12065   1.488   5.568  13.213  1.5230 -0.4548 -0.6385
   9023SM    O312066   1.478   5.431  13.076 -0.1801  0.0269 -0.2064
   9023SM   HO312067   1.416   5.464  13.010 -0.5736 -0.9788 -0.3583
   9023SM   C4S12068   1.459   5.377  13.309 -0.2050  0.2648  0.3001
   9023SM   H4S12069   1.520   5.430  13.384  2.9244  0.2538 -2.0506
   9023SM   C5S12070   1.431   5.245  13.320 -0.5121 -0.1507 -0.1756
   9023SM   H5S12071   1.387   5.198  13.230  1.3512  0.2420 -1.3471
   9023SM   C6S12072   1.470   5.171  13.439  0.0952  0.6855 -0.5396
   9023SM   H6S12073   1.564   5.116  13.416 -0.5720 -0.6770 -0.0877
   9023SM   H6T12074   1.395   5.091  13.455  2.7527 -1.4322  3.0557
   9023SM   C7S12075   1.477   5.256  13.573  0.7627  0.6293  0.0061
   9023SM   H7S12076   1.385   5.319  13.583  1.3569  1.5353 -0.1359
   9023SM   H7T12077   1.563   5.326  13.576  1.3701 -0.1285  0.4396
   9023SM   C8S12078   1.477   5.166  13.705 -0.9160 -0.3192  0.1380
   9023SM   H8S12079   1.570   5.106  13.710 -0.9013 -0.2405  0.8462
   9023SM   H8T12080   1.397   5.089  13.695 -0.5676 -0.5656 -0.9534
   9023SM   C9S12081   1.450   5.246  13.829 -0.2091  0.9656 -0.2571
   9023SM   H9S12082   1.362   5.313  13.814 -1.6200 -0.6348  0.5681
   9023SM   H9T12083   1.540   5.307  13.852  0.3118 -0.5527  2.0656
   9023SM  C10S12084   1.412   5.155  13.948 -0.5517 -0.0588  0.6524
   9023SM  H10S12085   1.480   5.067  13.948 -0.2192  0.1868  1.5353
   9023SM  H10T12086   1.311   5.109  13.941 -0.3274 -0.7355  1.6833
   9023SM  C11S12087   1.418   5.232  14.084  1.3859  0.0861  0.1302
   9023SM  H11S12088   1.342   5.312  14.076  0.1437 -0.9366  1.1495
   9023SM  H11T12089   1.517   5.278  14.102  2.9010 -3.1467  0.9304
   9023SM  C12S12090   1.375   5.133  14.195 -0.1195 -0.1953  0.1889
   9023SM  H12S12091   1.472   5.092  14.230 -0.5502 -0.3639  1.2470
   9023SM  H12T12092   1.300   5.057  14.164  0.0728 -1.3716  2.4054
   9023SM  C13S12093   1.315   5.204  14.317  0.6395  0.0334  0.1957
   9023SM  H13S12094   1.233   5.267  14.278  0.3054 -0.1224  0.6468
   9023SM  H13T12095   1.399   5.268  14.352  2.6838 -1.4442 -1.7239
   9023SM  C14S12096   1.267   5.108  14.431 -0.5123  0.0570 -0.0195
   9023SM  H14S12097   1.353   5.050  14.471  1.4696  1.5490 -1.8880
   9023SM  H14T12098   1.199   5.028  14.396 -0.1727 -0.3041  0.1296
   9023SM  C15S12099   1.199   5.181  14.548  0.6747  0.4853  0.2717
   9023SM  H15S12100   1.097   5.222  14.529 -1.2724 -2.8330  2.4995
   9023SM  H15T12101   1.269   5.264  14.568  3.7406 -1.0537 -2.9811
   9023SM  C16S12102   1.194   5.093  14.674 -0.1697 -0.0783  0.0339
   9023SM  H16S12103   1.291   5.072  14.722 -0.9638 -0.5876  1.4802
   9023SM  H16T12104   1.158   4.992  14.644 -1.0421  0.0492  0.6282
   9023SM  C17S12105   1.099   5.132  14.786  0.3569  0.1849 -0.9217
   9023SM  H17S12106   1.001   5.150  14.738 -0.9526 -3.5673  0.0111
   9023SM  H17T12107   1.140   5.215  14.848  0.2820  0.1172 -0.7812
   9023SM  C18S12108   1.077   5.021  14.885 -0.3184  0.3466  0.5498
   9023SM  H18S12109   1.019   5.047  14.977 -1.6867 -0.4013 -0.0700
   9023SM  H18T12110   1.176   4.999  14.931  1.5887 -0.6063 -3.5771
   9023SM  H18U12111   1.033   4.929  14.840  0.8443  0.8001 -1.6255
   9023SM   C1F12112   1.147   5.638  13.393 -0.1027  0.7360 -0.1568
   9023SM    OF12113   1.043   5.611  13.337 -0.4097 -0.3382 -0.1643
   9023SM   C2F12114   1.152   5.716  13.519 -0.2682  0.5971 -0.2203
   9023SM   H2F12115   1.110   5.818  13.511 -0.0059  0.8854  1.5839
   9023SM   H2G12116   1.258   5.737  13.545  0.0853  1.1487 -1.9861
   9023SM   C3F12117   1.094   5.632  13.631  0.3116 -0.3863  0.5854
   9023SM   H3F12118   1.155   5.540  13.638  1.8962  0.6866  1.6143
   9023SM   H3G12119   0.989   5.602  13.612  0.8333 -0.0640 -3.8810
   9023SM   C4F12120   1.087   5.702  13.772  0.0911  0.0623 -0.0043
   9023SM   H4F12121   1.023   5.793  13.774 -0.5579 -0.3652 -0.8134
   9023SM   H4G12122   1.189   5.741  13.794 -0.7676  1.7569  1.1588
   9023SM   C5F12123   1.042   5.608  13.879 -0.0515  0.2024  0.5470
   9023SM   H5F12124   1.129   5.539  13.877 -1.8659 -2.2406 -1.1478
   9023SM   H5G12125   0.953   5.548  13.849  1.2537 -0.6582 -1.8402
   9023SM   C6F12126   1.007   5.673  14.009 -0.0571 -0.2003 -0.2441
   9023SM   H6F12127   0.918   5.737  13.989  0.1671  0.4421  0.7247
   9023SM   H6G12128   1.087   5.747  14.030 -0.9062  0.3216  1.3614
   9023SM   C7F12129   0.979   5.582  14.125  0.7565 -0.2901  0.0118
   9023SM   H7F12130   1.065   5.514  14.143  1.0997  0.1331 -0.0358
   9023SM   H7G12131   0.885   5.527  14.101 -0.8376  0.6656  3.4719
   9023SM   C8F12132   0.955   5.659  14.249 -0.6776 -0.7316  0.2152
   9023SM   H8F12133   0.874   5.732  14.231  0.8835  1.3148  1.1303
   9023SM   H8G12134   1.043   5.721  14.276 -1.8468  1.3311 -0.5751
   9023SM   C9F12135   0.911   5.576  14.374 -0.2161  0.3633 -0.0577
   9023SM   H9F12136   0.989   5.508  14.415 -0.0343  0.4958 -0.1879
   9023SM   H9G12137   0.827   5.507  14.350 -0.1439 -1.3843  3.9025
   9023SM  C10F12138   0.874   5.661  14.500 -0.0411 -0.3720 -0.5965
   9023SM  H10F12139   0.800   5.741  14.477  0.5976  0.9077  1.5368
   9023SM  H10G12140   0.966   5.718  14.523 -0.1550 -1.5271  3.6076
   9023SM  C11F12141   0.837   5.580  14.616  0.1678  0.8883  0.9956
   9023SM  H11F12142   0.925   5.515  14.632 -1.1413 -1.2716 -0.1152
   9023SM  H11G12143   0.757   5.504  14.604  1.6590 -0.5496 -0.2581
   9023SM  C12F12144   0.810   5.674  14.740  0.0566  0.1391 -0.1476
   9023SM  H12F12145   0.722   5.733  14.707 -0.3796  0.2178  1.1295
   9023SM  H12G12146   0.893   5.748  14.749  0.8842 -0.4717 -2.0290
   9023SM  C13F12147   0.778   5.604  14.868  0.0758 -0.1955 -0.6886
   9023SM  H13F12148   0.676   5.560  14.868  0.8982 -2.2169 -1.0457
   9023SM  H13G12149   0.783   5.676  14.953  2.0706 -0.0618 -0.8619
   9023SM  C14F12150   0.875   5.490  14.904 -0.9346 -0.1387  0.5768
   9023SM  H14F12151   0.976   5.532  14.884 -1.2546  0.0118 -0.8651
   9023SM  H14G12152   0.872   5.412  14.825  0.7873  1.1263 -0.8170
   9023SM  C15F12153   0.856   5.446  15.049  0.5353  0.0578 -0.1420
   9023SM  H15F12154   0.762   5.395  15.078  0.8040 -2.1020 -2.6807
   9023SM  H15G12155   0.843   5.548  15.091  0.9734 -0.8033  2.2302
   9023SM  C16F12156   0.972   5.359  15.104  0.0771  0.7327  0.2571
   9023SM  H16F12157   1.056   5.430  15.121 -0.6167  1.7482 -0.4917
   9023SM  H16G12158   1.008   5.295  15.021 -1.4192 -0.3707  0.4151
   9023SM  C17F12159   0.942   5.280  15.236 -0.2549 -0.5702  0.8142
   9023SM  H17F12160   0.879   5.193  15.205  0.7422 -0.5650 -1.3848
   9023SM  H17G12161   0.885   5.334  15.314 -2.7376 -2.5218  0.5259
   9023SM  C18F12162   1.079   5.229  15.288 -0.3859  0.3017  0.4204
   9023SM  H18F12163   1.154   5.310  15.273  1.6308 -1.1920  1.9925
   9023SM  H18G12164   1.112   5.144  15.225  0.0117  0.1898  0.7774
   9023SM  C19F12165   1.077   5.194  15.439 -0.6341 -0.0871 -0.7832
   9023SM  H19F12166   0.993   5.124  15.457 -0.2651 -0.2560  0.3411
   9023SM  H19G12167   1.053   5.289  15.492 -0.9175 -0.3645 -0.4055
   9023SM  C20F12168   1.206   5.125  15.487  0.0468  0.1727 -0.3376
   9023SM  H20F12169   1.298   5.177  15.454 -0.1469 -0.4100 -1.8461
   9023SM  H20G12170   1.211   5.020  15.453 -0.4434 -0.6458  1.9031
   9023SM  C21F12171   1.200   5.111  15.637 -0.4383  0.0598  0.4079
   9023SM  H21F12172   1.107   5.055  15.659 -0.6323  0.8182  1.6378
   9023SM  H21G12173   1.193   5.215  15.677  3.1761  0.4674  0.2685
   9023SM  C22F12174   1.319   5.029  15.694  0.4064 -0.1059 -0.2569
   9023SM  H22F12175   1.322   4.933  15.637  0.5605  0.3563 -1.0373
   9023SM  H22G12176   1.298   5.011  15.801  2.6180 -2.5499 -0.1124
   9023SM  C23F12177   1.449   5.101  15.683  0.4394 -0.6575 -0.1649
   9023SM  H23F12178   1.513   5.048  15.758  1.5066  1.5000  0.5367
   9023SM  H23G12179   1.432   5.209  15.703  0.8181 -0.2498 -1.8990
   9023SM  H23H12180   1.497   5.086  15.584  2.0170  1.6255  0.1694
   9123SM     N12181   3.312   0.396  12.394  0.2760  0.0503  0.0323
   9123SM   C1512182   3.188   0.321  12.374  0.1717 -0.7860 -0.3589
   9123SM  H15A12183   3.175   0.284  12.273  3.5005  1.0596 -1.6257
   9123SM  H15B12184   3.100   0.381  12.389  0.4162 -0.1794 -1.2646
   9123SM  H15C12185   3.188   0.239  12.445 -0.2371  0.4338  1.0908
   9123SM   C1412186   3.314   0.473  12.521 -0.1774  0.6252  0.3135
   9123SM  H14A12187   3.272   0.408  12.596  1.8066 -1.5564 -0.3414
   9123SM  H14B12188   3.238   0.549  12.511  1.5184  2.4495  0.5076
   9123SM  H14C12189   3.405   0.520  12.557 -0.0593 -0.1998  1.1167
   9123SM   C1312190   3.413   0.289  12.394  0.5418  0.2255 -1.2640
   9123SM  H13A12191   3.514   0.319  12.419  0.5326 -0.6140 -0.0853
   9123SM  H13B12192   3.423   0.241  12.298 -1.9948  1.4627 -2.2155
   9123SM  H13C12193   3.372   0.214  12.461 -0.0317 -0.7898 -2.6915
   9123SM   C1212194   3.326   0.507  12.286 -0.4396 -0.1233  0.0061
   9123SM  H12A12195   3.345   0.464  12.189 -2.3892 -2.4183  0.5427
   9123SM  H12B12196   3.416   0.562  12.312  1.5337 -2.5799 -1.1807
   9123SM   C1112197   3.204   0.601  12.265 -0.2276  0.1972  0.1684
   9123SM  H11A12198   3.107   0.550  12.244 -0.0383  0.2711 -0.9666
   9123SM  H11B12199   3.229   0.649  12.168 -2.2038 -2.4534 -1.7917
   9123SM     P12200   3.258   0.827  12.384 -0.2136 -0.1531 -0.0634
   9123SM   O1312201   3.406   0.804  12.399  0.2905 -0.6842 -0.3933
   9123SM   O1412202   3.204   0.909  12.276  0.0569  0.3419 -0.4800
   9123SM   O1112203   3.215   0.892  12.523 -0.0348 -0.1774  0.3096
   9123SM   O1212204   3.184   0.688  12.374  0.2520 -0.2847 -0.2641
   9123SM   C1S12205   3.204   0.819  12.642 -0.2327  0.8139  0.0524
   9123SM   H1S12206   3.303   0.778  12.673  0.1518  1.5867 -0.1233
   9123SM   H1T12207   3.128   0.739  12.627  0.0868  0.8541 -2.0855
   9123SM    NF12208   3.124   0.837  12.881 -0.6381 -0.4304 -0.0526
   9123SM   HNF12209   3.028   0.842  12.906 -0.1034  0.5669  2.0221
   9123SM   C2S12210   3.159   0.914  12.766 -0.5004  0.6732 -0.5432
   9123SM   H2S12211   3.249   0.976  12.783 -0.2701  0.0451  0.6906
   9123SM   C3S12212   3.038   1.002  12.712 -0.4948  0.5804 -0.0471
   9123SM   H3S12213   2.960   0.928  12.682  0.4962 -0.3836 -0.3210
   9123SM    O312214   3.073   1.079  12.597  0.8754 -0.1827  0.0364
   9123SM   HO312215   3.148   1.029  12.564  0.7127 -1.3848  1.3883
   9123SM   C4S12216   2.985   1.099  12.809  0.3987 -0.4396 -0.0406
   9123SM   H4S12217   2.899   1.049  12.855  0.1961 -0.4955 -0.4680
   9123SM   C5S12218   3.016   1.222  12.848 -0.6019  0.4210  0.5569
   9123SM   H5S12219   3.088   1.282  12.791 -0.5124 -1.0093 -0.9242
   9123SM   C6S12220   2.940   1.300  12.949  0.0299  0.7883  0.3206
   9123SM   H6S12221   2.865   1.373  12.910 -1.3638 -0.0444  1.3699
   9123SM   H6T12222   3.020   1.362  12.995 -0.0138  3.6508 -3.0141
   9123SM   C7S12223   2.869   1.224  13.059 -0.6983  0.4625 -0.3755
   9123SM   H7S12224   2.929   1.136  13.090 -1.1795  0.2058 -0.1620
   9123SM   H7T12225   2.779   1.177  13.012  0.2512 -1.3790 -0.4222
   9123SM   C8S12226   2.831   1.304  13.193  0.7745 -0.3179 -0.7900
   9123SM   H8S12227   2.785   1.402  13.165  2.2600  1.5801  2.7579
   9123SM   H8T12228   2.928   1.344  13.232 -0.1658  1.2272  0.0585
   9123SM   C9S12229   2.747   1.228  13.291 -0.3163  0.4353  0.2783
   9123SM   H9S12230   2.781   1.124  13.310 -0.2518  0.1735 -1.1892
   9123SM   H9T12231   2.651   1.210  13.238 -0.2785  2.6153 -0.6317
   9123SM  C10S12232   2.734   1.305  13.427  0.2027  0.2378  0.4779
   9123SM  H10S12233   2.652   1.379  13.417 -0.3071 -0.5406 -1.5443
   9123SM  H10T12234   2.832   1.355  13.448  0.1094  0.0790  1.3034
   9123SM  C11S12235   2.710   1.241  13.560  0.4594  0.1926 -0.3695
   9123SM  H11S12236   2.782   1.157  13.571  0.3046  0.0520 -0.4141
   9123SM  H11T12237   2.609   1.195  13.562 -0.2183  1.6622  1.2000
   9123SM  C12S12238   2.724   1.334  13.682  0.2491 -0.2353 -0.4874
   9123SM  H12S12239   2.648   1.413  13.698  0.5052 -0.5210  3.0893
   9123SM  H12T12240   2.814   1.398  13.669  0.9763 -1.1272  0.0188
   9123SM  C13S12241   2.733   1.246  13.804  0.1628  0.4845 -0.3948
   9123SM  H13S12242   2.793   1.154  13.796 -3.1131 -1.9111  0.4170
   9123SM  H13T12243   2.629   1.206  13.808  1.1035 -2.2286 -1.3716
   9123SM  C14S12244   2.749   1.331  13.925 -0.9338  0.3118 -0.6706
   9123SM  H14S12245   2.664   1.402  13.923 -1.2677 -0.0443  0.2384
   9123SM  H14T12246   2.847   1.382  13.918 -1.2325  0.8265 -1.2001
   9123SM  C15S12247   2.753   1.250  14.054 -0.7253 -0.3337  0.5552
   9123SM  H15S12248   2.842   1.186  14.037 -0.8139 -0.3471  0.1330
   9123SM  H15T12249   2.656   1.198  14.072 -2.1362  2.7024  2.5074
   9123SM  C16S12250   2.779   1.335  14.178  0.0184  0.6414  0.1687
   9123SM  H16S12251   2.699   1.409  14.198  0.4013  1.2660 -0.5704
   9123SM  H16T12252   2.865   1.398  14.147 -1.2141  1.2417 -2.3259
   9123SM  C17S12253   2.808   1.264  14.303 -0.2108  0.3154  0.3645
   9123SM  H17S12254   2.898   1.201  14.287 -1.9621 -1.8017 -1.6542
   9123SM  H17T12255   2.723   1.199  14.332 -0.5139  0.8923  0.8128
   9123SM  C18S12256   2.848   1.351  14.427  0.0336 -0.1502  0.6098
   9123SM  H18S12257   2.778   1.437  14.442 -1.9104 -1.2724 -1.4731
   9123SM  H18T12258   2.953   1.383  14.411 -0.2838  0.3971 -0.5003
   9123SM  H18U12259   2.842   1.291  14.520  0.3626 -1.4358 -0.1734
   9123SM   C1F12260   3.208   0.760  12.936  0.8859  0.2319 -0.4424
   9123SM    OF12261   3.330   0.775  12.924  0.8837  0.7007 -0.1414
   9123SM   C2F12262   3.151   0.659  13.034  0.4438  0.2884 -0.2721
   9123SM   H2F12263   3.154   0.557  12.989 -1.6376  0.0790 -0.0181
   9123SM   H2G12264   3.042   0.675  13.048  0.3348  1.4608 -2.1055
   9123SM   C3F12265   3.217   0.666  13.175 -0.1898  0.2213 -0.4798
   9123SM   H3F12266   3.324   0.636  13.172 -0.6371 -1.5460 -0.3328
   9123SM   H3G12267   3.167   0.588  13.238 -0.5463  0.9319  0.1263
   9123SM   C4F12268   3.215   0.804  13.235 -0.2535  0.5274 -1.1597
   9123SM   H4F12269   3.122   0.857  13.207 -0.2492  0.9601 -0.3783
   9123SM   H4G12270   3.299   0.866  13.199  0.7809  0.8651  1.6014
   9123SM   C5F12271   3.230   0.806  13.394  0.4721  0.7649 -0.0291
   9123SM   H5F12272   3.179   0.725  13.449  2.5608 -1.8915 -1.7736
   9123SM   H5G12273   3.196   0.908  13.424  0.0404  0.5566  0.1995
   9123SM   C6F12274   3.377   0.816  13.442  0.0293  0.4397  0.1532
   9123SM   H6F12275   3.454   0.873  13.386 -1.0155  3.0081  1.2180
   9123SM   H6G12276   3.411   0.710  13.438 -1.2740  0.0441 -1.7941
   9123SM   C7F12277   3.382   0.867  13.586  0.0725 -0.1746  0.3764
   9123SM   H7F12278   3.311   0.814  13.652  0.5887  1.1429  2.0734
   9123SM   H7G12279   3.355   0.974  13.575 -0.0532 -0.1715  0.7241
   9123SM   C8F12280   3.527   0.859  13.647 -0.1977  0.0512 -0.0868
   9123SM   H8F12281   3.603   0.899  13.577 -2.0590 -0.0043 -2.2647
   9123SM   H8G12282   3.545   0.753  13.677 -0.7510  0.2715  1.1049
   9123SM   C9F12283   3.533   0.954  13.769 -0.5011 -0.0295 -0.2524
   9123SM   H9F12284   3.488   1.052  13.742 -4.9321 -1.4124  1.1588
   9123SM   H9G12285   3.641   0.969  13.790 -0.4512 -1.9849  1.2129
   9123SM  C10F12286   3.458   0.898  13.895 -0.2388 -0.5726  0.1342
   9123SM  H10F12287   3.353   0.888  13.859 -0.4564  1.2767  0.1519
   9123SM  H10G12288   3.466   0.973  13.976 -1.2450  0.7413 -0.9355
   9123SM  C11F12289   3.519   0.760  13.938  0.4083  0.0524 -0.3427
   9123SM  H11F12290   3.618   0.796  13.973  0.1769 -0.7218  1.1765
   9123SM  H11G12291   3.523   0.681  13.861 -0.0242 -0.1126 -0.1969
   9123SM  C12F12292   3.448   0.690  14.051 -0.0064 -0.1105  0.0688
   9123SM  H12F12293   3.497   0.591  14.062  1.5602  0.4475 -1.4381
   9123SM  H12G12294   3.347   0.654  14.025  1.4691 -3.7994 -1.2074
   9123SM  C13F12295   3.432   0.761  14.188  0.0161 -0.3937  0.7104
   9123SM  H13F12296   3.379   0.677  14.238 -1.3854 -1.9813 -3.1034
   9123SM  H13G12297   3.366   0.850  14.188 -0.8140 -0.9962  0.9874
   9123SM  C14F12298   3.561   0.809  14.262 -0.0287  0.7324 -0.2085
   9123SM  H14F12299   3.625   0.879  14.204  1.5731 -0.5030  0.0134
   9123SM  H14G12300   3.614   0.715  14.289 -0.4426  0.1765 -1.2739
   9123SM  C15F12301   3.527   0.885  14.395  0.2661  0.3770  0.3581
   9123SM  H15F12302   3.466   0.975  14.371 -1.5946  0.1071  3.4889
   9123SM  H15G12303   3.630   0.906  14.432  0.5134  2.3949 -1.2674
   9123SM  C16F12304   3.448   0.801  14.492 -0.1746  0.0068  0.1232
   9123SM  H16F12305   3.490   0.698  14.496 -0.2368  0.0259  3.3345
   9123SM  H16G12306   3.346   0.779  14.456 -0.5511  0.7645  0.7169
   9123SM  C17F12307   3.436   0.870  14.629  0.0981  0.1756  0.1361
   9123SM  H17F12308   3.378   0.802  14.696 -0.6868  1.6751  1.0168
   9123SM  H17G12309   3.372   0.960  14.638  0.8077  0.5842  1.2766
   9123SM  C18F12310   3.566   0.891  14.704  0.3086 -0.2283  0.1062
   9123SM  H18F12311   3.627   0.973  14.660  2.2025 -1.5757  0.0776
   9123SM  H18G12312   3.624   0.797  14.689 -0.5714 -0.5842 -1.2321
   9123SM  C19F12313   3.537   0.912  14.853 -0.1334  0.3461 -0.6012
   9123SM  H19F12314   3.463   0.835  14.884  1.5609 -1.0986  0.0747
   9123SM  H19G12315   3.483   1.009  14.857 -1.6435 -0.3590 -2.7289
   9123SM  C20F12316   3.669   0.910  14.930  0.2582  0.5636 -0.6339
   9123SM  H20F12317   3.737   0.988  14.890  1.1894  0.1073  0.0052
   9123SM  H20G12318   3.717   0.811  14.917 -0.1344 -0.2865  3.1870
   9123SM  C21F12319   3.633   0.942  15.076 -0.1782  0.6389  0.2916
   9123SM  H21F12320   3.568   0.862  15.116  0.1126  1.0879  1.7478
   9123SM  H21G12321   3.586   1.043  15.081  1.5658  1.4534  1.4164
   9123SM  C22F12322   3.763   0.938  15.156 -1.0506  0.3002  0.4665
   9123SM  H22F12323   3.821   1.024  15.117  1.0802 -0.8826  0.8574
   9123SM  H22G12324   3.819   0.843  15.139  0.3899  0.9329  1.4359
   9123SM  C23F12325   3.754   0.954  15.308 -1.2519 -0.2827 -0.4861
   9123SM  H23F12326   3.685   1.040  15.328 -0.1789  0.9430 -1.7906
   9123SM  H23G12327   3.852   0.987  15.347 -2.1978  2.6130 -0.2889
   9123SM  H23H12328   3.736   0.857  15.358 -1.3688  1.1318  2.4411
   9223SM     N12329   1.673   5.124  12.827  0.2445  0.2961 -0.5161
   9223SM   C1512330   1.813   5.183  12.856  0.1361  0.2666  0.1394
   9223SM  H15A12331   1.885   5.103  12.860 -0.3349 -0.2636 -1.2491
   9223SM  H15B12332   1.820   5.230  12.953  0.9940 -1.2331  0.8325
   9223SM  H15C12333   1.844   5.257  12.784  3.2403 -1.3750 -0.3981
   9223SM   C1412334   1.578   5.231  12.785 -0.1720  0.0885 -0.0753
   9223SM  H14A12335   1.615   5.274  12.693  1.5494  1.6679  1.2788
   9223SM  H14B12336   1.571   5.313  12.855  1.3091  0.6982 -0.6141
   9223SM  H14C12337   1.480   5.191  12.761 -1.0017  2.0061 -0.0723
   9223SM   C1312338   1.688   5.028  12.720  0.4661 -0.9200 -1.0977
   9223SM  H13A12339   1.599   4.969  12.727 -1.3518  1.8807  2.1226
   9223SM  H13B12340   1.773   4.966  12.745  0.8957  0.4482  1.1528
   9223SM  H13C12341   1.695   5.073  12.621  1.9273  3.4961  0.7521
   9223SM   C1212342   1.624   5.053  12.954 -0.1855 -0.4050  0.0447
   9223SM  H12A12343   1.627   5.121  13.038  0.9791  1.9717 -1.7878
   9223SM  H12B12344   1.699   4.980  12.981  0.4492 -0.4310 -1.6434
   9223SM   C1112345   1.489   4.982  12.957  0.4839  0.0144 -0.4058
   9223SM  H11A12346   1.414   5.064  12.948 -0.6921 -1.1496 -1.7627
   9223SM  H11B12347   1.492   4.945  13.061  2.3605 -0.6763 -0.6593
   9223SM     P12348   1.542   4.728  12.899  0.1859  0.6737 -0.0080
   9223SM   O1312349   1.483   4.620  12.815 -0.1775  0.1691 -0.3342
   9223SM   O1412350   1.692   4.746  12.898  1.0097  0.2495 -0.0107
   9223SM   O1112351   1.505   4.712  13.051 -0.0925  0.4944 -0.5255
   9223SM   O1212352   1.470   4.872  12.872 -0.2039 -0.1760  0.4589
   9223SM   C1S12353   1.375   4.653  13.094  0.0480  0.2098  0.7633
   9223SM   H1S12354   1.353   4.562  13.035 -2.1806  0.1673  1.5738
   9223SM   H1T12355   1.293   4.727  13.081 -0.0139  0.5514  2.8557
   9223SM    NF12356   1.295   4.493  13.266  0.4873 -0.4248  0.1829
   9223SM   HNF12357   1.202   4.522  13.289  1.3350  2.2025  0.6702
   9223SM   C2S12358   1.385   4.611  13.241 -0.3228  0.3272 -0.1848
   9223SM   H2S12359   1.484   4.567  13.265 -0.2853  0.9416  0.8464
   9223SM   C3S12360   1.362   4.738  13.321 -0.2921 -0.2558 -0.2353
   9223SM   H3S12361   1.265   4.791  13.307  0.7186  1.2298 -2.0164
   9223SM    O312362   1.462   4.837  13.300 -1.0842 -0.8625 -0.2452
   9223SM   HO312363   1.513   4.798  13.229 -2.1299 -2.3684 -0.2249
   9223SM   C4S12364   1.362   4.716  13.473 -0.0380 -0.4238  0.1968
   9223SM   H4S12365   1.263   4.700  13.519 -0.3973 -0.3791 -0.5305
   9223SM   C5S12366   1.464   4.672  13.552  0.6616  0.5609  0.0741
   9223SM   H5S12367   1.556   4.637  13.501 -0.5593 -0.8046 -1.3048
   9223SM   C6S12368   1.444   4.628  13.693 -0.2139 -0.1954 -0.7930
   9223SM   H6S12369   1.517   4.546  13.710 -0.4392 -0.6045 -1.7338
   9223SM   H6T12370   1.347   4.574  13.703 -0.3261  0.3199  1.7061
   9223SM   C7S12371   1.456   4.732  13.810 -0.0428 -0.5037  0.6969
   9223SM   H7S12372   1.365   4.793  13.792 -0.1582 -0.8619  0.0313
   9223SM   H7T12373   1.546   4.797  13.800  0.0929 -0.2911  2.8805
   9223SM   C8S12374   1.463   4.673  13.955 -0.8439  0.0425 -0.6556
   9223SM   H8S12375   1.551   4.605  13.960 -0.0768  1.0868  0.7242
   9223SM   H8T12376   1.371   4.614  13.977 -0.6318 -1.2840 -3.0192
   9223SM   C9S12377   1.492   4.762  14.081 -0.2569  0.2052 -0.0228
   9223SM   H9S12378   1.396   4.810  14.112 -0.9499 -0.5690 -0.9178
   9223SM   H9T12379   1.562   4.842  14.048 -1.2904  1.0186 -0.3068
   9223SM  C10S12380   1.527   4.685  14.215  0.4992  0.0898  0.7111
   9223SM  H10S12381   1.626   4.634  14.213 -1.0192 -3.1592  1.1297
   9223SM  H10T12382   1.442   4.615  14.229 -0.1453  0.2870 -1.8592
   9223SM  C11S12383   1.530   4.792  14.334 -0.1354 -0.7865  0.0907
   9223SM  H11S12384   1.438   4.849  14.312 -1.4465 -2.8002  0.0928
   9223SM  H11T12385   1.613   4.866  14.326 -1.0875  0.3144  0.1021
   9223SM  C12S12386   1.524   4.728  14.470 -0.4907  0.0512  0.5748
   9223SM  H12S12387   1.609   4.660  14.492 -1.5500 -1.8460 -0.8804
   9223SM  H12T12388   1.435   4.662  14.468 -0.8362  0.3937 -3.2759
   9223SM  C13S12389   1.501   4.824  14.586  1.1225  0.0675 -0.3747
   9223SM  H13S12390   1.396   4.860  14.580  1.8606  2.2396 -1.1582
   9223SM  H13T12391   1.561   4.917  14.580 -0.1229  0.8560 -1.2075
   9223SM  C14S12392   1.520   4.754  14.715  0.0973 -0.3574  0.4019
   9223SM  H14S12393   1.600   4.679  14.695 -1.5244 -2.4493  1.2725
   9223SM  H14T12394   1.440   4.691  14.760 -0.7975  0.2395 -0.3200
   9223SM  C15S12395   1.547   4.862  14.821 -0.6146  0.0242  0.2786
   9223SM  H15S12396   1.482   4.947  14.793 -2.6512 -2.2000 -2.2083
   9223SM  H15T12397   1.655   4.889  14.814 -0.6048 -0.0068  0.3110
   9223SM  C16S12398   1.516   4.818  14.967 -0.5874 -0.2913 -0.4254
   9223SM  H16S12399   1.563   4.717  14.977 -1.1098 -0.3457  2.1197
   9223SM  H16T12400   1.405   4.809  14.968 -0.6494  0.4860 -0.1785
   9223SM  C17S12401   1.565   4.926  15.067 -0.1336 -0.0548  0.0726
   9223SM  H17S12402   1.512   4.912  15.164 -0.8155 -3.0019 -0.6196
   9223SM  H17T12403   1.543   5.028  15.031  1.3532  0.0265 -0.6789
   9223SM  C18S12404   1.714   4.909  15.099  0.0998 -0.5259  0.2717
   9223SM  H18S12405   1.742   4.829  15.172 -0.5514 -0.6562  0.3822
   9223SM  H18T12406   1.736   5.008  15.143 -0.2475 -0.2811 -0.1000
   9223SM  H18U12407   1.777   4.895  15.008  0.6303  3.4975 -0.1679
   9223SM   C1F12408   1.309   4.360  13.258  0.8407 -0.0074 -0.1402
   9223SM    OF12409   1.409   4.304  13.218 -0.1033 -0.5941  0.7022
   9223SM   C2F12410   1.190   4.277  13.290  0.2716  1.4269 -0.1319
   9223SM   H2F12411   1.173   4.220  13.197  1.5257 -0.9475  1.0192
   9223SM   H2G12412   1.099   4.335  13.319 -0.4695  0.4560 -0.4518
   9223SM   C3F12413   1.215   4.172  13.402 -0.3384  0.4261  0.0221
   9223SM   H3F12414   1.253   4.223  13.494  1.1430 -0.1080 -0.2757
   9223SM   H3G12415   1.302   4.117  13.361 -1.1439 -1.0902  0.2854
   9223SM   C4F12416   1.092   4.087  13.424  0.7751 -0.2347 -0.1148
   9223SM   H4F12417   1.070   4.032  13.329 -2.4876  0.2695  0.2367
   9223SM   H4G12418   0.998   4.141  13.449 -1.0005 -2.1881 -2.0430
   9223SM   C5F12419   1.115   3.973  13.521 -0.0543 -0.0301  0.1998
   9223SM   H5F12420   1.216   3.930  13.534  0.0841  0.7316  2.0090
   9223SM   H5G12421   1.049   3.890  13.487 -2.3123  1.3326  1.0055
   9223SM   C6F12422   1.052   4.009  13.659 -0.2047  0.0700 -0.0074
   9223SM   H6F12423   0.943   3.986  13.654 -0.0400 -1.2717  1.6413
   9223SM   H6G12424   1.075   4.115  13.680  0.0727 -0.1109  0.6139
   9223SM   C7F12425   1.109   3.912  13.760  0.4608 -0.5763 -0.5207
   9223SM   H7F12426   1.221   3.916  13.763  0.4371  0.9604 -0.4997
   9223SM   H7G12427   1.077   3.811  13.726  0.3685 -0.6303 -0.2728
   9223SM   C8F12428   1.045   3.920  13.900 -0.0662  0.5629  0.5495
   9223SM   H8F12429   0.935   3.917  13.885 -0.1314  1.6572  0.7332
   9223SM   H8G12430   1.069   4.022  13.935 -1.5300  1.8986 -2.0503
   9223SM   C9F12431   1.087   3.804  13.995 -0.3625  0.7410 -0.0206
   9223SM   H9F12432   1.193   3.803  14.028 -0.1346 -1.1393 -0.7108
   9223SM   H9G12433   1.074   3.709  13.939 -0.3850  1.4358 -1.2335
   9223SM  C10F12434   1.003   3.800  14.126 -0.3051  0.2001  0.9137
   9223SM  H10F12435   1.012   3.697  14.167  2.4979  0.4012  0.9755
   9223SM  H10G12436   0.894   3.811  14.111 -0.2948  1.3333  1.6063
   9223SM  C11F12437   1.048   3.897  14.237 -0.0190  0.0217 -0.8362
   9223SM  H11F12438   0.982   3.987  14.230 -2.4596 -1.7091 -1.5877
   9223SM  H11G12439   1.156   3.920  14.227  0.2078 -1.7630 -3.1666
   9223SM  C12F12440   1.031   3.844  14.373  0.5462  0.3950  0.0721
   9223SM  H12F12441   1.103   3.761  14.388 -1.5380 -1.2981  1.2521
   9223SM  H12G12442   0.932   3.798  14.389  0.4898  0.1663 -0.8857
   9223SM  C13F12443   1.052   3.939  14.488 -0.2228 -0.5690 -0.5846
   9223SM  H13F12444   0.983   4.026  14.478 -1.3283 -1.2652  0.6247
   9223SM  H13G12445   1.159   3.971  14.497 -0.6473  0.6800  0.5138
   9223SM  C14F12446   1.024   3.891  14.632 -0.2528  0.4231  0.4861
   9223SM  H14F12447   1.120   3.863  14.681 -0.0297  0.7963  0.2658
   9223SM  H14G12448   0.953   3.806  14.638  0.8919 -0.6524 -0.7079
   9223SM  C15F12449   0.977   3.997  14.727 -0.9858 -0.5888 -0.4203
   9223SM  H15F12450   0.878   4.028  14.686  0.1268  1.2705 -1.8635
   9223SM  H15G12451   1.049   4.082  14.727  0.0393 -1.4174  1.4240
   9223SM  C16F12452   0.962   3.950  14.865  0.9264  0.7771  0.3847
   9223SM  H16F12453   1.059   3.922  14.911  0.4515  0.4595  1.2083
   9223SM  H16G12454   0.906   3.854  14.866 -0.1104  1.3638  0.2292
   9223SM  C17F12455   0.900   4.051  14.963  0.4663 -0.5236 -0.3110
   9223SM  H17F12456   0.803   4.077  14.916  2.0943  3.3131 -1.8981
   9223SM  H17G12457   0.961   4.142  14.979 -1.1810  0.2184  2.2847
   9223SM  C18F12458   0.857   4.003  15.106  0.4869  0.2808  0.3944
   9223SM  H18F12459   0.948   3.959  15.153  1.2540 -0.6776 -1.8207
   9223SM  H18G12460   0.782   3.921  15.100 -0.3657  1.0852 -0.2288
   9223SM  C19F12461   0.807   4.125  15.177  0.8712 -0.1395 -0.1616
   9223SM  H19F12462   0.896   4.190  15.187  1.6420 -0.8430 -1.9625
   9223SM  H19G12463   0.788   4.080  15.276 -0.4904 -2.9746 -1.5907
   9223SM  C20F12464   0.689   4.203  15.124 -0.4863  0.3133  0.1122
   9223SM  H20F12465   0.610   4.127  15.139 -1.9794  1.8226  0.1628
   9223SM  H20G12466   0.691   4.237  15.018 -2.0019 -0.7621 -0.2956
   9223SM  C21F12467   0.643   4.324  15.209  0.2052 -0.1594 -0.5315
   9223SM  H21F12468   0.710   4.410  15.190 -1.2567  0.8487 -1.2995
   9223SM  H21G12469   0.672   4.308  15.315 -0.0980  0.0878 -0.4098
   9223SM  C22F12470   0.492   4.355  15.210  0.4335  0.0058  0.4710
   9223SM  H22F12471   0.465   4.395  15.109 -0.0824  1.1998  1.0616
   9223SM  H22G12472   0.485   4.447  15.272  2.0764  1.6902 -1.6218
   9223SM  C23F12473   0.406   4.246  15.268  0.3440 -0.9216  0.6337
   9223SM  H23F12474   0.449   4.196  15.358 -1.8313 -2.7681  0.7172
   9223SM  H23G12475   0.384   4.166  15.194  1.4850 -0.4944 -0.1948
   9223SM  H23H12476   0.312   4.296  15.300  0.9523  1.4583 -1.0318
   9323SM     N12477   2.783   0.836  12.317  0.0947 -0.2527  0.0317
   9323SM   C1512478   2.859   0.793  12.196  0.3284  0.3277  0.7309
   9323SM  H15A12479   2.869   0.685  12.192  1.5490  0.4442 -0.0404
   9323SM  H15B12480   2.959   0.833  12.189 -0.3785  2.0273 -0.2697
   9323SM  H15C12481   2.807   0.824  12.106  1.8534  0.4342 -0.1548
   9323SM   C1412482   2.780   0.986  12.316 -0.4577 -0.7351 -0.9155
   9323SM  H14A12483   2.734   1.025  12.406  1.1979 -0.6798 -0.0534
   9323SM  H14B12484   2.723   1.025  12.232 -1.3216 -1.1405 -0.5277
   9323SM  H14C12485   2.880   1.025  12.308 -1.2293  1.5011 -0.5398
   9323SM   C1312486   2.648   0.787  12.297 -1.1868 -0.6945 -0.8804
   9323SM  H13A12487   2.629   0.790  12.191  0.1323  2.2648 -1.1370
   9323SM  H13B12488   2.581   0.845  12.360  1.4051  0.3518  1.0738
   9323SM  H13C12489   2.638   0.683  12.326 -0.1008 -0.8330 -0.9702
   9323SM   C1212490   2.857   0.794  12.439 -0.3613  0.6821 -0.2013
   9323SM  H12A12491   2.805   0.826  12.528  3.2637  1.4002  1.8842
   9323SM  H12B12492   2.955   0.841  12.433  0.9442 -1.9749 -1.6987
   9323SM   C1112493   2.887   0.645  12.445 -0.5492  0.0019 -0.0365
   9323SM  H11A12494   2.952   0.626  12.534 -0.9034 -0.8323  0.0573
   9323SM  H11B12495   2.941   0.600  12.359 -1.6837  0.3879 -0.9706
   9323SM     P12496   2.719   0.543  12.617  0.2832  0.1608  0.2871
   9323SM   O1312497   2.589   0.471  12.617  0.2356  0.5350 -0.5708
   9323SM   O1412498   2.834   0.489  12.691  0.3756 -0.6209  0.1297
   9323SM   O1112499   2.704   0.691  12.663 -0.3080 -0.2533 -0.3933
   9323SM   O1212500   2.770   0.563  12.472 -0.3578  0.0745  0.2405
   9323SM   C1S12501   2.578   0.740  12.717  0.1418  0.1930 -0.7256
   9323SM   H1S12502   2.490   0.676  12.694  0.7159 -0.2650 -1.7339
   9323SM   H1T12503   2.552   0.842  12.683 -1.6401  0.0516  0.1482
   9323SM    NF12504   2.469   0.755  12.939  0.2633 -0.4136  0.9194
   9323SM   HNF12505   2.445   0.847  12.970 -0.2746  0.2118 -1.1821
   9323SM   C2S12506   2.595   0.737  12.877 -0.4391 -0.2189  1.0135
   9323SM   H2S12507   2.636   0.640  12.914 -1.6633 -0.6185  1.3411
   9323SM   C3S12508   2.706   0.842  12.915  0.6405 -0.2242 -0.1062
   9323SM   H3S12509   2.683   0.938  12.864 -0.4726 -0.6469 -0.4241
   9323SM    O312510   2.839   0.809  12.872 -0.0768  0.3756 -0.6349
   9323SM   HO312511   2.822   0.742  12.805 -0.2549  0.8183 -1.0417
   9323SM   C4S12512   2.711   0.877  13.064  0.3410  0.2454 -0.6643
   9323SM   H4S12513   2.667   0.974  13.090  0.5646  0.3597 -0.7069
   9323SM   C5S12514   2.755   0.779  13.149 -0.2817 -0.2623  0.1886
   9323SM   H5S12515   2.789   0.681  13.112  2.9147  1.2932 -1.3568
   9323SM   C6S12516   2.752   0.794  13.296  0.8858 -0.5358  0.4862
   9323SM   H6S12517   2.649   0.763  13.326 -0.7179  2.6928 -1.2756
   9323SM   H6T12518   2.762   0.900  13.326 -2.0054  0.6491 -2.2425
   9323SM   C7S12519   2.857   0.708  13.375  0.3028  0.2255 -0.0233
   9323SM   H7S12520   2.960   0.714  13.335  0.4885  1.5087  0.5863
   9323SM   H7T12521   2.828   0.604  13.352  1.0506  0.0942 -0.3977
   9323SM   C8S12522   2.851   0.743  13.526 -0.2973 -0.6712 -0.5765
   9323SM   H8S12523   2.921   0.675  13.579  0.6039  1.9477  1.8312
   9323SM   H8T12524   2.755   0.718  13.577 -0.1883 -1.6329 -0.8111
   9323SM   C9S12525   2.886   0.891  13.540  0.1888  0.3839 -0.3160
   9323SM   H9S12526   2.788   0.943  13.543 -1.6983 -2.8934  2.0367
   9323SM   H9T12527   2.954   0.944  13.470 -1.9292  2.8321 -0.6654
   9323SM  C10S12528   2.974   0.922  13.659  0.4777 -0.3998  0.1105
   9323SM  H10S12529   2.986   1.032  13.667 -1.3930 -0.2170  1.0436
   9323SM  H10T12530   3.069   0.865  13.651 -0.8545 -2.9214  1.2654
   9323SM  C11S12531   2.919   0.869  13.795  0.5110  0.2887 -0.0285
   9323SM  H11S12532   2.893   0.761  13.790 -0.0071  0.3814  0.5569
   9323SM  H11T12533   2.826   0.924  13.819 -0.1093 -1.0255  0.7200
   9323SM  C12S12534   3.017   0.879  13.913 -0.1992 -0.0906  0.2253
   9323SM  H12S12535   3.053   0.983  13.927  0.4128 -0.1743 -0.6728
   9323SM  H12T12536   3.107   0.824  13.880  0.1617  0.9173 -0.5264
   9323SM  C13S12537   2.965   0.835  14.045  0.3139  0.6188 -0.3120
   9323SM  H13S12538   2.932   0.730  14.036 -0.7949  0.8518  0.7218
   9323SM  H13T12539   2.868   0.882  14.071 -0.3408 -0.8228 -0.0724
   9323SM  C14S12540   3.059   0.859  14.158 -0.5202 -0.4838 -0.9073
   9323SM  H14S12541   3.098   0.963  14.158 -1.5666  0.0494  2.4605
   9323SM  H14T12542   3.148   0.793  14.164 -1.6861 -2.0382  0.0266
   9323SM  C15S12543   2.987   0.843  14.297 -0.0071 -0.2684  0.4367
   9323SM  H15S12544   2.903   0.916  14.299 -0.2113 -0.1593 -3.8094
   9323SM  H15T12545   2.928   0.750  14.306  0.1974 -0.5933 -1.2379
   9323SM  C16S12546   3.092   0.849  14.409  0.1148 -0.1908  0.0281
   9323SM  H16S12547   3.166   0.930  14.388 -1.1234  0.7066 -1.0847
   9323SM  H16T12548   3.138   0.749  14.417 -0.8889 -0.7708 -1.0518
   9323SM  C17S12549   3.022   0.864  14.549 -0.0641 -0.2810 -0.5208
   9323SM  H17S12550   3.071   0.783  14.609  0.7680 -0.1115 -0.9581
   9323SM  H17T12551   2.918   0.828  14.536  0.4602 -2.3338  0.4090
   9323SM  C18S12552   3.024   1.004  14.609  0.3735  0.1931  0.1651
   9323SM  H18S12553   3.124   1.046  14.591  1.4694 -1.9910  0.7552
   9323SM  H18T12554   3.007   0.996  14.719 -1.1226 -0.8478 -0.1026
   9323SM  H18U12555   2.948   1.059  14.550  0.6321 -0.4564 -0.8017
   9323SM   C1F12556   2.387   0.646  12.945  0.6401  0.1428  0.2966
   9323SM    OF12557   2.429   0.535  12.915 -0.0498 -0.2033  0.0954
   9323SM   C2F12558   2.248   0.677  13.002  0.5644  0.5804  0.5129
   9323SM   H2F12559   2.174   0.649  12.924 -0.4122 -1.2825  2.0394
   9323SM   H2G12560   2.256   0.788  13.008  0.1414  0.6777 -0.4678
   9323SM   C3F12561   2.215   0.598  13.128 -0.2879  0.5779  0.1341
   9323SM   H3F12562   2.238   0.491  13.107 -0.4080  0.7937 -1.1155
   9323SM   H3G12563   2.104   0.602  13.132 -0.2635  0.5984  1.5900
   9323SM   C4F12564   2.267   0.647  13.263  0.3504 -0.3675  0.5217
   9323SM   H4F12565   2.228   0.749  13.284  0.0863  0.5339 -3.5137
   9323SM   H4G12566   2.377   0.657  13.250  0.2388 -1.6751 -2.1118
   9323SM   C5F12567   2.227   0.557  13.376  0.6347 -0.4078  0.8130
   9323SM   H5F12568   2.271   0.455  13.379  1.0099 -0.4178 -2.2318
   9323SM   H5G12569   2.117   0.539  13.378  0.9050 -2.2064  1.0217
   9323SM   C6F12570   2.266   0.616  13.508  0.5827 -0.5988 -0.7354
   9323SM   H6F12571   2.234   0.723  13.509 -0.0459 -0.6774  2.6027
   9323SM   H6G12572   2.377   0.622  13.514  1.0091 -2.8634 -3.9243
   9323SM   C7F12573   2.191   0.560  13.633 -0.3411 -0.6598  0.3122
   9323SM   H7F12574   2.194   0.450  13.621 -1.4540 -0.6215 -0.4567
   9323SM   H7G12575   2.087   0.600  13.634 -0.2421 -0.2998 -1.3322
   9323SM   C8F12576   2.259   0.600  13.768 -0.2840  0.2982  0.5214
   9323SM   H8F12577   2.260   0.712  13.765  0.8754  0.2846 -1.8635
   9323SM   H8G12578   2.366   0.570  13.763  0.1063  1.7592 -1.1254
   9323SM   C9F12579   2.181   0.558  13.893  0.5724  0.0744  0.4452
   9323SM   H9F12580   2.184   0.447  13.897  1.5543  0.1283  1.7182
   9323SM   H9G12581   2.074   0.590  13.893  0.8386  1.2900 -2.5045
   9323SM  C10F12582   2.236   0.607  14.025  0.8169  0.1951  0.9080
   9323SM  H10F12583   2.234   0.718  14.020 -2.0682  0.2163  1.0306
   9323SM  H10G12584   2.339   0.565  14.029  0.6683 -1.3331 -4.1396
   9323SM  C11F12585   2.160   0.561  14.143  0.2014  0.2756  0.1964
   9323SM  H11F12586   2.141   0.452  14.138  0.7196  0.2251 -0.9749
   9323SM  H11G12587   2.061   0.611  14.143 -0.5441 -1.1023 -1.3365
   9323SM  C12F12588   2.225   0.595  14.279  0.7501 -0.2264 -0.5198
   9323SM  H12F12589   2.140   0.589  14.350  1.0828  1.6468  0.1025
   9323SM  H12G12590   2.271   0.696  14.282  1.0754 -0.3807 -0.0621
   9323SM  C13F12591   2.337   0.499  14.321  0.5481 -0.1169  0.1514
   9323SM  H13F12592   2.420   0.476  14.252  0.0181 -1.0878 -0.1978
   9323SM  H13G12593   2.280   0.406  14.344 -1.0505  1.2614  2.1466
   9323SM  C14F12594   2.404   0.540  14.454  0.0234  0.4532 -0.0358
   9323SM  H14F12595   2.472   0.624  14.427 -0.5601  0.8326 -0.3280
   9323SM  H14G12596   2.470   0.457  14.486  0.1417 -0.5374 -2.6056
   9323SM  C15F12597   2.309   0.568  14.563 -0.9796 -0.2119  0.7144
   9323SM  H15F12598   2.245   0.478  14.579 -1.9828 -0.0053 -1.7064
   9323SM  H15G12599   2.242   0.653  14.539  1.7432  2.1286  0.9038
   9323SM  C16F12600   2.391   0.605  14.684  0.6840 -0.6674 -0.3199
   9323SM  H16F12601   2.469   0.683  14.667  1.0328 -1.1935 -1.2401
   9323SM  H16G12602   2.453   0.515  14.707  1.5107 -0.3072 -1.0563
   9323SM  C17F12603   2.306   0.665  14.805  0.0258  0.1081 -0.0589
   9323SM  H17F12604   2.263   0.579  14.860  2.7965 -1.0939  0.4034
   9323SM  H17G12605   2.225   0.721  14.754 -2.0150 -0.3092  2.5342
   9323SM  C18F12606   2.391   0.760  14.894 -0.3630  0.0024 -0.8234
   9323SM  H18F12607   2.430   0.833  14.819  0.5354  0.3658 -0.0149
   9323SM  H18G12608   2.475   0.705  14.941 -1.1443  0.8873  1.7259
   9323SM  C19F12609   2.309   0.816  15.009  0.1740  0.8700 -0.4460
   9323SM  H19F12610   2.203   0.824  14.975 -0.0183  0.7916  0.1176
   9323SM  H19G12611   2.331   0.924  15.018 -2.1807  1.5063 -1.5957
   9323SM  C20F12612   2.341   0.756  15.143 -0.1658  0.0316 -0.0033
   9323SM  H20F12613   2.435   0.807  15.173  1.9346 -2.1093 -2.4938
   9323SM  H20G12614   2.356   0.647  15.130 -0.8841 -0.0423 -0.2458
   9323SM  C21F12615   2.227   0.779  15.247  0.3754 -0.3180  0.0217
   9323SM  H21F12616   2.255   0.739  15.347 -0.4413  1.7646  1.1514
   9323SM  H21G12617   2.141   0.716  15.214  0.2676  0.4767 -1.2883
   9323SM  C22F12618   2.190   0.924  15.260 -0.3442 -0.1809  0.1086
   9323SM  H22F12619   2.106   0.925  15.333  0.4728 -0.5452  1.0950
   9323SM  H22G12620   2.160   0.956  15.158  2.1764 -2.1353 -1.3761
   9323SM  C23F12621   2.303   1.014  15.310 -0.6653  0.1036 -0.2127
   9323SM  H23F12622   2.393   1.024  15.245 -0.8796  0.1187 -0.5120
   9323SM  H23G12623   2.335   0.984  15.412 -0.9165 -0.4204 -0.2831
   9323SM  H23H12624   2.269   1.119  15.325  0.5571  0.7084 -1.4333
   9423SM     N12625   1.251   1.978  11.970 -0.3028  0.6174 -0.1442
   9423SM   C1512626   1.128   2.066  11.983  0.2779  0.2452 -0.5607
   9423SM  H15A12627   1.070   2.040  11.895 -2.4589  2.4470  0.4383
   9423SM  H15B12628   1.149   2.172  11.981 -0.6168  0.4840  1.1019
   9423SM  H15C12629   1.067   2.039  12.067  0.0469  0.5311 -0.6337
   9423SM   C1412630   1.202   1.830  11.953  0.2562  0.0518 -0.5916
   9423SM  H14A12631   1.280   1.757  11.964  1.6835  1.4206 -1.1848
   9423SM  H14B12632   1.146   1.818  11.861 -0.8039 -1.0961  0.1860
   9423SM  H14C12633   1.122   1.816  12.023  1.4736 -2.0751  0.4642
   9423SM   C1312634   1.330   2.014  11.846  0.4397 -1.2724 -0.0890
   9423SM  H13A12635   1.341   2.121  11.852 -1.2167 -1.0738 -0.1246
   9423SM  H13B12636   1.280   1.993  11.752  2.8052 -0.5830 -1.5777
   9423SM  H13C12637   1.433   1.983  11.845  1.5259  1.9442  0.1754
   9423SM   C1212638   1.338   1.992  12.087  1.0701  0.8253  0.5680
   9423SM  H12A12639   1.410   2.072  12.074  0.6422  0.9216 -1.5735
   9423SM  H12B12640   1.409   1.911  12.092 -0.0081 -0.1793 -0.0568
   9423SM   C1112641   1.266   2.003  12.231 -0.8366 -0.3687 -0.3613
   9423SM  H11A12642   1.192   2.085  12.235  0.3715  0.7224  3.3744
   9423SM  H11B12643   1.348   2.035  12.298 -2.3412 -1.2603  2.0544
   9423SM     P12644   1.303   1.789  12.371  0.2967 -0.3640  0.2946
   9423SM   O1312645   1.216   1.675  12.404  0.4067  0.0238 -0.0585
   9423SM   O1412646   1.432   1.752  12.311 -0.0405  0.0193  0.0678
   9423SM   O1112647   1.324   1.871  12.504 -0.4934  0.0019 -0.7149
   9423SM   O1212648   1.209   1.879  12.278 -0.2509 -0.1203 -0.4360
   9423SM   C1S12649   1.220   1.935  12.580 -0.5967  0.2652 -0.5004
   9423SM   H1S12650   1.125   1.935  12.522  1.0303 -2.1711 -3.4333
   9423SM   H1T12651   1.236   2.041  12.608  2.0605 -0.7824  2.5465
   9423SM    NF12652   1.074   1.923  12.787 -0.0151 -0.1189  0.5244
   9423SM   HNF12653   1.092   1.980  12.867  0.1400  0.2589  0.2255
   9423SM   C2S12654   1.187   1.866  12.721 -0.1831  0.4289  0.0952
   9423SM   H2S12655   1.156   1.764  12.689 -0.1986  0.4742 -0.0357
   9423SM   C3S12656   1.310   1.864  12.824 -0.1388 -0.1129  0.0497
   9423SM   H3S12657   1.322   1.966  12.865  1.8080 -0.0300 -0.6321
   9423SM    O312658   1.435   1.835  12.754 -0.5150 -0.0277  0.3532
   9423SM   HO312659   1.398   1.823  12.667 -1.0564 -1.1922  0.7167
   9423SM   C4S12660   1.283   1.772  12.941 -0.0075  0.7009  0.1187
   9423SM   H4S12661   1.275   1.666  12.914 -0.4961  1.1969 -1.8295
   9423SM   C5S12662   1.259   1.819  13.065  0.4731 -0.3360  0.1101
   9423SM   H5S12663   1.293   1.922  13.082  1.8460 -0.4563 -1.6126
   9423SM   C6S12664   1.236   1.731  13.189  0.6359 -0.0053  0.5839
   9423SM   H6S12665   1.238   1.624  13.161  1.4657  0.1176  0.1371
   9423SM   H6T12666   1.136   1.757  13.229  1.6034  1.1866  2.4076
   9423SM   C7S12667   1.341   1.741  13.307  0.4847 -0.6528 -0.6529
   9423SM   H7S12668   1.321   1.832  13.368  0.4055 -1.1693  0.1097
   9423SM   H7T12669   1.441   1.740  13.260 -0.5736 -2.1614 -3.0487
   9423SM   C8S12670   1.335   1.617  13.404 -0.0005 -0.2925 -0.2721
   9423SM   H8S12671   1.413   1.629  13.483  0.7396  1.7423 -1.2296
   9423SM   H8T12672   1.362   1.522  13.354  0.8440 -1.8108  2.8024
   9423SM   C9S12673   1.197   1.602  13.477  0.1641  0.3791  0.4776
   9423SM   H9S12674   1.132   1.570  13.393  1.1791 -0.3185 -0.0761
   9423SM   H9T12675   1.156   1.697  13.515 -0.3063 -0.1808  1.4087
   9423SM  C10S12676   1.173   1.508  13.594  0.0112  0.1488 -0.1696
   9423SM  H10S12677   1.197   1.402  13.571  1.5299 -0.0737  2.1491
   9423SM  H10T12678   1.068   1.514  13.629  0.0054 -0.3498 -0.1015
   9423SM  C11S12679   1.259   1.554  13.710  0.0190  0.2045 -0.1431
   9423SM  H11S12680   1.234   1.658  13.741  2.1278  0.5455  0.5674
   9423SM  H11T12681   1.364   1.567  13.675  1.4716 -1.2502  3.2304
   9423SM  C12S12682   1.269   1.461  13.839 -0.5873  0.5019  0.7525
   9423SM  H12S12683   1.369   1.470  13.886 -0.2797  1.2873 -0.0342
   9423SM  H12T12684   1.261   1.355  13.806 -2.7701  1.0265 -0.6742
   9423SM  C13S12685   1.183   1.503  13.953  0.0132 -1.3160 -0.4718
   9423SM  H13S12686   1.116   1.422  13.989  1.2529 -1.7628  0.9343
   9423SM  H13T12687   1.125   1.596  13.931  2.2107  0.1793 -0.2296
   9423SM  C14S12688   1.262   1.549  14.085 -0.2764  0.0860 -0.8361
   9423SM  H14S12689   1.310   1.647  14.065  0.6173 -0.2697 -0.4439
   9423SM  H14T12690   1.342   1.474  14.102 -1.4659 -0.4666  3.6916
   9423SM  C15S12691   1.181   1.556  14.211  0.4941  0.0358 -0.7796
   9423SM  H15S12692   1.147   1.452  14.231  0.5590  0.3458  1.1492
   9423SM  H15T12693   1.092   1.622  14.208 -0.0147 -0.4691  1.3755
   9423SM  C16S12694   1.269   1.584  14.333 -0.8334 -1.2224  1.0145
   9423SM  H16S12695   1.291   1.691  14.316 -0.0157 -1.2313  1.9489
   9423SM  H16T12696   1.364   1.528  14.318 -0.2211 -0.0691  0.4803
   9423SM  C17S12697   1.209   1.555  14.473  0.2760 -0.7612 -0.2075
   9423SM  H17S12698   1.181   1.447  14.473  1.6861 -1.1612 -1.1048
   9423SM  H17T12699   1.117   1.615  14.484  0.5913 -0.2629 -0.2655
   9423SM  C18S12700   1.308   1.578  14.586  0.5531  0.7254 -0.4116
   9423SM  H18S12701   1.393   1.507  14.588 -0.4575 -0.5966  3.5145
   9423SM  H18T12702   1.251   1.554  14.678  0.8658 -1.4508 -0.7164
   9423SM  H18U12703   1.354   1.679  14.583 -1.4219  1.6629 -0.6618
   9423SM   C1F12704   0.946   1.897  12.750  0.4837  0.0956  0.0608
   9423SM    OF12705   0.922   1.834  12.652  0.0952  0.6188  0.9377
   9423SM   C2F12706   0.841   1.953  12.844 -0.3974 -0.3323  0.0765
   9423SM   H2F12707   0.798   2.039  12.789  0.3729 -0.4892 -0.7974
   9423SM   H2G12708   0.890   1.992  12.936  0.0006 -0.8212  0.0776
   9423SM   C3F12709   0.730   1.854  12.887  0.4699  0.2237  0.0415
   9423SM   H3F12710   0.673   1.832  12.794  2.4343  1.7529 -1.6075
   9423SM   H3G12711   0.657   1.902  12.955  0.5748  0.0232  0.2966
   9423SM   C4F12712   0.772   1.716  12.940 -0.2222  0.1419 -0.2578
   9423SM   H4F12713   0.818   1.653  12.861  0.6557 -0.2814  0.5595
   9423SM   H4G12714   0.677   1.671  12.977  0.1965  0.4382  1.2581
   9423SM   C5F12715   0.864   1.718  13.064  0.2619 -0.3018 -0.0948
   9423SM   H5F12716   0.969   1.750  13.043  0.0005  1.4436  1.0889
   9423SM   H5G12717   0.874   1.615  13.103 -2.6757 -0.9675 -0.8599
   9423SM   C6F12718   0.810   1.795  13.185 -0.5500  0.4708 -0.2559
   9423SM   H6F12719   0.802   1.896  13.139 -1.1377  0.1329 -0.9113
   9423SM   H6G12720   0.890   1.802  13.261 -1.4900  2.6389  0.6272
   9423SM   C7F12721   0.671   1.750  13.232  0.3435  0.1174  0.0908
   9423SM   H7F12722   0.601   1.767  13.147  1.4405 -0.2719 -0.9298
   9423SM   H7G12723   0.645   1.816  13.317  1.3596  1.6579 -0.7416
   9423SM   C8F12724   0.661   1.600  13.271  0.4540 -0.2448 -0.0265
   9423SM   H8F12725   0.756   1.542  13.272  0.8514  0.3988  0.7854
   9423SM   H8G12726   0.590   1.554  13.200  1.4864 -1.3962 -0.3498
   9423SM   C9F12727   0.604   1.582  13.412 -0.7032  0.5570  0.0979
   9423SM   H9F12728   0.553   1.484  13.423 -1.6462  0.8691 -1.2025
   9423SM   H9G12729   0.526   1.660  13.422 -1.7593 -0.4124 -0.4334
   9423SM  C10F12730   0.714   1.594  13.513  0.0433 -0.1179 -0.1905
   9423SM  H10F12731   0.760   1.691  13.485 -0.5373 -0.1708 -1.3875
   9423SM  H10G12732   0.784   1.508  13.503  0.6311  0.1531  1.2955
   9423SM  C11F12733   0.644   1.597  13.651  0.4374 -0.2862  0.4287
   9423SM  H11F12734   0.572   1.512  13.655  0.3247 -0.1701  0.9425
   9423SM  H11G12735   0.585   1.690  13.665 -1.1927 -1.2282  0.1040
   9423SM  C12F12736   0.736   1.569  13.772  0.5560 -0.6891 -1.0174
   9423SM  H12F12737   0.821   1.641  13.772 -1.1924  1.5457  0.8339
   9423SM  H12G12738   0.776   1.466  13.764  2.4129 -0.0734 -0.2120
   9423SM  C13F12739   0.665   1.599  13.908  0.3479 -0.1031 -0.1646
   9423SM  H13F12740   0.643   1.503  13.959 -0.5325  1.3254  2.2899
   9423SM  H13G12741   0.570   1.646  13.876 -0.9551 -1.6745  1.2174
   9423SM  C14F12742   0.754   1.677  14.000 -0.0865  0.3032  0.0837
   9423SM  H14F12743   0.786   1.769  13.946 -0.1984  0.0925 -0.3489
   9423SM  H14G12744   0.848   1.619  14.014 -0.1940  0.0867 -0.0854
   9423SM  C15F12745   0.696   1.707  14.136 -0.4099  0.5134 -1.3477
   9423SM  H15F12746   0.595   1.751  14.126 -1.2469 -1.0523 -0.1721
   9423SM  H15G12747   0.757   1.786  14.185 -0.9222 -0.8056  1.6195
   9423SM  C16F12748   0.679   1.585  14.231  0.3790  0.0343  0.0776
   9423SM  H16F12749   0.769   1.521  14.225 -0.6543 -1.4496 -0.1213
   9423SM  H16G12750   0.594   1.524  14.194  1.6933 -4.0774  3.0632
   9423SM  C17F12751   0.667   1.618  14.380 -0.1731 -0.0044 -0.2353
   9423SM  H17F12752   0.586   1.692  14.399 -1.7364 -1.6065 -0.3118
   9423SM  H17G12753   0.761   1.669  14.409  0.8253 -2.8631  2.0169
   9423SM  C18F12754   0.662   1.492  14.465 -0.1198  0.2533 -0.1026
   9423SM  H18F12755   0.669   1.404  14.398 -0.5661 -0.4328  0.7337
   9423SM  H18G12756   0.564   1.508  14.515  0.5411  2.8886  0.5266
   9423SM  C19F12757   0.761   1.483  14.579 -0.7430 -0.1446  0.0892
   9423SM  H19F12758   0.752   1.580  14.632  3.0080  1.6773 -2.2236
   9423SM  H19G12759   0.865   1.482  14.541 -1.3961 -1.0011 -1.8080
   9423SM  C20F12760   0.754   1.365  14.676 -0.5428  0.3298  0.3629
   9423SM  H20F12761   0.736   1.277  14.609 -0.5622  0.4615  0.1935
   9423SM  H20G12762   0.657   1.371  14.729 -0.4241 -3.4369  1.3030
   9423SM  C21F12763   0.856   1.344  14.785 -0.4339 -0.3593  0.6775
   9423SM  H21F12764   0.878   1.439  14.840 -0.2101 -0.0236  0.0194
   9423SM  H21G12765   0.950   1.311  14.736 -1.2252  0.3991 -1.4702
   9423SM  C22F12766   0.826   1.221  14.876 -0.0465  0.1283 -0.3499
   9423SM  H22F12767   0.908   1.224  14.951 -0.3336  0.4698 -0.0467
   9423SM  H22G12768   0.837   1.124  14.823 -1.3583  0.0440 -0.5009
   9423SM  C23F12769   0.697   1.221  14.961  0.9140  0.0992  0.2026
   9423SM  H23F12770   0.704   1.312  15.025 -1.2466  0.7163 -0.3659
   9423SM  H23G12771   0.701   1.134  15.030 -1.4922  0.5459  0.9955
   9423SM  H23H12772   0.602   1.214  14.904 -1.0067 -3.4331  3.4219
   9523SM     N12773   3.843   4.036  12.514  0.0303 -0.6519 -0.3519
   9523SM   C1512774   3.959   4.016  12.610  0.8727  0.0617 -0.3346
   9523SM  H15A12775   4.006   3.926  12.573 -0.9121 -1.6484  1.3564
   9523SM  H15B12776   3.930   4.004  12.713  0.0208 -0.3251 -0.6078
   9523SM  H15C12777   4.032   4.095  12.600  0.4872  0.2624 -1.8364
   9523SM   C1412778   3.751   3.921  12.531 -0.4196  0.2654  0.7577
   9523SM  H14A12779   3.809   3.835  12.503 -0.5807  0.1609  0.7452
   9523SM  H14B12780   3.669   3.928  12.461  1.3606  1.3692 -1.3357
   9523SM  H14C12781   3.710   3.903  12.630  0.2510 -0.7295  0.8701
   9523SM   C1312782   3.765   4.163  12.539  0.1330 -0.3082 -0.8965
   9523SM  H13A12783   3.723   4.155  12.638 -1.8576  0.3215 -1.6384
   9523SM  H13B12784   3.698   4.190  12.459  1.2023  3.6627 -0.6512
   9523SM  H13C12785   3.831   4.248  12.549 -1.8303  0.9900  3.0718
   9523SM   C1212786   3.886   4.036  12.365 -0.4485  0.3226  0.1284
   9523SM  H12A12787   3.800   4.017  12.302  0.3951 -1.0564 -0.6733
   9523SM  H12B12788   3.954   3.953  12.348  2.8608  2.5174  1.5398
   9523SM   C1112789   3.975   4.160  12.319  0.5478  0.2617  0.0952
   9523SM  H11A12790   3.916   4.252  12.339  0.0287 -0.3283  1.3178
   9523SM  H11B12791   4.012   4.148  12.215 -0.2701  0.3698 -0.2153
   9523SM     P12792   4.167   4.281  12.456  0.0006  0.2123  0.1668
   9523SM   O1312793   4.288   4.292  12.378  0.5670  0.0154  0.6420
   9523SM   O1412794   4.074   4.396  12.463  0.3213  0.4726 -0.4746
   9523SM   O1112795   4.193   4.230  12.601 -0.2108 -0.3479  0.6961
   9523SM   O1212796   4.085   4.158  12.410  0.1367  0.0528  1.0852
   9523SM   C1S12797   4.189   4.319  12.713  0.0636 -0.4068 -0.2450
   9523SM   H1S12798   4.088   4.363  12.720  0.3664  0.0897  1.2939
   9523SM   H1T12799   4.263   4.399  12.695  1.2493 -1.8129 -1.9299
   9523SM    NF12800   4.222   4.333  12.945 -0.6096  0.3282  0.0249
   9523SM   HNF12801   4.308   4.356  12.991 -0.4208  0.4425 -0.3794
   9523SM   C2S12802   4.223   4.235  12.839  0.6795 -0.0615  0.1984
   9523SM   H2S12803   4.139   4.164  12.855  1.1607 -1.3639 -2.4676
   9523SM   C3S12804   4.357   4.153  12.831 -0.5809 -0.4485 -1.4723
   9523SM   H3S12805   4.442   4.223  12.816  0.7666 -2.0534 -1.6392
   9523SM    O312806   4.371   4.054  12.734 -0.7286 -0.5258 -0.0586
   9523SM   HO312807   4.305   4.090  12.674 -0.8376  3.2078  2.0304
   9523SM   C4S12808   4.374   4.078  12.968  0.1836 -0.2779  0.1954
   9523SM   H4S12809   4.433   4.139  13.038 -0.3540  1.5050 -0.8235
   9523SM   C5S12810   4.309   3.964  13.002 -0.1864  0.2843 -0.7993
   9523SM   H5S12811   4.227   3.920  12.943 -0.3674  1.0997 -1.1612
   9523SM   C6S12812   4.332   3.895  13.141 -0.1093 -0.4093  0.3166
   9523SM   H6S12813   4.439   3.910  13.165 -0.2145  1.7015 -0.3922
   9523SM   H6T12814   4.301   3.788  13.144 -2.3936  0.1502 -0.8821
   9523SM   C7S12815   4.265   3.968  13.261  0.2843  0.3035 -0.4866
   9523SM   H7S12816   4.157   3.984  13.239  0.5979  1.6392 -1.1346
   9523SM   H7T12817   4.309   4.070  13.263  0.7956  0.1201 -1.5395
   9523SM   C8S12818   4.311   3.900  13.393 -0.5740  0.0351 -0.2689
   9523SM   H8S12819   4.422   3.896  13.388 -0.2214  2.3237  2.8072
   9523SM   H8T12820   4.269   3.797  13.391 -0.5389 -0.1143  2.7987
   9523SM   C9S12821   4.257   3.976  13.521 -0.2217 -0.3313 -0.3201
   9523SM   H9S12822   4.146   3.972  13.522 -0.3039  1.3027 -0.3471
   9523SM   H9T12823   4.291   4.082  13.522 -1.2031  0.0035  1.1540
   9523SM  C10S12824   4.298   3.916  13.653  0.2468  0.0284  0.0577
   9523SM  H10S12825   4.406   3.890  13.648 -0.0779 -1.2201 -1.1394
   9523SM  H10T12826   4.243   3.820  13.667 -0.2725  0.4499  0.9669
   9523SM  C11S12827   4.279   3.990  13.779 -0.4417  0.0462 -0.5333
   9523SM  H11S12828   4.173   4.019  13.790 -0.5199 -0.5041  0.2594
   9523SM  H11T12829   4.342   4.081  13.766 -1.7610  0.9610 -0.7046
   9523SM  C12S12830   4.321   3.908  13.901  0.4596 -0.1655 -0.5128
   9523SM  H12S12831   4.429   3.884  13.892  0.9926  1.6427  0.4766
   9523SM  H12T12832   4.259   3.816  13.911 -2.2766  1.6728  0.5641
   9523SM  C13S12833   4.308   3.986  14.024  0.2494 -0.5899  0.7391
   9523SM  H13S12834   4.222   4.055  14.013 -0.0128 -1.3799 -3.4504
   9523SM  H13T12835   4.402   4.044  14.039  1.8873 -2.4529 -1.5176
   9523SM  C14S12836   4.282   3.896  14.147  0.0411 -0.3249 -0.4057
   9523SM  H14S12837   4.358   3.815  14.147  0.5523 -0.0467 -4.4528
   9523SM  H14T12838   4.189   3.838  14.127  0.8784 -1.3328 -1.5580
   9523SM  C15S12839   4.281   3.961  14.286  0.5859 -0.4196  0.2744
   9523SM  H15S12840   4.213   4.048  14.271  0.7369 -0.7052 -2.7681
   9523SM  H15T12841   4.382   4.000  14.307  0.4397 -0.1711  0.5216
   9523SM  C16S12842   4.265   3.858  14.395  0.4087 -0.4024 -0.6238
   9523SM  H16S12843   4.337   3.775  14.385 -0.1108 -0.8370 -0.8107
   9523SM  H16T12844   4.164   3.812  14.403  0.0970  0.2920 -0.4270
   9523SM  C17S12845   4.301   3.926  14.528  0.5528  1.3907  0.0376
   9523SM  H17S12846   4.250   4.025  14.527 -1.5727  0.3477 -1.1793
   9523SM  H17T12847   4.410   3.948  14.534  0.8041  0.0577  0.6072
   9523SM  C18S12848   4.263   3.845  14.654  0.1114  0.4553  0.2937
   9523SM  H18S12849   4.274   3.904  14.748  2.2524 -0.1368  0.4660
   9523SM  H18T12850   4.316   3.748  14.665  0.7503  0.6468 -1.0042
   9523SM  H18U12851   4.156   3.825  14.633 -0.1851  1.3271  0.8991
   9523SM   C1F12852   4.114   4.380  13.000  0.3673  0.2202 -0.3065
   9523SM    OF12853   4.005   4.337  12.975 -0.0928  0.1515 -0.0546
   9523SM   C2F12854   4.121   4.488  13.104  0.4195 -0.3020 -0.1173
   9523SM   H2F12855   4.064   4.575  13.065 -0.4847 -1.0375 -0.4479
   9523SM   H2G12856   4.220   4.540  13.112 -0.6501  1.9904 -0.8042
   9523SM   C3F12857   4.063   4.442  13.241 -0.5052 -0.3172 -0.0276
   9523SM   H3F12858   3.954   4.421  13.233 -0.3925 -0.8324 -0.2294
   9523SM   H3G12859   4.100   4.526  13.304 -0.8263 -0.5065  0.4152
   9523SM   C4F12860   4.130   4.312  13.289 -0.5395 -0.2962  0.2061
   9523SM   H4F12861   4.240   4.317  13.306 -0.5257 -0.0451  0.0499
   9523SM   H4G12862   4.097   4.225  13.229  0.5930  0.1484 -1.1109
   9523SM   C5F12863   4.076   4.286  13.428  0.6439  0.5827 -0.4482
   9523SM   H5F12864   4.101   4.180  13.453  1.3932  1.0966  1.1715
   9523SM   H5G12865   3.965   4.288  13.431  0.5336  0.1683  4.6638
   9523SM   C6F12866   4.132   4.371  13.540 -0.1377  0.1353 -0.4570
   9523SM   H6F12867   4.098   4.477  13.530  2.2519  1.2759  2.1799
   9523SM   H6G12868   4.241   4.382  13.520 -0.4548  0.2548 -2.3846
   9523SM   C7F12869   4.107   4.313  13.678 -0.4270 -0.3901  0.8434
   9523SM   H7F12870   4.153   4.214  13.657 -1.8934 -0.7952 -0.6879
   9523SM   H7G12871   3.997   4.310  13.696 -0.6017 -1.9270 -0.3052
   9523SM   C8F12872   4.177   4.408  13.781 -0.2793  0.2011  0.6252
   9523SM   H8F12873   4.138   4.511  13.766 -0.3673 -0.2446 -3.6510
   9523SM   H8G12874   4.284   4.411  13.750 -0.0695 -0.1837  1.3166
   9523SM   C9F12875   4.166   4.344  13.920 -0.5982  0.1101 -0.3397
   9523SM   H9F12876   4.227   4.251  13.907 -0.3712  0.5413 -2.8465
   9523SM   H9G12877   4.062   4.317  13.949 -0.3569 -0.0105  0.4283
   9523SM  C10F12878   4.244   4.435  14.023  0.4633 -0.1912  0.9414
   9523SM  H10F12879   4.208   4.538  14.000  1.4818 -0.6080 -3.4122
   9523SM  H10G12880   4.353   4.440  14.001  0.3564  0.1360  0.4610
   9523SM  C11F12881   4.231   4.400  14.169  0.6266  0.3362  0.1008
   9523SM  H11F12882   4.275   4.299  14.186 -0.2248 -0.2005 -0.7973
   9523SM  H11G12883   4.124   4.389  14.195  0.7943 -2.0523  0.0208
   9523SM  C12F12884   4.303   4.500  14.255 -0.7556 -0.5363 -0.1886
   9523SM  H12F12885   4.264   4.603  14.241 -0.0832  0.2172  2.6895
   9523SM  H12G12886   4.410   4.498  14.227 -0.9138  0.3680 -0.9131
   9523SM  C13F12887   4.298   4.477  14.412 -0.0191 -0.3988 -0.3288
   9523SM  H13F12888   4.189   4.469  14.431  0.2808 -1.1306  1.1784
   9523SM  H13G12889   4.339   4.564  14.468 -1.7554 -1.1419  2.2335
   9523SM  C14F12890   4.368   4.354  14.475  0.2249 -0.1485 -0.0570
   9523SM  H14F12891   4.478   4.368  14.479  0.4824 -1.9017 -0.4462
   9523SM  H14G12892   4.357   4.271  14.402 -0.7461  0.5769 -0.7682
   9523SM  C15F12893   4.317   4.306  14.607  0.1602 -0.4554  0.1312
   9523SM  H15F12894   4.352   4.207  14.643  0.3344  0.0884  1.5371
   9523SM  H15G12895   4.206   4.302  14.605 -0.1791  2.4922  3.2661
   9523SM  C16F12896   4.359   4.392  14.731  0.4565  0.6702  0.0703
   9523SM  H16F12897   4.301   4.487  14.723 -1.3981 -0.5677 -2.9495
   9523SM  H16G12898   4.469   4.404  14.738  0.5132 -0.5787  1.9074
   9523SM  C17F12899   4.313   4.313  14.855  0.0391  0.1233 -0.3867
   9523SM  H17F12900   4.375   4.222  14.867 -0.9967 -0.7061 -1.1814
   9523SM  H17G12901   4.215   4.261  14.848  1.3059 -2.2011 -2.0861
   9523SM  C18F12902   4.322   4.396  14.984 -0.0391  0.1923 -0.0733
   9523SM  H18F12903   4.244   4.474  14.967 -1.6089 -1.3270 -0.1396
   9523SM  H18G12904   4.423   4.442  14.987  1.1070 -2.2256  1.9104
   9523SM  C19F12905   4.317   4.320  15.111 -0.5418  0.1982 -0.2489
   9523SM  H19F12906   4.239   4.241  15.114  1.5858 -1.9891  0.5986
   9523SM  H19G12907   4.302   4.385  15.200 -1.2846 -0.0299 -0.2038
   9523SM  C20F12908   4.457   4.243  15.142  0.8838  0.1182  0.1095
   9523SM  H20F12909   4.544   4.312  15.130  0.6468  0.6199  1.1873
   9523SM  H20G12910   4.483   4.165  15.067 -0.2276  0.1239 -0.2998
   9523SM  C21F12911   4.452   4.185  15.280 -0.7725 -0.0466  0.2948
   9523SM  H21F12912   4.356   4.132  15.296 -1.0874  0.7945  1.2629
   9523SM  H21G12913   4.460   4.274  15.345 -2.2416 -1.7260  2.9622
   9523SM  C22F12914   4.572   4.088  15.304 -0.0064  0.1851 -1.1347
   9523SM  H22F12915   4.567   4.015  15.221  0.2670 -0.5255 -0.5362
   9523SM  H22G12916   4.543   4.041  15.400 -0.5924 -1.6084 -2.1483
   9523SM  C23F12917   4.703   4.158  15.304 -0.1467 -0.2297 -0.9837
   9523SM  H23F12918   4.733   4.204  15.207  0.6815 -1.5742 -1.3810
   9523SM  H23G12919   4.782   4.082  15.318 -0.4525 -0.3171  0.3348
   9523SM  H23H12920   4.712   4.228  15.390 -1.2480 -1.1487 -0.0978
   9623SM     N12921   5.981   3.024  12.511  0.6519 -0.1553  0.0675
   9623SM   C1512922   6.115   3.078  12.473  0.8053  0.8763 -0.7043
   9623SM  H15A12923   6.114   3.077  12.365 -1.3931  0.6276 -0.7207
   9623SM  H15B12924   6.197   3.016  12.505  0.3997  0.3164 -0.7477
   9623SM  H15C12925   6.129   3.181  12.503  1.9099  0.6681 -0.4675
   9623SM   C1412926   5.991   2.979  12.655  0.6045  0.5435 -1.0055
   9623SM  H14A12927   5.904   2.927  12.693  0.4362  1.5700  0.0729
   9623SM  H14B12928   6.017   3.051  12.731  0.7155 -0.3839 -0.1351
   9623SM  H14C12929   6.074   2.910  12.656 -1.3079 -1.9201 -1.9872
   9623SM   C1312930   5.871   3.127  12.497  0.6682  0.2487  0.2183
   9623SM  H13A12931   5.885   3.190  12.584  0.2530  2.6289 -1.3595
   9623SM  H13B12932   5.772   3.088  12.515  0.8622 -0.2093  0.3211
   9623SM  H13C12933   5.879   3.185  12.406  1.7020  2.1637  1.4680
   9623SM   C1212934   5.948   2.910  12.419  0.3250 -0.1363  0.0949
   9623SM  H12A12935   5.952   2.942  12.315 -1.4806 -0.5996 -0.1581
   9623SM  H12B12936   5.845   2.881  12.430  0.5129 -1.2406 -0.8290
   9623SM   C1112937   6.041   2.783  12.432 -0.3074  0.3534 -0.2226
   9623SM  H11A12938   6.049   2.755  12.539 -0.3940  0.2191 -0.2495
   9623SM  H11B12939   6.145   2.806  12.400 -0.0415 -2.5728 -1.8041
   9623SM     P12940   5.879   2.576  12.398  0.0965  0.0831 -0.3576
   9623SM   O1312941   5.756   2.629  12.342  0.2176 -0.0953  0.2128
   9623SM   O1412942   5.923   2.436  12.374  0.3183  0.0076  0.7850
   9623SM   O1112943   5.882   2.604  12.558 -0.0574 -0.1105  0.5112
   9623SM   O1212944   5.996   2.675  12.347  0.3031  0.3262 -0.0534
   9623SM   C1S12945   5.754   2.617  12.617  0.0835  0.2503 -0.0481
   9623SM   H1S12946   5.684   2.537  12.584  2.4022 -2.4637  1.1332
   9623SM   H1T12947   5.701   2.712  12.594  0.0843  0.1539 -0.4562
   9623SM    NF12948   5.630   2.606  12.828  0.9686  0.1183  0.3683
   9623SM   HNF12949   5.599   2.693  12.864 -2.1288 -0.6832 -0.1079
   9623SM   C2S12950   5.763   2.592  12.772  0.1106 -0.7278 -0.3428
   9623SM   H2S12951   5.798   2.488  12.790  1.3134 -0.2146  0.3773
   9623SM   C3S12952   5.867   2.691  12.840 -0.0736 -0.4331 -0.1150
   9623SM   H3S12953   5.835   2.793  12.809 -0.8115 -0.4953  0.4206
   9623SM    O312954   6.001   2.686  12.785  0.7437  0.2141 -0.6779
   9623SM   HO312955   5.983   2.672  12.692 -2.3752 -2.2312  0.1152
   9623SM   C4S12956   5.867   2.687  12.988  0.4877  0.1660  0.2180
   9623SM   H4S12957   5.813   2.775  13.026 -2.2680 -1.8503  1.3228
   9623SM   C5S12958   5.926   2.602  13.072 -0.2360 -0.8023 -0.9006
   9623SM   H5S12959   5.977   2.509  13.041  1.0659 -0.3056 -0.3330
   9623SM   C6S12960   5.924   2.608  13.224  0.0432  0.8698  0.2619
   9623SM   H6S12961   6.022   2.576  13.266 -1.2792 -2.4431  1.1318
   9623SM   H6T12962   5.856   2.530  13.265  0.7038  0.0698 -0.1342
   9623SM   C7S12963   5.887   2.745  13.284  0.7743 -0.4987 -0.2879
   9623SM   H7S12964   5.787   2.770  13.242  0.3968 -0.6600  0.4985
   9623SM   H7T12965   5.963   2.811  13.238 -0.4241  2.2481  1.4285
   9623SM   C8S12966   5.882   2.759  13.440  0.1178  0.6935  0.0915
   9623SM   H8S12967   5.884   2.868  13.463  0.1988  0.9485 -1.0552
   9623SM   H8T12968   5.974   2.717  13.485  0.0832  1.2244  0.6741
   9623SM   C9S12969   5.761   2.685  13.502 -0.4817 -0.6341  0.0096
   9623SM   H9S12970   5.777   2.576  13.489 -0.5836 -0.6436 -0.0309
   9623SM   H9T12971   5.669   2.710  13.444 -0.8626  3.3296  1.9836
   9623SM  C10S12972   5.734   2.714  13.653  0.3507 -0.1929 -0.3137
   9623SM  H10S12973   5.657   2.645  13.694  0.4824  0.1182  0.4772
   9623SM  H10T12974   5.700   2.819  13.660  2.6970  0.5295  2.3068
   9623SM  C11S12975   5.850   2.705  13.755 -0.6872 -0.1628  0.2112
   9623SM  H11S12976   5.926   2.779  13.722  1.6200 -2.7499 -0.6541
   9623SM  H11T12977   5.903   2.607  13.749  0.1062  0.2724 -0.0158
   9623SM  C12S12978   5.818   2.739  13.901 -0.1408  0.4760  0.2154
   9623SM  H12S12979   5.751   2.826  13.887  0.5245  0.5821 -2.9291
   9623SM  H12T12980   5.905   2.767  13.965 -1.4154  0.8186  1.8585
   9623SM  C13S12981   5.740   2.638  13.990  0.3889 -0.3550 -0.5000
   9623SM  H13S12982   5.797   2.544  14.002 -0.6074 -1.2412 -2.3840
   9623SM  H13T12983   5.651   2.614  13.929  1.3550  0.3503 -2.2442
   9623SM  C14S12984   5.711   2.707  14.126 -0.0355 -0.1630 -0.5117
   9623SM  H14S12985   5.637   2.641  14.177  0.4865 -1.2113 -1.0692
   9623SM  H14T12986   5.666   2.806  14.102 -0.9547 -0.4716 -0.1197
   9623SM  C15S12987   5.833   2.722  14.220 -0.5243  0.0863  0.2799
   9623SM  H15S12988   5.906   2.785  14.165 -2.8265 -0.0884 -3.2594
   9623SM  H15T12989   5.874   2.620  14.239 -0.7005 -0.0505 -0.0716
   9623SM  C16S12990   5.787   2.773  14.360  0.1928 -0.0094 -0.1765
   9623SM  H16S12991   5.676   2.759  14.363  0.3055 -0.8706  0.6507
   9623SM  H16T12992   5.804   2.883  14.360  2.6185 -0.3423 -0.9194
   9623SM  C17S12993   5.857   2.706  14.481  0.1292 -0.4351  0.8314
   9623SM  H17S12994   5.966   2.724  14.479 -0.0565  0.7901  0.2610
   9623SM  H17T12995   5.843   2.596  14.474  2.3433 -0.7625  0.8122
   9623SM  C18S12996   5.810   2.752  14.616 -0.1382 -0.1042  0.1440
   9623SM  H18S12997   5.824   2.862  14.624 -1.2419  0.0091  0.6959
   9623SM  H18T12998   5.885   2.717  14.690 -0.4886 -0.2371  0.4367
   9623SM  H18U12999   5.712   2.706  14.641 -0.3680 -0.3849 -1.2115
   9623SM   C1F13000   5.537   2.506  12.803 -0.1484 -0.5603  0.0899
   9623SM    OF13001   5.574   2.395  12.774  0.1328 -0.0808  0.1994
   9623SM   C2F13002   5.395   2.529  12.816  0.3174 -0.7976  0.1591
   9623SM   H2F13003   5.351   2.427  12.823 -1.0566 -0.1756  1.4083
   9623SM   H2G13004   5.346   2.574  12.727  0.8870  0.3486  0.4098
   9623SM   C3F13005   5.348   2.605  12.940 -1.0729  0.1941 -1.0866
   9623SM   H3F13006   5.237   2.610  12.938 -1.0754  0.4642 -0.5546
   9623SM   H3G13007   5.378   2.712  12.947  3.0569 -0.6171 -3.2258
   9623SM   C4F13008   5.386   2.518  13.063  1.0288  0.0605 -0.1046
   9623SM   H4F13009   5.493   2.538  13.088  0.9305 -0.1925  0.5439
   9623SM   H4G13010   5.369   2.409  13.045  1.0392  0.0065  0.2051
   9623SM   C5F13011   5.311   2.554  13.191 -0.4567 -0.5055  0.0091
   9623SM   H5F13012   5.217   2.497  13.205  0.9094 -2.6733  0.8120
   9623SM   H5G13013   5.287   2.663  13.186  0.5671 -0.2758 -0.3866
   9623SM   C6F13014   5.389   2.525  13.322 -0.3975 -0.4490  0.0910
   9623SM   H6F13015   5.487   2.577  13.313 -1.3836  1.4577 -0.3322
   9623SM   H6G13016   5.403   2.415  13.322  2.1042 -0.1874  0.0133
   9623SM   C7F13017   5.312   2.562  13.447  0.0262  0.2127  0.1781
   9623SM   H7F13018   5.209   2.521  13.436 -0.0304  0.7383 -1.5215
   9623SM   H7G13019   5.312   2.673  13.452  1.1722  0.2650 -0.6098
   9623SM   C8F13020   5.378   2.505  13.575  0.4646 -1.1143 -0.4622
   9623SM   H8F13021   5.487   2.497  13.556  0.9199  1.7972  0.4958
   9623SM   H8G13022   5.337   2.403  13.588 -1.7139 -0.2071  0.1602
   9623SM   C9F13023   5.348   2.583  13.702  0.3245 -0.5342  0.2979
   9623SM   H9F13024   5.237   2.593  13.704  0.3803  0.1278  0.1121
   9623SM   H9G13025   5.400   2.681  13.706  0.3058 -0.5463  3.0073
   9623SM  C10F13026   5.391   2.505  13.827  0.0935 -0.0878  0.7619
   9623SM  H10F13027   5.502   2.496  13.832  0.1305  0.4145  0.8579
   9623SM  H10G13028   5.350   2.403  13.809 -1.2499  0.5901 -0.2047
   9623SM  C11F13029   5.320   2.550  13.956 -0.2658  0.0446  0.3127
   9623SM  H11F13030   5.215   2.517  13.949 -0.4309 -0.0526  2.5686
   9623SM  H11G13031   5.322   2.661  13.967  1.1545  0.0891 -0.2219
   9623SM  C12F13032   5.379   2.482  14.081  0.1197 -0.4617 -0.0748
   9623SM  H12F13033   5.489   2.471  14.069  0.5394  2.9149 -0.0890
   9623SM  H12G13034   5.323   2.386  14.089 -1.4244  0.5389  2.4558
   9623SM  C13F13035   5.355   2.564  14.204 -0.0835 -0.1189 -0.1207
   9623SM  H13F13036   5.247   2.586  14.218 -0.6667 -2.6971 -0.0742
   9623SM  H13G13037   5.405   2.663  14.193 -3.2047  1.8709  1.7662
   9623SM  C14F13038   5.398   2.494  14.331 -0.2797 -0.0415  0.4402
   9623SM  H14F13039   5.509   2.483  14.332 -0.3079 -0.7460 -1.1947
   9623SM  H14G13040   5.367   2.387  14.331  3.0198 -1.1251  1.0596
   9623SM  C15F13041   5.353   2.554  14.470  0.0929 -0.1021 -0.5808
   9623SM  H15F13042   5.245   2.534  14.486  0.2183 -1.2384 -1.0518
   9623SM  H15G13043   5.359   2.663  14.451 -0.8119  0.0915  0.1716
   9623SM  C16F13044   5.444   2.514  14.585  0.1646 -0.8032  0.1102
   9623SM  H16F13045   5.550   2.523  14.553  0.2707 -2.3711 -0.0851
   9623SM  H16G13046   5.423   2.406  14.603  1.0882 -0.6350  2.5709
   9623SM  C17F13047   5.417   2.594  14.712 -0.2525  0.2109  0.7023
   9623SM  H17F13048   5.387   2.695  14.678 -2.0261 -0.7855 -0.8397
   9623SM  H17G13049   5.514   2.598  14.767  0.5849 -0.1588 -0.6930
   9623SM  C18F13050   5.307   2.545  14.811 -0.3008  0.4205 -0.1997
   9623SM  H18F13051   5.326   2.437  14.834  0.7140  0.5336 -0.4372
   9623SM  H18G13052   5.211   2.553  14.756  0.9809  0.4237 -2.5751
   9623SM  C19F13053   5.296   2.629  14.937  0.7533 -0.6027  0.1095
   9623SM  H19F13054   5.202   2.606  14.991  0.2071  0.9588 -0.1379
   9623SM  H19G13055   5.268   2.734  14.914 -1.7670 -0.7658  2.0397
   9623SM  C20F13056   5.416   2.617  15.032  0.2008  0.0426 -0.0075
   9623SM  H20F13057   5.503   2.657  14.977 -0.5477  2.2936  0.3512
   9623SM  H20G13058   5.429   2.509  15.057  1.1942  0.3880  1.0471
   9623SM  C21F13059   5.386   2.679  15.168 -0.2442 -0.2479  0.0968
   9623SM  H21F13060   5.303   2.625  15.218 -1.5605 -0.3469 -2.0826
   9623SM  H21G13061   5.355   2.782  15.139  1.0696  0.3538  0.7281
   9623SM  C22F13062   5.509   2.688  15.260 -0.4121 -0.5240  0.3929
   9623SM  H22F13063   5.585   2.751  15.210 -0.7184  0.7731  1.4873
   9623SM  H22G13064   5.546   2.585  15.278  1.0767 -0.0716 -0.0020
   9623SM  C23F13065   5.491   2.753  15.399  0.0631 -0.1193 -0.4347
   9623SM  H23F13066   5.458   2.857  15.378 -0.9673 -0.5010 -0.7809
   9623SM  H23G13067   5.584   2.757  15.460  0.2292  0.2872 -0.7088
   9623SM  H23H13068   5.410   2.693  15.445 -1.4831  1.7066 -0.6376
   9723SM     N13069   5.893   2.110  12.225  0.0684  0.8526 -0.7026
   9723SM   C1513070   5.863   1.964  12.195  0.0450 -0.0711 -0.2895
   9723SM  H15A13071   5.863   1.938  12.090 -1.2715 -2.0361  0.1397
   9723SM  H15B13072   5.767   1.944  12.239 -0.0700  2.1625  0.6076
   9723SM  H15C13073   5.939   1.900  12.238 -1.1153 -2.3871 -1.5178
   9723SM   C1413074   6.011   2.146  12.144 -0.2687 -0.1242  0.2943
   9723SM  H14A13075   6.053   2.244  12.159  3.7011 -1.5998 -0.2107
   9723SM  H14B13076   5.986   2.114  12.043 -0.5290  0.6766  0.0961
   9723SM  H14C13077   6.090   2.080  12.176  0.1087  0.6503  0.9639
   9723SM   C1313078   5.776   2.192  12.166  0.2009  0.0683  0.3327
   9723SM  H13A13079   5.777   2.295  12.198 -0.6733 -1.0486  4.5930
   9723SM  H13B13080   5.683   2.159  12.210 -0.9357  0.7305 -1.4881
   9723SM  H13C13081   5.763   2.166  12.062  0.5572 -0.1905  0.3523
   9723SM   C1213082   5.926   2.142  12.375  0.4029 -0.6206  0.0471
   9723SM  H12A13083   5.841   2.128  12.439 -0.7059  0.0895 -1.2222
   9723SM  H12B13084   5.935   2.249  12.381  0.4068 -0.5900 -0.3995
   9723SM   C1113085   6.039   2.067  12.446  1.3125  0.4998  0.4832
   9723SM  H11A13086   6.049   2.106  12.550 -1.7237  1.3892  0.5502
   9723SM  H11B13087   6.134   2.089  12.394  0.1001 -0.5708 -2.4150
   9723SM     P13088   5.899   1.867  12.547  0.5143  0.5264  0.1771
   9723SM   O1313089   5.785   1.955  12.545 -0.2378 -0.4049 -0.0968
   9723SM   O1413090   5.869   1.728  12.510  0.8365  0.7069 -0.3919
   9723SM   O1113091   5.966   1.871  12.686 -0.3413  0.2310 -0.3096
   9723SM   O1213092   6.008   1.926  12.449 -0.1768  0.5872  0.1756
   9723SM   C1S13093   5.952   1.987  12.771  0.4504 -0.6143 -0.3619
   9723SM   H1S13094   5.867   2.051  12.739  1.7109  0.6201 -1.3958
   9723SM   H1T13095   6.040   2.054  12.760 -0.3793  0.8406  1.2690
   9723SM    NF13096   5.919   2.059  13.002 -0.3659  0.7451  0.2110
   9723SM   HNF13097   5.994   2.110  13.042  1.7327 -1.9411 -0.0265
   9723SM   C2S13098   5.952   1.943  12.921 -0.3134 -0.9964 -0.5419
   9723SM   H2S13099   5.869   1.869  12.913 -0.2277 -1.0522 -0.9433
   9723SM   C3S13100   6.085   1.878  12.966 -0.1376 -0.1895 -0.4196
   9723SM   H3S13101   6.170   1.949  12.971 -0.0606 -0.3455  0.8434
   9723SM    O313102   6.130   1.771  12.879 -0.3309 -0.6183  0.9547
   9723SM   HO313103   6.072   1.776  12.803  0.8864  0.7327  0.0652
   9723SM   C4S13104   6.072   1.825  13.106  0.3138  0.1694  0.4079
   9723SM   H4S13105   6.107   1.896  13.182  0.3601  0.5671  0.0169
   9723SM   C5S13106   6.028   1.701  13.140  1.0382  0.1059  0.3846
   9723SM   H5S13107   6.002   1.632  13.059  1.5583 -0.2435  0.5111
   9723SM   C6S13108   6.025   1.642  13.279 -0.3597 -0.5661 -0.0280
   9723SM   H6S13109   6.110   1.571  13.291 -1.2600 -1.3273  2.3971
   9723SM   H6T13110   5.932   1.586  13.300  0.3894 -2.2567 -1.0347
   9723SM   C7S13111   6.029   1.750  13.394  0.4879  0.5974  0.7109
   9723SM   H7S13112   5.954   1.832  13.384  1.8637  1.6894 -1.6260
   9723SM   H7T13113   6.121   1.813  13.396  0.4602  0.6904 -0.2214
   9723SM   C8S13114   6.029   1.681  13.531  0.0831  0.0724 -0.6046
   9723SM   H8S13115   6.118   1.615  13.543 -0.0072  0.0568  0.0163
   9723SM   H8T13116   5.952   1.601  13.532  0.7287 -0.5562  0.0308
   9723SM   C9S13117   6.007   1.781  13.649 -0.3236 -0.6385 -0.1148
   9723SM   H9S13118   5.899   1.808  13.655 -1.0208 -3.2928  0.7801
   9723SM   H9T13119   6.066   1.869  13.614 -1.4342 -0.7303 -2.3492
   9723SM  C10S13120   6.057   1.728  13.785  0.0976 -0.1144  0.3437
   9723SM  H10S13121   6.168   1.714  13.781  0.1730  0.6770 -0.5176
   9723SM  H10T13122   6.011   1.630  13.809  2.7516 -2.4356 -2.9900
   9723SM  C11S13123   6.039   1.835  13.898  0.2173  0.5312  0.8521
   9723SM  H11S13124   5.936   1.876  13.899  0.0107  0.2369 -1.9083
   9723SM  H11T13125   6.101   1.922  13.867  0.7963 -0.7397 -1.8701
   9723SM  C12S13126   6.080   1.789  14.033  0.2019 -0.1320 -0.4462
   9723SM  H12S13127   6.177   1.736  14.042 -0.5677 -1.7776 -1.4324
   9723SM  H12T13128   5.999   1.728  14.079 -0.6265  1.1756 -0.1159
   9723SM  C13S13129   6.095   1.908  14.135  0.5497  0.3495  0.4539
   9723SM  H13S13130   6.005   1.972  14.138  0.2704 -0.0651  1.2416
   9723SM  H13T13131   6.185   1.963  14.100  1.7806 -2.1708 -0.6254
   9723SM  C14S13132   6.118   1.851  14.279 -0.4172  0.2740  0.3392
   9723SM  H14S13133   6.216   1.799  14.271 -0.5031  0.1140  0.3418
   9723SM  H14T13134   6.037   1.784  14.313 -0.2850 -0.5349 -0.8816
   9723SM  C15S13135   6.152   1.964  14.384 -0.1555 -0.6799  0.4362
   9723SM  H15S13136   6.057   2.019  14.400  0.2885  0.1554  0.2606
   9723SM  H15T13137   6.222   2.033  14.333  0.5221 -1.0305  0.8825
   9723SM  C16S13138   6.206   1.910  14.520  0.8763 -0.1163  1.0098
   9723SM  H16S13139   6.311   1.879  14.499  0.5230  0.5044 -2.2088
   9723SM  H16T13140   6.148   1.823  14.557 -2.4393  1.6236  0.2908
   9723SM  C17S13141   6.208   2.021  14.615 -0.2069 -0.1081 -0.3059
   9723SM  H17S13142   6.109   2.070  14.615 -1.1624 -1.9731 -0.5945
   9723SM  H17T13143   6.291   2.089  14.584  0.8908 -1.5123 -0.5372
   9723SM  C18S13144   6.245   1.974  14.755 -0.0461  0.3928 -0.2817
   9723SM  H18S13145   6.344   1.922  14.757  3.2079  5.7391 -1.2256
   9723SM  H18T13146   6.152   1.920  14.780 -2.4499  3.2103 -2.3951
   9723SM  H18U13147   6.248   2.061  14.825 -0.4395 -1.3907  2.0871
   9723SM   C1F13148   5.800   2.111  12.990  0.2170  0.7150 -0.7492
   9723SM    OF13149   5.712   2.050  12.936 -0.1057 -0.1908 -0.2761
   9723SM   C2F13150   5.780   2.249  13.048 -0.5850 -0.2258 -0.2652
   9723SM   H2F13151   5.770   2.320  12.963 -3.3302 -0.8402 -0.5522
   9723SM   H2G13152   5.874   2.276  13.100 -1.3333  0.9453  0.5137
   9723SM   C3F13153   5.651   2.255  13.127  0.1788  0.6370  0.8786
   9723SM   H3F13154   5.577   2.222  13.050  1.9882  0.3276 -0.8070
   9723SM   H3G13155   5.627   2.356  13.168 -1.0707  0.9326 -0.4767
   9723SM   C4F13156   5.653   2.171  13.256 -0.7375  0.1935  0.4813
   9723SM   H4F13157   5.719   2.083  13.241  1.4482  1.9448 -0.7967
   9723SM   H4G13158   5.547   2.146  13.276 -0.4932 -0.0130  1.5855
   9723SM   C5F13159   5.701   2.246  13.382  0.3656  0.3362  0.1524
   9723SM   H5F13160   5.639   2.337  13.400  0.1595 -0.1197  1.9553
   9723SM   H5G13161   5.806   2.280  13.369  1.4792 -2.5011  0.9374
   9723SM   C6F13162   5.698   2.153  13.515  0.2365 -0.4433 -0.8691
   9723SM   H6F13163   5.779   2.077  13.511 -0.4554 -1.2095 -0.3942
   9723SM   H6G13164   5.605   2.094  13.511 -1.5976  2.2337 -0.1498
   9723SM   C7F13165   5.686   2.235  13.643 -0.7074 -0.9057  0.5945
   9723SM   H7F13166   5.583   2.275  13.656 -1.1137 -0.7367 -2.5249
   9723SM   H7G13167   5.744   2.330  13.636 -3.1419  0.6656  0.6169
   9723SM   C8F13168   5.729   2.165  13.773 -0.2146  0.1363  0.2402
   9723SM   H8F13169   5.835   2.135  13.761 -0.0471  0.5188  0.7734
   9723SM   H8G13170   5.658   2.084  13.804 -2.8901  1.4989 -1.9133
   9723SM   C9F13171   5.739   2.264  13.893 -0.4486 -0.1398  0.2465
   9723SM   H9F13172   5.632   2.288  13.914 -1.5454 -2.1036 -2.4611
   9723SM   H9G13173   5.796   2.357  13.875 -1.4217  0.8267  1.8385
   9723SM  C10F13174   5.799   2.194  14.018  0.1679 -0.6214 -0.5218
   9723SM  H10F13175   5.909   2.179  14.010  0.2582 -0.6675  0.6010
   9723SM  H10G13176   5.758   2.091  14.023  0.6506 -1.1082 -4.0767
   9723SM  C11F13177   5.757   2.277  14.144  0.1407 -0.7446  0.6661
   9723SM  H11F13178   5.650   2.307  14.144  0.5190  0.9082 -1.8273
   9723SM  H11G13179   5.819   2.369  14.143  1.0962 -1.3486 -1.2928
   9723SM  C12F13180   5.791   2.208  14.268 -0.3020 -0.4178  0.4806
   9723SM  H12F13181   5.901   2.190  14.263  0.3131  2.9660 -1.2785
   9723SM  H12G13182   5.746   2.107  14.267 -0.6900 -0.2470  0.7027
   9723SM  C13F13183   5.763   2.285  14.401  0.0611 -0.9200  0.4750
   9723SM  H13F13184   5.654   2.306  14.401 -0.0366 -1.2916 -1.1774
   9723SM  H13G13185   5.814   2.383  14.389 -0.1979 -0.8830 -0.3210
   9723SM  C14F13186   5.799   2.213  14.532 -0.2319 -0.5794  0.1078
   9723SM  H14F13187   5.901   2.171  14.523  0.6032  1.7969 -4.5462
   9723SM  H14G13188   5.720   2.137  14.552 -0.8651 -1.0233 -3.4210
   9723SM  C15F13189   5.789   2.318  14.647  0.3794  0.0570  0.4350
   9723SM  H15F13190   5.684   2.353  14.634  0.9047  0.4548 -4.6865
   9723SM  H15G13191   5.850   2.406  14.620  2.2903 -0.6595  2.1409
   9723SM  C16F13192   5.830   2.259  14.782 -0.6725 -0.2227  0.2105
   9723SM  H16F13193   5.794   2.155  14.787 -1.3469  0.0245  0.5533
   9723SM  H16G13194   5.778   2.314  14.863  0.0255  1.0033 -0.1450
   9723SM  C17F13195   5.975   2.280  14.823 -0.9773 -0.0506  0.8112
   9723SM  H17F13196   6.017   2.377  14.789 -0.7254 -0.5644 -0.4006
   9723SM  H17G13197   6.031   2.201  14.768  0.3234 -0.7714  3.0618
   9723SM  C18F13198   6.005   2.251  14.968  0.5547  0.0033 -0.6505
   9723SM  H18F13199   6.112   2.221  14.978  1.5806  3.1637 -0.9264
   9723SM  H18G13200   5.940   2.167  15.000  2.6247 -1.7748 -0.8605
   9723SM  C19F13201   5.974   2.365  15.069  0.4383  1.0959  0.5672
   9723SM  H19F13202   5.948   2.304  15.158  0.0913 -0.5879 -0.6280
   9723SM  H19G13203   5.879   2.416  15.047  0.4191  1.3988  1.3192
   9723SM  C20F13204   6.091   2.463  15.079  0.2091 -0.6625  0.1752
   9723SM  H20F13205   6.095   2.517  14.983 -0.0050 -0.8486  0.0603
   9723SM  H20G13206   6.182   2.400  15.071  0.4785 -0.0852 -1.7271
   9723SM  C21F13207   6.100   2.539  15.214  0.1779 -0.4272 -0.0904
   9723SM  H21F13208   6.099   2.460  15.292  0.7229 -2.0099 -1.6134
   9723SM  H21G13209   6.009   2.600  15.233  0.5430 -0.2877  1.2890
   9723SM  C22F13210   6.213   2.636  15.217  0.5226 -0.4799  0.1562
   9723SM  H22F13211   6.207   2.693  15.121 -0.0877 -0.2319  0.3385
   9723SM  H22G13212   6.306   2.575  15.212  0.6661 -0.3341  1.0153
   9723SM  C23F13213   6.218   2.730  15.341  0.4094 -0.2940 -0.0933
   9723SM  H23F13214   6.316   2.780  15.351  0.8539 -0.8591 -1.3182
   9723SM  H23G13215   6.196   2.666  15.429 -0.9290 -0.9103 -0.8322
   9723SM  H23H13216   6.142   2.809  15.323  0.0760 -1.0868 -2.5472
   9823SM     N13217   0.695   3.720  12.504  0.6418 -0.3068 -0.4765
   9823SM   C1513218   0.708   3.796  12.374 -0.3224 -0.1397 -0.3001
   9823SM  H15A13219   0.616   3.813  12.320 -1.2721 -1.4417  0.8331
   9823SM  H15B13220   0.783   3.743  12.317  1.4431  1.7471  0.1231
   9823SM  H15C13221   0.754   3.891  12.398  1.6427 -1.5845  1.9630
   9823SM   C1413222   0.634   3.592  12.468 -0.4732 -0.6422 -0.1581
   9823SM  H14A13223   0.621   3.530  12.555 -1.2443  0.9714  0.9157
   9823SM  H14B13224   0.679   3.538  12.386  1.3282  0.1750  0.2309
   9823SM  H14C13225   0.535   3.613  12.430  1.1452  2.7016 -3.1731
   9823SM   C1313226   0.837   3.711  12.550  0.7149 -0.2758 -0.6571
   9823SM  H13A13227   0.895   3.657  12.477 -1.7838 -0.7171 -2.4499
   9823SM  H13B13228   0.845   3.667  12.648  0.7141 -0.0061 -0.5346
   9823SM  H13C13229   0.881   3.809  12.556  0.0926 -0.0604  0.8884
   9823SM   C1213230   0.621   3.792  12.610 -0.2969 -0.1537 -0.8905
   9823SM  H12A13231   0.667   3.890  12.623 -1.0615  0.4026 -2.1851
   9823SM  H12B13232   0.638   3.746  12.706 -0.3791  2.6889  0.6058
   9823SM   C1113233   0.473   3.828  12.576 -0.4187 -0.0767 -0.2324
   9823SM  H11A13234   0.483   3.900  12.492  2.9105 -0.4275 -0.2874
   9823SM  H11B13235   0.430   3.879  12.665 -1.0534  1.3761 -1.3201
   9823SM     P13236   0.304   3.630  12.633  0.0606  0.1217 -0.1038
   9823SM   O1313237   0.170   3.685  12.640 -0.0770 -0.2188  0.0105
   9823SM   O1413238   0.326   3.483  12.599 -0.4339 -0.3357 -0.3306
   9823SM   O1113239   0.374   3.665  12.773 -0.0085 -0.3797  0.2003
   9823SM   O1213240   0.398   3.713  12.532  0.1157 -0.2669  0.4513
   9823SM   C1S13241   0.478   3.587  12.839 -0.7859 -1.0997  0.3820
   9823SM   H1S13242   0.573   3.591  12.783 -0.3915 -0.9767  1.0468
   9823SM   H1T13243   0.445   3.481  12.840 -1.5338 -0.8971 -0.7946
   9823SM    NF13244   0.630   3.568  13.031  0.3504  0.0410  0.0294
   9823SM   HNF13245   0.628   3.492  13.095  1.5140 -0.0973 -0.0853
   9823SM   C2S13246   0.501   3.625  12.990 -0.0395  1.2274  0.3940
   9823SM   H2S13247   0.516   3.735  12.988  0.4300  1.1582 -0.4758
   9823SM   C3S13248   0.384   3.580  13.078  0.6899  0.5848  0.5607
   9823SM   H3S13249   0.380   3.469  13.068 -1.3984  0.6650 -0.0033
   9823SM    O313250   0.255   3.620  13.028 -0.0397  0.2843 -0.4907
   9823SM   HO313251   0.276   3.659  12.943 -1.7030 -0.4490 -1.2821
   9823SM   C4S13252   0.406   3.619  13.220 -0.0262  0.4608  0.3208
   9823SM   H4S13253   0.495   3.571  13.262  0.7784  1.1046 -0.5999
   9823SM   C5S13254   0.350   3.714  13.289  0.5600  0.1655  0.7031
   9823SM   H5S13255   0.277   3.777  13.237 -0.2532 -0.4560  1.0654
   9823SM   C6S13256   0.377   3.757  13.433  0.5802  0.0902 -0.4297
   9823SM   H6S13257   0.284   3.784  13.487  1.6147 -0.1359  1.5400
   9823SM   H6T13258   0.430   3.853  13.416  0.4680  0.2732  0.2511
   9823SM   C7S13259   0.464   3.665  13.527  0.0824 -0.4013  0.8390
   9823SM   H7S13260   0.554   3.630  13.472  0.0327  0.3355  0.2708
   9823SM   H7T13261   0.405   3.578  13.563  0.7561 -0.3724  2.0715
   9823SM   C8S13262   0.520   3.759  13.638  0.3076 -0.2515  0.1020
   9823SM   H8S13263   0.453   3.848  13.646 -0.2463 -0.5774 -0.8290
   9823SM   H8T13264   0.613   3.810  13.605 -0.3455 -0.3194 -1.9668
   9823SM   C9S13265   0.537   3.688  13.767 -0.1624  0.2067  0.3022
   9823SM   H9S13266   0.605   3.600  13.763 -0.0301  0.3555 -1.3663
   9823SM   H9T13267   0.442   3.644  13.804  0.4650 -1.0583  0.4603
   9823SM  C10S13268   0.589   3.781  13.874 -0.4916  0.0507  0.1192
   9823SM  H10S13269   0.539   3.878  13.852  0.3356 -0.0437 -2.5925
   9823SM  H10T13270   0.699   3.796  13.869 -0.0201 -2.8713 -0.0363
   9823SM  C11S13271   0.560   3.726  14.016 -0.3111 -0.2476  0.0731
   9823SM  H11S13272   0.647   3.661  14.039  0.4428  0.7212  0.0578
   9823SM  H11T13273   0.467   3.665  14.010 -1.1067  0.9387  0.0137
   9823SM  C12S13274   0.531   3.830  14.121 -0.4223 -0.5094 -0.8754
   9823SM  H12S13275   0.422   3.832  14.144 -0.0008 -0.6294  1.3009
   9823SM  H12T13276   0.543   3.932  14.078  0.1600 -0.5924 -0.9175
   9823SM  C13S13277   0.614   3.807  14.252  0.8342 -0.3133  0.6225
   9823SM  H13S13278   0.717   3.838  14.224  0.4804  0.3691  0.0530
   9823SM  H13T13279   0.604   3.699  14.276  1.8729 -0.1376  1.9562
   9823SM  C14S13280   0.554   3.887  14.365 -0.4027 -0.3681  0.2427
   9823SM  H14S13281   0.444   3.874  14.359 -0.2426 -1.2020 -2.1994
   9823SM  H14T13282   0.568   3.994  14.339 -0.8017 -1.0479 -3.3301
   9823SM  C15S13283   0.608   3.841  14.494  0.4644  0.2214 -0.6059
   9823SM  H15S13284   0.717   3.856  14.502  0.3909 -0.0361  1.7900
   9823SM  H15T13285   0.598   3.731  14.505  0.6451  0.1191 -1.4504
   9823SM  C16S13286   0.543   3.913  14.616 -0.1654 -0.2826  0.1570
   9823SM  H16S13287   0.434   3.920  14.595 -0.7531 -0.8415  2.6469
   9823SM  H16T13288   0.576   4.019  14.608  0.5023 -0.3178  1.9122
   9823SM  C17S13289   0.585   3.858  14.753 -0.0043  0.0236  1.2938
   9823SM  H17S13290   0.692   3.879  14.773  0.7046  2.0094 -3.2921
   9823SM  H17T13291   0.577   3.747  14.746 -0.5595  0.1584 -1.7157
   9823SM  C18S13292   0.510   3.919  14.866  0.6297  0.3435 -0.7361
   9823SM  H18S13293   0.534   4.028  14.859 -0.2172  0.6502  0.6844
   9823SM  H18T13294   0.555   3.860  14.948 -1.5172  0.4875  0.6135
   9823SM  H18U13295   0.404   3.889  14.852  0.6825  0.2112 -0.8601
   9823SM   C1F13296   0.746   3.604  12.984 -0.3137 -0.2554  0.5385
   9823SM    OF13297   0.748   3.679  12.887 -0.2115 -0.0517 -0.3977
   9823SM   C2F13298   0.872   3.541  13.041  0.1274  0.3553  0.0926
   9823SM   H2F13299   0.916   3.492  12.951  1.3919 -0.3208  1.0365
   9823SM   H2G13300   0.847   3.462  13.115  2.0374 -0.0220  0.3898
   9823SM   C3F13301   0.964   3.653  13.099  0.0059 -0.3958 -0.5180
   9823SM   H3F13302   0.975   3.731  13.021  0.5347  1.6975  1.5281
   9823SM   H3G13303   1.062   3.614  13.134  0.9193  0.5529 -1.9405
   9823SM   C4F13304   0.905   3.735  13.211  0.7194 -0.2132 -0.1201
   9823SM   H4F13305   0.832   3.806  13.167 -0.6629 -0.8897  0.9755
   9823SM   H4G13306   0.978   3.806  13.256 -0.3430 -0.2102  1.7083
   9823SM   C5F13307   0.842   3.655  13.330  0.4706 -0.6612 -0.3342
   9823SM   H5F13308   0.751   3.598  13.302  0.0602  0.3618 -1.1683
   9823SM   H5G13309   0.804   3.731  13.401  1.7764  0.1569 -0.4730
   9823SM   C6F13310   0.938   3.563  13.403 -0.8136 -0.1331  0.1959
   9823SM   H6F13311   1.015   3.635  13.438  0.8990 -1.8410  0.1070
   9823SM   H6G13312   0.989   3.487  13.339 -2.3784 -2.0441  1.1301
   9823SM   C7F13313   0.878   3.495  13.518  0.3062  0.2390 -0.1933
   9823SM   H7F13314   0.810   3.410  13.494 -0.9382  1.0176  0.4420
   9823SM   H7G13315   0.813   3.573  13.563  1.3178 -0.3958  2.5619
   9823SM   C8F13316   0.975   3.445  13.621  0.0212  0.1296 -0.1393
   9823SM   H8F13317   1.074   3.495  13.625  0.7291 -1.2383  0.1311
   9823SM   H8G13318   0.988   3.345  13.573 -0.1780  0.5864 -1.1740
   9823SM   C9F13319   0.904   3.429  13.755  0.7727 -0.4508 -0.3695
   9823SM   H9F13320   0.817   3.360  13.751 -0.6190  1.0452  1.7805
   9823SM   H9G13321   0.863   3.524  13.795 -0.7910 -1.1906 -0.1256
   9823SM  C10F13322   0.994   3.379  13.869 -0.1912  0.3703  0.1406
   9823SM  H10F13323   1.091   3.432  13.854  0.7273 -1.1588  0.4434
   9823SM  H10G13324   1.010   3.270  13.868  1.5491  0.5886  0.6455
   9823SM  C11F13325   0.953   3.431  14.012 -0.8107 -0.0367  0.8096
   9823SM  H11F13326   0.851   3.395  14.037 -0.8762 -1.2611 -1.0339
   9823SM  H11G13327   0.949   3.542  14.006 -3.7725 -0.0869  0.4146
   9823SM  C12F13328   1.056   3.387  14.120  0.3149  0.6543 -0.8567
   9823SM  H12F13329   1.143   3.454  14.105  1.8273 -0.8114  0.8378
   9823SM  H12G13330   1.079   3.278  14.120 -0.5126  0.4587  0.9316
   9823SM  C13F13331   1.000   3.413  14.260  0.1841  0.7299  0.3033
   9823SM  H13F13332   0.908   3.352  14.273  0.8587 -0.4360 -0.2124
   9823SM  H13G13333   0.971   3.521  14.263 -1.7179  0.2161  2.0159
   9823SM  C14F13334   1.092   3.376  14.381 -0.9333 -0.1208 -0.2283
   9823SM  H14F13335   1.118   3.268  14.379 -0.2649  0.0202 -3.0746
   9823SM  H14G13336   1.041   3.413  14.473 -0.3119  1.8337 -0.6141
   9823SM  C15F13337   1.224   3.455  14.381 -0.2042 -0.5137  0.1550
   9823SM  H15F13338   1.199   3.547  14.323 -0.6704 -0.2532  0.7590
   9823SM  H15G13339   1.309   3.405  14.330  2.3172  2.0740  1.5473
   9823SM  C16F13340   1.277   3.487  14.524 -0.9697  0.4900  0.4454
   9823SM  H16F13341   1.197   3.538  14.582  0.1351  1.5154  1.1017
   9823SM  H16G13342   1.364   3.555  14.522  0.1429 -0.7844  2.6633
   9823SM  C17F13343   1.336   3.369  14.602 -0.0089 -0.0864  0.1238
   9823SM  H17F13344   1.419   3.318  14.549  0.2968  0.3105  0.2231
   9823SM  H17G13345   1.258   3.291  14.620  0.0169 -0.6967 -2.1211
   9823SM  C18F13346   1.384   3.418  14.741 -0.3804  0.3275  0.0549
   9823SM  H18F13347   1.294   3.433  14.805  1.0196  0.2006  2.1593
   9823SM  H18G13348   1.437   3.515  14.735 -0.4533  0.3079 -1.2519
   9823SM  C19F13349   1.478   3.320  14.811 -0.3608  0.3492  0.9497
   9823SM  H19F13350   1.559   3.290  14.740 -1.3631 -0.4399  0.0918
   9823SM  H19G13351   1.411   3.232  14.826 -0.7816  0.1744 -1.5106
   9823SM  C20F13352   1.531   3.378  14.939 -0.1999 -0.6442 -0.2851
   9823SM  H20F13353   1.444   3.412  15.000  0.1597 -0.6871  0.2548
   9823SM  H20G13354   1.594   3.468  14.922 -2.5532  0.8625 -1.8139
   9823SM  C21F13355   1.603   3.275  15.030  0.2233 -0.2178  0.4255
   9823SM  H21F13356   1.684   3.216  14.981 -0.8583 -1.1173 -0.3293
   9823SM  H21G13357   1.522   3.208  15.064 -0.7469  0.4085 -0.5596
   9823SM  C22F13358   1.650   3.343  15.155  0.1414 -0.5798  0.0933
   9823SM  H22F13359   1.574   3.410  15.202 -1.9152 -1.1667 -2.1314
   9823SM  H22G13360   1.721   3.423  15.124 -1.8564  2.1498  2.0623
   9823SM  C23F13361   1.715   3.254  15.261  0.1853 -0.5299 -1.3883
   9823SM  H23F13362   1.767   3.313  15.340  0.3991 -1.5420 -0.7607
   9823SM  H23G13363   1.795   3.194  15.212  1.2362 -1.2055  1.0210
   9823SM  H23H13364   1.635   3.190  15.303  0.4198  0.1077  0.0882
   9923SM     N13365   2.814   2.958  12.091 -0.1730  0.1361  0.5054
   9923SM   C1513366   2.902   2.926  11.982  0.5993  0.9362 -0.4751
   9923SM  H15A13367   2.865   2.843  11.923  0.4544 -0.5337  1.5555
   9923SM  H15B13368   3.005   2.902  12.005  1.1089 -0.2527 -3.5664
   9923SM  H15C13369   2.899   3.012  11.917  0.7337  0.2879 -1.3673
   9923SM   C1413370   2.862   3.087  12.154  0.8985  0.2600 -0.6778
   9923SM  H14A13371   2.812   3.096  12.249 -0.5541 -0.0536 -1.3937
   9923SM  H14B13372   2.846   3.180  12.100 -0.6347  0.4204 -0.0047
   9923SM  H14C13373   2.969   3.082  12.172  0.9107  1.2203 -0.3992
   9923SM   C1313374   2.671   2.979  12.043 -0.0626 -0.3838  0.0106
   9923SM  H13A13375   2.646   2.905  11.969  2.7647 -1.5716  0.0855
   9923SM  H13B13376   2.650   3.069  11.988  2.4336  0.6946  0.6766
   9923SM  H13C13377   2.616   2.978  12.136 -0.5256 -1.9976 -0.2488
   9923SM   C1213378   2.821   2.848  12.187 -0.1554 -0.3962 -0.8434
   9923SM  H12A13379   2.768   2.761  12.149 -2.0393  0.9967 -1.5878
   9923SM  H12B13380   2.768   2.877  12.277  0.0484 -0.4336 -0.7102
   9923SM   C1113381   2.962   2.818  12.243 -0.0595  0.2953 -0.3665
   9923SM  H11A13382   3.028   2.789  12.159 -0.2581 -0.4174 -0.2892
   9923SM  H11B13383   2.962   2.725  12.305 -0.2180  0.0976 -0.6602
   9923SM     P13384   2.988   2.951  12.470 -0.3814 -0.2223 -0.1902
   9923SM   O1313385   3.075   3.059  12.520  0.5180 -0.3211 -0.0115
   9923SM   O1413386   2.842   2.972  12.486 -0.1855 -0.0825  0.2749
   9923SM   O1113387   3.033   2.813  12.529 -0.4393  0.0719  0.5923
   9923SM   O1213388   3.023   2.927  12.317  0.3282  0.4081  0.1618
   9923SM   C1S13389   3.139   2.813  12.624 -0.4614 -0.4890  0.0800
   9923SM   H1S13390   3.136   2.902  12.690 -0.2871  1.0820 -1.9408
   9923SM   H1T13391   3.231   2.828  12.563 -0.1626  2.0137  1.0171
   9923SM    NF13392   3.263   2.699  12.804  0.1193 -0.6589  0.0797
   9923SM   HNF13393   3.345   2.644  12.794  1.1254  0.7294  0.3924
   9923SM   C2S13394   3.149   2.682  12.709 -0.0141  0.4425  0.4019
   9923SM   H2S13395   3.050   2.669  12.758 -0.5920 -0.0290 -0.8416
   9923SM   C3S13396   3.162   2.560  12.619 -0.1725  0.0485 -0.1695
   9923SM   H3S13397   3.254   2.580  12.560  1.6582 -2.1722  1.7159
   9923SM    O313398   3.064   2.548  12.513 -0.0452  0.1151  0.5087
   9923SM   HO313399   3.020   2.634  12.510 -0.3832 -0.0798 -0.2754
   9923SM   C4S13400   3.172   2.434  12.701  0.1614 -0.2093 -0.2548
   9923SM   H4S13401   3.277   2.411  12.725 -0.3159 -0.4565  1.7721
   9923SM   C5S13402   3.081   2.369  12.773  0.0398  0.1262  0.0979
   9923SM   H5S13403   2.981   2.415  12.770  0.7711  1.9224 -4.1217
   9923SM   C6S13404   3.110   2.254  12.864 -0.1810  0.2128  0.6215
   9923SM   H6S13405   3.209   2.214  12.834 -0.7367 -1.0775  0.3936
   9923SM   H6T13406   3.035   2.171  12.855  0.8525 -0.7114  0.3103
   9923SM   C7S13407   3.107   2.310  13.011  0.3098  0.4178 -0.7825
   9923SM   H7S13408   3.002   2.317  13.045  1.1912  0.1831  2.2824
   9923SM   H7T13409   3.156   2.408  13.031  3.1746 -1.1322  0.3700
   9923SM   C8S13410   3.165   2.211  13.114 -0.0512 -0.1928 -0.0214
   9923SM   H8S13411   3.274   2.195  13.104  0.7363  0.7095  4.5776
   9923SM   H8T13412   3.125   2.112  13.083 -3.3562  1.8174 -2.8418
   9923SM   C9S13413   3.129   2.232  13.259 -0.1612 -0.0963 -0.3081
   9923SM   H9S13414   3.019   2.225  13.275  0.1291  0.0489  2.2221
   9923SM   H9T13415   3.155   2.333  13.297 -3.9901  0.0863  2.3799
   9923SM  C10S13416   3.190   2.130  13.357  0.4154 -0.6496  0.2953
   9923SM  H10S13417   3.301   2.130  13.354  0.4035  0.4074 -0.8007
   9923SM  H10T13418   3.150   2.032  13.324 -1.3633 -0.3002  1.2801
   9923SM  C11S13419   3.124   2.141  13.490  0.9688  0.2268 -0.1041
   9923SM  H11S13420   3.017   2.112  13.483  1.6278 -2.5632  0.0479
   9923SM  H11T13421   3.134   2.242  13.535 -0.0911  0.0232  0.6282
   9923SM  C12S13422   3.177   2.034  13.592  0.1609  0.0092 -0.1723
   9923SM  H12S13423   3.282   2.064  13.613  0.4890  0.4616 -2.2311
   9923SM  H12T13424   3.180   1.935  13.542  1.0979 -0.5343  0.9088
   9923SM  C13S13425   3.091   2.017  13.721 -0.1794  0.5790  0.4594
   9923SM  H13S13426   2.990   1.982  13.691  0.6471 -1.9966  0.4088
   9923SM  H13T13427   3.078   2.119  13.761 -1.4647  0.1048  1.2894
   9923SM  C14S13428   3.151   1.923  13.827 -0.4894  0.5005 -0.3803
   9923SM  H14S13429   3.252   1.957  13.858 -1.2136  2.6152 -0.1539
   9923SM  H14T13430   3.155   1.827  13.770 -1.5207 -0.3321  0.8977
   9923SM  C15S13431   3.051   1.910  13.940 -0.4768  0.0852 -0.1405
   9923SM  H15S13432   2.951   1.891  13.896 -0.1223  0.3701 -1.0935
   9923SM  H15T13433   3.040   2.009  13.991 -2.9803 -0.1601 -0.0650
   9923SM  C16S13434   3.091   1.797  14.025 -0.5947  0.2442 -0.6263
   9923SM  H16S13435   3.181   1.815  14.088  0.7325 -1.5646 -1.8859
   9923SM  H16T13436   3.120   1.711  13.961  0.0072  0.0675 -0.1256
   9923SM  C17S13437   2.982   1.751  14.124  0.1411  0.7984  0.3854
   9923SM  H17S13438   2.900   1.692  14.078 -0.6380  0.9489  1.5459
   9923SM  H17T13439   2.939   1.841  14.173 -0.8002 -0.2233  1.4872
   9923SM  C18S13440   3.050   1.660  14.230 -0.4951 -0.0856 -0.0426
   9923SM  H18S13441   2.981   1.639  14.315 -0.6619 -0.7270 -0.3332
   9923SM  H18T13442   3.137   1.719  14.265  0.1351  0.4780 -2.4037
   9923SM  H18U13443   3.087   1.564  14.189  0.6096  0.4213 -0.2748
   9923SM   C1F13444   3.246   2.770  12.916  0.9038  0.4110 -0.3922
   9923SM    OF13445   3.140   2.834  12.927 -0.1018  0.0305 -0.7715
   9923SM   C2F13446   3.357   2.779  13.017  0.7121 -0.4346  1.3637
   9923SM   H2F13447   3.331   2.866  13.080 -0.0593 -0.9057  1.7069
   9923SM   H2G13448   3.456   2.796  12.968  0.3636 -3.0008 -0.4571
   9923SM   C3F13449   3.379   2.657  13.101 -0.0383  0.5419  0.2370
   9923SM   H3F13450   3.419   2.574  13.039 -0.7242 -0.9707  1.7247
   9923SM   H3G13451   3.283   2.623  13.146  0.9595 -1.5216  0.9441
   9923SM   C4F13452   3.461   2.699  13.227 -0.0721  0.0906  0.3614
   9923SM   H4F13453   3.418   2.783  13.284  1.0792 -0.2362  1.7524
   9923SM   H4G13454   3.563   2.731  13.197  0.1428 -0.2017  0.7719
   9923SM   C5F13455   3.479   2.582  13.325 -0.7021 -0.0020  0.0337
   9923SM   H5F13456   3.588   2.592  13.344 -0.5695  0.0851 -0.7107
   9923SM   H5G13457   3.477   2.486  13.270  3.8907 -0.3278  0.0316
   9923SM   C6F13458   3.396   2.585  13.453  0.0684 -0.1351  0.1723
   9923SM   H6F13459   3.292   2.560  13.421  0.1715  0.8852 -1.0631
   9923SM   H6G13460   3.405   2.682  13.506 -0.6321  0.2390 -0.3774
   9923SM   C7F13461   3.433   2.481  13.568 -0.7163  0.3850  0.3612
   9923SM   H7F13462   3.537   2.494  13.603 -1.7335  2.0738  3.0937
   9923SM   H7G13463   3.418   2.377  13.532  0.8947  0.7097 -1.3517
   9923SM   C8F13464   3.329   2.487  13.681 -0.3781  1.4310 -0.4047
   9923SM   H8F13465   3.226   2.465  13.648 -0.5091  3.0150 -1.1706
   9923SM   H8G13466   3.334   2.589  13.726 -0.4331  0.9599  0.6907
   9923SM   C9F13467   3.359   2.375  13.785 -0.1253 -0.1512 -0.3101
   9923SM   H9F13468   3.466   2.374  13.816  0.3261 -2.8685 -1.6122
   9923SM   H9G13469   3.343   2.282  13.726 -0.9640 -1.5246  1.9461
   9923SM  C10F13470   3.263   2.369  13.904 -0.2780  0.4122  0.5302
   9923SM  H10F13471   3.164   2.342  13.862  0.3380 -4.0954  1.4645
   9923SM  H10G13472   3.255   2.459  13.968 -1.2920  0.4126  0.4178
   9923SM  C11F13473   3.281   2.241  13.996 -0.9848 -0.0522  0.6926
   9923SM  H11F13474   3.385   2.251  14.035  0.1638  2.9474 -2.6038
   9923SM  H11G13475   3.288   2.158  13.923  2.4696 -0.0367  0.8338
   9923SM  C12F13476   3.177   2.218  14.107 -0.1206  0.6854  0.2036
   9923SM  H12F13477   3.082   2.193  14.055 -0.3721  1.7133  0.1500
   9923SM  H12G13478   3.167   2.314  14.162 -2.8471  0.0813  0.8800
   9923SM  C13F13479   3.212   2.111  14.205 -1.0830  0.3851  0.3323
   9923SM  H13F13480   3.293   2.156  14.266  0.8341  0.0821 -1.8653
   9923SM  H13G13481   3.252   2.025  14.147 -0.2878  0.8201  0.2202
   9923SM  C14F13482   3.100   2.063  14.293  0.2951  0.7036  0.1189
   9923SM  H14F13483   3.128   1.963  14.334 -1.2625  0.1912 -0.0207
   9923SM  H14G13484   3.010   2.044  14.230  0.8678  0.3803 -0.6217
   9923SM  C15F13485   3.072   2.164  14.405  0.0816 -0.1293 -0.1705
   9923SM  H15F13486   3.021   2.252  14.359 -0.4377 -0.9195 -1.1226
   9923SM  H15G13487   3.168   2.194  14.453  1.1784 -1.1761 -1.6119
   9923SM  C16F13488   2.961   2.106  14.502 -0.3047 -0.0821 -0.0368
   9923SM  H16F13489   2.880   2.074  14.433  0.9100 -0.8803 -1.1261
   9923SM  H16G13490   2.929   2.182  14.576  1.1900 -1.2257  1.9024
   9923SM  C17F13491   3.006   1.986  14.587  0.1700 -0.7742  0.1314
   9923SM  H17F13492   3.102   2.018  14.634 -0.3890 -1.1721  1.6140
   9923SM  H17G13493   3.018   1.901  14.517 -1.5043 -0.2602 -0.8481
   9923SM  C18F13494   2.908   1.943  14.699 -0.2273 -0.1193 -0.0083
   9923SM  H18F13495   2.816   1.918  14.642  0.4666 -0.5892 -0.9524
   9923SM  H18G13496   2.897   2.033  14.764  0.9967  1.1055 -1.4403
   9923SM  C19F13497   2.934   1.821  14.782  0.2786 -0.0867 -0.2688
   9923SM  H19F13498   3.027   1.825  14.842 -0.3864 -1.4095  0.9033
   9923SM  H19G13499   2.933   1.733  14.714 -1.6495  0.8869 -1.6109
   9923SM  C20F13500   2.824   1.790  14.890 -0.3122 -0.1370  0.4671
   9923SM  H20F13501   2.735   1.797  14.824 -0.1681  0.0466  0.2900
   9923SM  H20G13502   2.816   1.878  14.957  1.6203 -0.8245  1.6704
   9923SM  C21F13503   2.823   1.654  14.964 -0.5484 -0.1923 -0.3120
   9923SM  H21F13504   2.919   1.634  15.017 -1.5110  0.0574  1.5739
   9923SM  H21G13505   2.807   1.568  14.895 -0.6825 -0.2232 -0.2410
   9923SM  C22F13506   2.727   1.651  15.088  0.0123  0.1586  0.1305
   9923SM  H22F13507   2.761   1.723  15.166  0.1123  0.9239 -0.6078
   9923SM  H22G13508   2.720   1.550  15.133 -1.8959  0.0685 -0.2706
   9923SM  C23F13509   2.589   1.687  15.049  0.5585 -0.4047 -0.9664
   9923SM  H23F13510   2.572   1.796  15.034 -0.0214 -0.2267  0.7378
   9923SM  H23G13511   2.513   1.661  15.125 -0.0428  1.1924 -0.9697
   9923SM  H23H13512   2.558   1.635  14.957  1.1103 -0.7693 -0.9521
  10023SM     N13513   4.346   3.954  12.139  0.2352  0.1025 -0.3500
  10023SM   C1513514   4.308   4.057  12.040  0.2180  1.0731  0.2241
  10023SM  H15A13515   4.207   4.094  12.029 -0.2780  0.0456  1.0356
  10023SM  H15B13516   4.333   4.016  11.943  0.1301  0.5379  0.4201
  10023SM  H15C13517   4.357   4.150  12.063  0.6051  0.7553  0.7080
  10023SM   C1413518   4.294   3.820  12.089  0.2582  0.1777 -0.8459
  10023SM  H14A13519   4.229   3.772  12.161  0.0988  1.7853  0.1347
  10023SM  H14B13520   4.380   3.760  12.066  0.1242 -0.1539 -0.4892
  10023SM  H14C13521   4.236   3.821  11.998 -1.5675  1.0802  0.2599
  10023SM   C1313522   4.494   3.945  12.155 -0.2002  0.3571 -0.0567
  10023SM  H13A13523   4.535   3.918  12.059  0.0979 -1.0300  0.4411
  10023SM  H13B13524   4.510   3.863  12.223  0.0655  0.0927 -0.4342
  10023SM  H13C13525   4.535   4.036  12.196  0.9334  0.3099 -1.0342
  10023SM   C1213526   4.284   3.989  12.270 -0.0566 -1.0560 -0.2310
  10023SM  H12A13527   4.179   3.964  12.264 -0.6679  1.0985  0.6609
  10023SM  H12B13528   4.285   4.096  12.288 -2.7817 -0.9362 -0.3675
  10023SM   C1113529   4.325   3.916  12.400 -0.7768 -0.4286 -0.5692
  10023SM  H11A13530   4.268   3.959  12.485  0.6958 -0.7529  0.6176
  10023SM  H11B13531   4.430   3.940  12.426 -1.4416  0.0415  1.9581
  10023SM     P13532   4.171   3.713  12.416  0.1834  0.3252 -0.0132
  10023SM   O1313533   4.060   3.779  12.344 -0.0304 -0.0443  0.1392
  10023SM   O1413534   4.195   3.576  12.375  0.5259 -0.0860  0.4898
  10023SM   O1113535   4.162   3.732  12.569  0.0740 -0.0708  0.3175
  10023SM   O1213536   4.311   3.779  12.393 -0.0222 -0.3240 -0.4445
  10023SM   C1S13537   4.217   3.624  12.654  0.4334  0.0945  0.5947
  10023SM   H1S13538   4.328   3.618  12.660  0.4287  0.9747  2.5304
  10023SM   H1T13539   4.182   3.527  12.613 -2.3096  1.1807  0.1735
  10023SM    NF13540   4.241   3.527  12.871 -0.2006  0.3475  0.2135
  10023SM   HNF13541   4.193   3.440  12.864 -0.0286  0.2345  0.4469
  10023SM   C2S13542   4.176   3.640  12.802 -0.3601  0.1454  0.0105
  10023SM   H2S13543   4.213   3.740  12.835 -2.2836 -0.1413  3.5676
  10023SM   C3S13544   4.026   3.644  12.822 -0.1016 -0.0750  0.4918
  10023SM   H3S13545   3.995   3.541  12.794  0.9231 -0.3902  0.4708
  10023SM    O313546   3.953   3.730  12.723 -0.0762 -0.0810  0.1608
  10023SM   HO313547   4.025   3.736  12.660  2.0967  1.0389  2.5467
  10023SM   C4S13548   3.987   3.667  12.963 -0.5285  0.3704 -0.3057
  10023SM   H4S13549   3.962   3.573  13.015  0.9535  0.3997  0.4924
  10023SM   C5S13550   3.986   3.782  13.036  0.0030  1.0935  0.0563
  10023SM   H5S13551   4.027   3.876  12.997 -1.2810  2.7876  2.4708
  10023SM   C6S13552   3.947   3.777  13.179  0.2913  0.7921 -0.1683
  10023SM   H6S13553   3.853   3.830  13.206  0.2628 -0.5607  2.9236
  10023SM   H6T13554   4.026   3.816  13.246 -1.0099  0.6296  1.5340
  10023SM   C7S13555   3.926   3.639  13.244 -0.3058  0.1211  0.6602
  10023SM   H7S13556   4.022   3.585  13.227  0.6245  2.1786 -1.1464
  10023SM   H7T13557   3.847   3.594  13.180 -0.0117  2.9554 -1.9741
  10023SM   C8S13558   3.891   3.646  13.387 -0.1546 -0.1503 -0.1477
  10023SM   H8S13559   3.798   3.702  13.410 -0.5761 -1.3768  1.3191
  10023SM   H8T13560   3.973   3.706  13.431  0.2793 -1.1128  0.3905
  10023SM   C9S13561   3.892   3.507  13.449 -1.0812  0.9367 -0.2189
  10023SM   H9S13562   3.988   3.456  13.424 -0.9679 -0.1104  2.0461
  10023SM   H9T13563   3.809   3.451  13.402 -0.3501  0.9028 -1.5232
  10023SM  C10S13564   3.879   3.517  13.601  0.2342  0.5575  0.1666
  10023SM  H10S13565   3.793   3.587  13.608 -1.4698 -1.1921 -1.7989
  10023SM  H10T13566   3.964   3.576  13.640 -0.9284  2.3448  0.1390
  10023SM  C11S13567   3.844   3.388  13.673 -0.3390  0.2633 -0.1478
  10023SM  H11S13568   3.932   3.320  13.662 -0.7676 -0.1773 -0.9619
  10023SM  H11T13569   3.766   3.329  13.620  2.1706 -1.6900 -1.9597
  10023SM  C12S13570   3.819   3.394  13.827  0.0152  0.3812  0.5586
  10023SM  H12S13571   3.743   3.473  13.850  2.0750  1.9519  2.4400
  10023SM  H12T13572   3.918   3.424  13.866  1.8822 -0.7991 -2.8618
  10023SM  C13S13573   3.771   3.268  13.887  0.4171 -0.0547  0.3532
  10023SM  H13S13574   3.833   3.180  13.861 -1.2070 -1.5767  1.3627
  10023SM  H13T13575   3.679   3.238  13.832 -0.0984 -0.6157  1.4930
  10023SM  C14S13576   3.746   3.267  14.037 -0.0965 -0.7056 -0.6129
  10023SM  H14S13577   3.676   3.349  14.061 -0.8341 -1.3784 -0.4211
  10023SM  H14T13578   3.848   3.293  14.072 -0.9028 -1.3914  2.5594
  10023SM  C15S13579   3.699   3.136  14.103 -0.2683 -1.1860  0.3382
  10023SM  H15S13580   3.739   3.041  14.063 -0.2374 -0.5331 -1.2806
  10023SM  H15T13581   3.588   3.132  14.100 -0.3508 -0.1206  1.2358
  10023SM  C16S13582   3.735   3.145  14.256 -0.3480 -0.2441  0.5741
  10023SM  H16S13583   3.653   3.203  14.303  2.0489  1.7103  2.6740
  10023SM  H16T13584   3.839   3.184  14.267 -1.6458  4.1314 -0.5939
  10023SM  C17S13585   3.725   3.007  14.327 -0.5277  0.3147  0.3063
  10023SM  H17S13586   3.798   2.936  14.282  0.0188  0.9138  0.2408
  10023SM  H17T13587   3.630   2.976  14.278 -0.2242  2.2272 -1.6415
  10023SM  C18S13588   3.732   3.008  14.475  0.6771 -0.1888 -0.4774
  10023SM  H18S13589   3.821   3.063  14.512  0.1830 -0.1106  0.6156
  10023SM  H18T13590   3.727   2.905  14.518  1.1996 -0.1430 -0.2985
  10023SM  H18U13591   3.638   3.061  14.504  0.4798  0.6952 -2.5640
  10023SM   C1F13592   4.371   3.534  12.905 -0.1046  0.2083  0.6619
  10023SM    OF13593   4.451   3.623  12.865 -0.4471  0.1836 -0.2482
  10023SM   C2F13594   4.420   3.416  12.984 -0.5490  0.8153 -0.3772
  10023SM   H2F13595   4.524   3.446  13.011 -0.0699  0.0018 -1.2602
  10023SM   H2G13596   4.422   3.329  12.914  2.3673  0.1360  0.4111
  10023SM   C3F13597   4.350   3.373  13.114  0.4734 -0.6463 -0.0592
  10023SM   H3F13598   4.417   3.294  13.154  1.2731  0.4808  0.8706
  10023SM   H3G13599   4.248   3.333  13.095  0.9590 -1.1046 -1.9487
  10023SM   C4F13600   4.353   3.472  13.227  0.8374 -0.0846 -0.3681
  10023SM   H4F13601   4.316   3.572  13.195  1.2259  0.4708  0.8677
  10023SM   H4G13602   4.459   3.495  13.250  0.6120  0.4849  0.1051
  10023SM   C5F13603   4.288   3.417  13.356  0.6846 -0.3088 -0.9968
  10023SM   H5F13604   4.325   3.313  13.371 -2.0042 -1.5283 -2.0787
  10023SM   H5G13605   4.180   3.404  13.334  0.3585  2.8506 -1.6544
  10023SM   C6F13606   4.322   3.493  13.481  0.2437 -0.5259 -0.4323
  10023SM   H6F13607   4.255   3.581  13.478  0.4741 -0.3386 -0.2080
  10023SM   H6G13608   4.427   3.529  13.490  0.1014 -0.5868  2.5676
  10023SM   C7F13609   4.296   3.416  13.609  0.0536  0.3046 -0.1168
  10023SM   H7F13610   4.334   3.312  13.601  0.9772  0.6070  0.2095
  10023SM   H7G13611   4.185   3.403  13.613  0.2539 -1.5293  0.3793
  10023SM   C8F13612   4.339   3.489  13.739 -1.0292 -0.3063  0.8685
  10023SM   H8F13613   4.278   3.582  13.739 -0.5953  0.0222 -0.9898
  10023SM   H8G13614   4.447   3.511  13.725 -1.3146  0.2051 -0.6743
  10023SM   C9F13615   4.293   3.411  13.861 -0.1922 -0.2726 -0.5152
  10023SM   H9F13616   4.343   3.312  13.851  0.0221 -0.3222  0.8700
  10023SM   H9G13617   4.182   3.399  13.863 -0.2970  0.7060 -0.0407
  10023SM  C10F13618   4.330   3.486  13.987  0.7949 -0.0884  0.0528
  10023SM  H10F13619   4.252   3.562  14.010  1.5412  0.4558  0.8406
  10023SM  H10G13620   4.425   3.542  13.979  0.5310  0.2687 -0.7482
  10023SM  C11F13621   4.341   3.400  14.116 -0.5010 -0.7827 -0.1109
  10023SM  H11F13622   4.424   3.330  14.094  0.5904  0.9285 -1.8346
  10023SM  H11G13623   4.248   3.340  14.127 -1.5027  0.3955 -1.6077
  10023SM  C12F13624   4.336   3.500  14.235 -0.0844  0.5250  0.4199
  10023SM  H12F13625   4.246   3.565  14.232  0.5689  1.4275 -0.0569
  10023SM  H12G13626   4.422   3.569  14.220 -0.3793  0.5993 -1.0393
  10023SM  C13F13627   4.353   3.436  14.373  0.1480 -0.0176  0.0133
  10023SM  H13F13628   4.392   3.518  14.437 -2.5832 -0.5284  2.5716
  10023SM  H13G13629   4.438   3.365  14.365  0.4367  0.2282  0.8155
  10023SM  C14F13630   4.220   3.374  14.421  0.7753  0.0498  0.2768
  10023SM  H14F13631   4.202   3.289  14.351  1.5689  1.1333 -1.3268
  10023SM  H14G13632   4.137   3.444  14.399  1.7015  0.7129 -1.2819
  10023SM  C15F13633   4.227   3.331  14.565 -0.0333 -0.5452 -0.3248
  10023SM  H15F13634   4.304   3.254  14.585 -1.5484 -1.7465  1.2609
  10023SM  H15G13635   4.131   3.282  14.591 -0.6303  1.0321  0.6469
  10023SM  C16F13636   4.241   3.439  14.670  0.3555 -0.3727  1.0830
  10023SM  H16F13637   4.149   3.500  14.656 -0.2330 -1.0196  2.0691
  10023SM  H16G13638   4.333   3.499  14.652  0.9982 -1.8774 -1.0051
  10023SM  C17F13639   4.248   3.386  14.812  0.4924  0.4583 -0.1048
  10023SM  H17F13640   4.337   3.323  14.830  1.4234  1.4859 -0.9842
  10023SM  H17G13641   4.163   3.316  14.829  2.1911 -1.5578  0.5377
  10023SM  C18F13642   4.236   3.490  14.925 -0.3155  0.8616 -0.4227
  10023SM  H18F13643   4.287   3.584  14.893  1.3987 -0.9008 -3.3393
  10023SM  H18G13644   4.283   3.456  15.020  0.5942  1.8073 -0.5053
  10023SM  C19F13645   4.096   3.529  14.961  0.1874  0.2896  0.2089
  10023SM  H19F13646   4.027   3.442  14.965 -0.2761  0.5367 -1.5356
  10023SM  H19G13647   4.059   3.601  14.884  0.8658 -0.2247 -0.6114
  10023SM  C20F13648   4.087   3.605  15.092  0.0278  0.3098  0.1086
  10023SM  H20F13649   4.143   3.701  15.086 -1.7386  1.3348 -0.4911
  10023SM  H20G13650   4.116   3.531  15.170 -2.7930 -0.8583  0.1699
  10023SM  C21F13651   3.937   3.642  15.135 -0.1553 -0.3887 -0.7154
  10023SM  H21F13652   3.884   3.546  15.156 -1.1174  0.0417 -1.1294
  10023SM  H21G13653   3.895   3.692  15.045  2.1264  3.0574 -0.0407
  10023SM  C22F13654   3.940   3.737  15.255  0.4216 -0.1491  0.0506
  10023SM  H22F13655   3.842   3.781  15.281  0.7699  0.3891  0.4706
  10023SM  H22G13656   4.010   3.813  15.215 -0.6252 -0.5710 -2.9118
  10023SM  C23F13657   4.007   3.688  15.384 -0.4362 -0.0154  0.3279
  10023SM  H23F13658   4.115   3.683  15.360 -0.5158 -0.7443  0.0981
  10023SM  H23G13659   3.953   3.599  15.422 -0.3899 -0.9991 -1.7932
  10023SM  H23H13660   3.995   3.765  15.464 -3.7113  0.0230 -0.0680
  101CHL1    C313661   6.635   5.549  17.094  0.5332  0.3395 -0.5957
  101CHL1    H313662   6.544   5.485  17.084  1.1663 -0.4797 -1.3043
  101CHL1    O313663   6.648   5.578  17.234  0.4898 -0.9153  0.2959
  101CHL1   H3'13664   6.742   5.599  17.244  0.3663  0.1754 -0.5775
  101CHL1    C413665   6.757   5.462  17.051  0.3682  0.3406 -0.4897
  101CHL1   H4A13666   6.852   5.516  17.069  1.1919 -0.3338 -2.4328
  101CHL1   H4B13667   6.752   5.365  17.106 -1.9828 -0.2874 -1.6739
  101CHL1    C513668   6.771   5.443  16.896  0.0189  0.8206  0.1531
  101CHL1    C613669   6.784   5.317  16.847  0.3286 -0.5353 -0.1393
  101CHL1    H613670   6.776   5.236  16.921 -1.4114  0.2670  0.6043
  101CHL1    C713671   6.773   5.277  16.702  0.0151  0.2265  0.4027
  101CHL1   H7A13672   6.850   5.204  16.668  0.5842  1.7124 -1.7700
  101CHL1   H7B13673   6.674   5.234  16.678  0.4778  0.3859 -2.0732
  101CHL1    C813674   6.783   5.410  16.613 -0.4671 -0.6285 -0.0667
  101CHL1    H813675   6.888   5.440  16.595 -0.4561 -0.9158 -0.4776
  101CHL1   C1413676   6.716   5.382  16.474 -0.4474 -0.6830  0.4654
  101CHL1   H1413677   6.606   5.379  16.485 -0.6485  1.4568 -0.3381
  101CHL1   C1513678   6.760   5.258  16.404  0.2189 -0.3409 -0.2117
  101CHL1  H15A13679   6.868   5.234  16.410  0.2819 -0.2980 -1.0972
  101CHL1  H15B13680   6.705   5.166  16.435 -1.0714 -0.5905 -2.9512
  101CHL1   C1613681   6.724   5.278  16.262  0.3849 -0.9557  0.0157
  101CHL1  H16A13682   6.804   5.268  16.185 -0.8920 -0.8705 -1.3571
  101CHL1  H16B13683   6.640   5.213  16.231  1.5263 -1.6558 -1.8344
  101CHL1   C1713684   6.672   5.429  16.251  0.0338  0.0818  0.1910
  101CHL1   H1713685   6.561   5.434  16.253  0.0258  0.6716 -0.7074
  101CHL1   C1313686   6.732   5.497  16.373  0.6612 -0.0205  0.3251
  101CHL1   C1813687   6.883   5.527  16.349 -0.1801  0.2135 -0.8395
  101CHL1  H18A13688   6.897   5.604  16.271 -1.9910  0.8628 -0.5802
  101CHL1  H18B13689   6.926   5.555  16.448  1.1216  0.6854 -1.5223
  101CHL1  H18C13690   6.928   5.430  16.318 -0.3831 -0.1593 -0.0146
  101CHL1   C1213691   6.656   5.614  16.433 -0.8306 -0.2693  0.2501
  101CHL1  H12A13692   6.674   5.708  16.375  0.2064 -1.2954 -1.1771
  101CHL1  H12B13693   6.549   5.601  16.457 -0.8400 -0.0305  0.3427
  101CHL1   C1113694   6.710   5.648  16.573  0.1076  0.2155  0.5093
  101CHL1  H11A13695   6.813   5.687  16.559 -0.0504 -0.4100 -4.4244
  101CHL1  H11B13696   6.640   5.725  16.611  1.1109  2.1073 -1.3160
  101CHL1    C913697   6.709   5.528  16.668  0.4955  0.4995 -0.1305
  101CHL1    H913698   6.602   5.497  16.675  0.6626 -0.0463 -0.0178
  101CHL1   C1013699   6.757   5.567  16.811 -0.0630  0.2194  0.1539
  101CHL1   C1913700   6.892   5.654  16.810  0.3741 -0.0629  0.0133
  101CHL1  H19A13701   6.962   5.598  16.744  0.3702  0.2927 -0.2974
  101CHL1  H19B13702   6.857   5.747  16.759 -0.4946 -0.7099 -0.5841
  101CHL1  H19C13703   6.926   5.684  16.912 -0.6180  0.6987  0.1412
  101CHL1    C113704   6.639   5.648  16.866  0.1670  0.0466 -1.2578
  101CHL1   H1A13705   6.627   5.746  16.815 -2.2400 -0.0356 -0.9292
  101CHL1   H1B13706   6.543   5.598  16.841 -0.6902  0.8978  0.2050
  101CHL1    C213707   6.640   5.676  17.017 -0.0625 -0.3097  0.2943
  101CHL1   H2A13708   6.548   5.725  17.055 -0.7041 -2.5213  1.8383
  101CHL1   H2B13709   6.724   5.744  17.042 -1.0581  0.5641  1.4234
  101CHL1   C2013710   6.705   5.492  16.114  0.4475  0.9893 -0.5193
  101CHL1   H2013711   6.814   5.486  16.094  0.4183 -3.3621 -0.3262
  101CHL1   C2113712   6.659   5.636  16.106 -0.1961 -0.0175  0.0359
  101CHL1  H21A13713   6.730   5.709  16.150 -0.1775  0.6147 -1.0010
  101CHL1  H21B13714   6.564   5.646  16.161  0.8126  0.3609  1.7800
  101CHL1  H21C13715   6.632   5.660  16.001  1.4766  2.3340  0.0670
  101CHL1   C2213716   6.652   5.410  15.998 -0.5841  0.4394 -0.3117
  101CHL1  H22A13717   6.680   5.303  16.008  3.0366  1.3696  0.9431
  101CHL1  H22B13718   6.542   5.400  15.992 -0.4776 -0.4447 -0.9199
  101CHL1   C2313719   6.712   5.442  15.860  0.5383 -0.0868  0.4425
  101CHL1  H23A13720   6.682   5.546  15.836 -2.0642 -1.2027 -1.6861
  101CHL1  H23B13721   6.822   5.435  15.859  0.8297  3.2467 -0.0236
  101CHL1   C2413722   6.652   5.356  15.749  0.9128  0.1052 -0.2689
  101CHL1  H24A13723   6.663   5.248  15.772 -0.3816  0.3885  1.9641
  101CHL1  H24B13724   6.546   5.387  15.743  0.7593 -0.3717 -0.0141
  101CHL1   C2513725   6.720   5.391  15.611 -0.5147  0.0034  0.0332
  101CHL1   H2513726   6.829   5.402  15.626 -0.2865  1.3275 -2.1701
  101CHL1   C2613727   6.693   5.285  15.506  0.1265 -0.2034 -0.5846
  101CHL1  H26A13728   6.586   5.294  15.480 -0.4600 -1.7473  1.0572
  101CHL1  H26B13729   6.754   5.300  15.414  0.2949  0.1403 -0.4188
  101CHL1  H26C13730   6.709   5.181  15.543  2.9476  0.0848 -0.7748
  101CHL1   C2713731   6.672   5.524  15.558  0.2919  0.5261  0.2601
  101CHL1  H27A13732   6.701   5.600  15.634 -1.1471  1.1275  0.2486
  101CHL1  H27B13733   6.742   5.549  15.476  0.7312 -1.3357  0.0168
  101CHL1  H27C13734   6.564   5.523  15.530  0.4199  2.3796 -0.4564
  102CHL1    C313735   5.493   5.872  16.939 -0.9244  0.3217  0.3274
  102CHL1    H313736   5.603   5.885  16.930 -0.6748 -0.7764  1.5477
  102CHL1    O313737   5.456   5.872  17.077 -0.2641 -0.5771  0.4239
  102CHL1   H3'13738   5.469   5.962  17.106 -1.2246 -0.9384  2.1248
  102CHL1    C413739   5.409   5.974  16.864 -0.1620 -0.0142  0.0088
  102CHL1   H4A13740   5.304   5.969  16.899 -0.2148 -0.1853 -0.1709
  102CHL1   H4B13741   5.442   6.078  16.884 -0.0481 -0.0049 -0.2272
  102CHL1    C513742   5.423   5.959  16.715  0.7702  0.4532  0.2633
  102CHL1    C613743   5.469   6.059  16.633  0.1327 -0.0634 -0.7954
  102CHL1    H613744   5.517   6.139  16.692  0.3308 -0.9986  0.3676
  102CHL1    C713745   5.468   6.060  16.483  0.3858  0.2138  0.3689
  102CHL1   H7A13746   5.430   6.155  16.441  0.0032  0.3537  1.0090
  102CHL1   H7B13747   5.570   6.044  16.441  0.2891  1.4548 -0.3975
  102CHL1    C813748   5.376   5.944  16.428 -0.1262  0.2627  0.6411
  102CHL1    H813749   5.269   5.969  16.445 -0.8882 -1.4258 -1.2241
  102CHL1   C1413750   5.397   5.921  16.273 -0.1987 -0.1849 -0.7421
  102CHL1   H1413751   5.504   5.896  16.262 -0.3187 -0.8736 -0.4238
  102CHL1   C1513752   5.371   6.034  16.174  0.4203 -0.4229  0.3036
  102CHL1  H15A13753   5.275   6.085  16.198 -0.1958 -1.4837  0.1284
  102CHL1  H15B13754   5.460   6.101  16.177 -0.1760  0.4126 -0.1892
  102CHL1   C1613755   5.357   5.964  16.034  0.3986 -0.4707  0.3155
  102CHL1  H16A13756   5.261   5.999  15.991 -0.3100 -1.5365  1.0078
  102CHL1  H16B13757   5.446   5.984  15.970 -1.6274  2.0024 -1.9067
  102CHL1   C1713758   5.361   5.818  16.071  0.0888  0.3327  0.4517
  102CHL1   H1713759   5.468   5.787  16.070  1.1914  3.7038 -1.6752
  102CHL1   C1313760   5.316   5.803  16.222 -0.8202  0.2518 -0.7679
  102CHL1   C1813761   5.164   5.823  16.232  0.3788  0.2977 -0.6891
  102CHL1  H18A13762   5.137   5.849  16.336  0.1244  2.9527 -1.3310
  102CHL1  H18B13763   5.129   5.919  16.188  0.1194  1.3568  1.6676
  102CHL1  H18C13764   5.105   5.739  16.189  0.5922 -0.0043 -0.3877
  102CHL1   C1213765   5.357   5.671  16.304 -0.0495  0.6154 -0.6463
  102CHL1  H12A13766   5.307   5.580  16.265 -2.1208  1.9255 -1.2214
  102CHL1  H12B13767   5.463   5.652  16.276  0.6021  0.1042  1.9221
  102CHL1   C1113768   5.335   5.689  16.453  0.0882  0.3371 -0.1705
  102CHL1  H11A13769   5.225   5.698  16.468 -0.2044 -3.5467  1.1012
  102CHL1  H11B13770   5.377   5.607  16.516 -1.8132  0.5540  1.4810
  102CHL1    C913771   5.411   5.817  16.510  0.8543  0.5330  0.3268
  102CHL1    H913772   5.518   5.797  16.490  0.2156 -2.9108 -0.3265
  102CHL1   C1013773   5.378   5.825  16.659 -0.1796  0.6143 -0.2742
  102CHL1   C1913774   5.231   5.803  16.694  0.0404  0.4106  0.5634
  102CHL1  H19A13775   5.188   5.843  16.789 -1.6931 -1.3221  0.5671
  102CHL1  H19B13776   5.171   5.860  16.620  0.7181  0.2377 -0.1304
  102CHL1  H19C13777   5.198   5.698  16.680 -1.5148  1.0316 -0.7001
  102CHL1    C113778   5.466   5.717  16.732  0.3822 -0.7300 -0.3192
  102CHL1   H1A13779   5.436   5.614  16.702 -0.7249 -0.0728 -1.5603
  102CHL1   H1B13780   5.568   5.732  16.690  0.2245 -0.8021 -0.7377
  102CHL1    C213781   5.459   5.730  16.886 -0.3768 -0.1853  0.5060
  102CHL1   H2A13782   5.523   5.649  16.926  0.5288  0.6199  0.7215
  102CHL1   H2B13783   5.355   5.710  16.917 -0.8753 -1.2923 -1.6627
  102CHL1   C2013784   5.291   5.724  15.968 -0.4860 -0.6637  0.8720
  102CHL1   H2013785   5.182   5.744  15.961 -0.8373 -2.6492 -5.0314
  102CHL1   C2113786   5.304   5.575  16.000  0.6446 -0.0523 -0.3545
  102CHL1  H21A13787   5.406   5.547  16.032  1.3014  2.0701 -0.4492
  102CHL1  H21B13788   5.298   5.507  15.912  0.2350  0.1498 -0.4864
  102CHL1  H21C13789   5.233   5.547  16.081 -0.3155  1.2045 -0.7294
  102CHL1   C2213790   5.341   5.752  15.818  0.1010 -0.2619 -0.3714
  102CHL1  H22A13791   5.298   5.850  15.792 -0.4738 -1.1477 -3.0375
  102CHL1  H22B13792   5.452   5.753  15.810  0.0714 -0.6421 -0.8844
  102CHL1   C2313793   5.282   5.664  15.707  0.2515 -0.4620  0.0700
  102CHL1  H23A13794   5.322   5.561  15.717  2.6001  0.5285  1.7840
  102CHL1  H23B13795   5.171   5.660  15.696  0.1975  1.4113 -0.3252
  102CHL1   C2413796   5.330   5.720  15.567 -0.0210  0.4333 -0.9021
  102CHL1  H24A13797   5.306   5.828  15.557  0.7258  0.4993 -2.2556
  102CHL1  H24B13798   5.441   5.711  15.567 -0.0488 -0.3798  1.0966
  102CHL1   C2513799   5.286   5.657  15.439  0.1050  0.1871  0.4360
  102CHL1   H2513800   5.317   5.551  15.450  0.6118 -0.2422 -3.6919
  102CHL1   C2613801   5.136   5.662  15.418 -0.4629  0.0464  0.7138
  102CHL1  H26A13802   5.085   5.614  15.504  0.7493 -0.3478  1.2320
  102CHL1  H26B13803   5.099   5.766  15.405  1.9265  1.0185  1.2578
  102CHL1  H26C13804   5.106   5.626  15.317 -2.7812  2.3039  0.4931
  102CHL1   C2713805   5.353   5.711  15.310  0.4261  0.3222 -0.0249
  102CHL1  H27A13806   5.331   5.656  15.216  2.5370 -1.5618  0.4777
  102CHL1  H27B13807   5.322   5.817  15.294 -0.4513 -0.1284 -1.5670
  102CHL1  H27C13808   5.461   5.726  15.329  0.1498  3.5168 -0.4562
  103CHL1    C313809   6.116   4.849  17.443 -0.2002  0.4060  0.5650
  103CHL1    H313810   6.162   4.754  17.408 -0.8234  0.6836 -1.0812
  103CHL1    O313811   6.137   4.862  17.582 -0.0248  1.5046  0.4742
  103CHL1   H3'13812   6.090   4.942  17.606 -2.4854 -0.1255  1.5362
  103CHL1    C413813   6.177   4.969  17.370  0.1226  0.5178 -0.0005
  103CHL1   H4A13814   6.133   5.063  17.410  0.0624  0.9972 -1.1557
  103CHL1   H4B13815   6.282   4.978  17.404 -0.3307  1.9237  1.1260
  103CHL1    C513816   6.160   4.959  17.224  0.2356  0.0810 -0.7252
  103CHL1    C613817   6.266   4.958  17.147  0.1464  0.5368  0.1011
  103CHL1    H613818   6.362   4.973  17.199 -2.2953  2.9524  4.5424
  103CHL1    C713819   6.258   4.933  16.998  0.9742 -0.8310 -0.0878
  103CHL1   H7A13820   6.335   4.993  16.945  0.0388  2.8449  2.3420
  103CHL1   H7B13821   6.276   4.826  16.972 -0.3836 -0.5117 -2.6836
  103CHL1    C813822   6.116   4.969  16.944 -0.1061  0.0115  0.6576
  103CHL1    H813823   6.117   5.080  16.949  0.9384  0.1745 -1.7475
  103CHL1   C1413824   6.095   4.916  16.799  0.4298  0.7428  0.0701
  103CHL1   H1413825   6.085   4.806  16.809 -2.0509  1.1300  3.4756
  103CHL1   C1513826   6.212   4.940  16.699 -0.2584 -0.1932 -0.1232
  103CHL1  H15A13827   6.248   5.044  16.717 -0.3529 -0.4914  1.9073
  103CHL1  H15B13828   6.293   4.867  16.720  1.4055  1.4023 -0.6643
  103CHL1   C1613829   6.143   4.913  16.560 -0.8063 -0.1032 -0.6026
  103CHL1  H16A13830   6.171   5.003  16.500  0.2175 -0.3314 -0.4822
  103CHL1  H16B13831   6.187   4.824  16.510  0.5361  0.1964  0.0121
  103CHL1   C1713832   5.985   4.909  16.584 -0.2633  1.2672 -0.3415
  103CHL1   H1713833   5.959   4.801  16.588 -1.2296  1.5207  1.4105
  103CHL1   C1313834   5.964   4.961  16.729 -0.0679 -1.0719 -0.1772
  103CHL1   C1813835   5.964   5.124  16.728  0.1676  0.6197 -0.0241
  103CHL1  H18A13836   6.041   5.162  16.657  0.8876  0.5448  0.7009
  103CHL1  H18B13837   5.863   5.157  16.695  0.4740  0.9117 -0.6874
  103CHL1  H18C13838   5.987   5.162  16.829  1.5015  1.4920 -0.6264
  103CHL1   C1213839   5.846   4.910  16.810 -0.8315  0.3906  0.1460
  103CHL1  H12A13840   5.748   4.955  16.784 -2.3152 -2.1216  1.1061
  103CHL1  H12B13841   5.839   4.801  16.788 -0.6944  0.2889  0.6101
  103CHL1   C1113842   5.856   4.946  16.964  0.3789  0.4972 -0.5237
  103CHL1  H11A13843   5.839   5.054  16.985  0.2896  0.1403  1.4191
  103CHL1  H11B13844   5.776   4.886  17.011 -1.5710  1.8946 -1.8893
  103CHL1    C913845   5.996   4.911  17.029 -0.3102  0.4452  0.0270
  103CHL1    H913846   6.011   4.803  17.010  0.8533  0.8717 -1.8417
  103CHL1   C1013847   6.014   4.944  17.174  0.9856 -0.3163 -0.4355
  103CHL1   C1913848   5.945   5.078  17.213 -0.2275  0.9268  1.0055
  103CHL1  H19A13849   5.983   5.117  17.309  0.4860  1.4432  0.5253
  103CHL1  H19B13850   5.965   5.162  17.143 -1.4798  0.6482  0.2687
  103CHL1  H19C13851   5.836   5.059  17.228 -0.4257  1.1387 -0.0491
  103CHL1    C113852   5.940   4.831  17.254  0.7702 -0.9434 -1.4862
  103CHL1   H1A13853   5.833   4.822  17.225 -0.5543  1.3447  2.0258
  103CHL1   H1B13854   5.991   4.741  17.214 -0.6753 -2.9440  0.9151
  103CHL1    C213855   5.964   4.835  17.414  0.7002  0.0694  0.3476
  103CHL1   H2A13856   5.916   4.745  17.457 -1.3731  1.6123  1.4739
  103CHL1   H2B13857   5.916   4.933  17.440  2.4345  1.2798 -0.8046
  103CHL1   C2013858   5.901   4.966  16.469  0.3085  1.2818  0.4432
  103CHL1   H2013859   5.890   5.076  16.483  0.1838  1.2560  0.5442
  103CHL1   C2113860   5.750   4.904  16.469 -0.2696 -0.1576 -0.0084
  103CHL1  H21A13861   5.708   4.913  16.571 -0.3039 -1.8712  0.1663
  103CHL1  H21B13862   5.753   4.799  16.430 -1.2791 -0.1628 -0.1064
  103CHL1  H21C13863   5.686   4.967  16.403  0.8043 -1.5428 -2.5366
  103CHL1   C2213864   5.955   4.941  16.329  0.2583  0.1763  0.3548
  103CHL1  H22A13865   6.060   4.976  16.329  0.1705  0.4755 -0.6351
  103CHL1  H22B13866   5.964   4.831  16.320  2.2584  0.1301  2.2092
  103CHL1   C2313867   5.880   4.999  16.196 -0.2336 -0.4118 -0.5402
  103CHL1  H23A13868   5.795   4.932  16.169  0.2614 -1.0932 -0.4493
  103CHL1  H23B13869   5.862   5.108  16.206  1.2234 -0.2535  0.8060
  103CHL1   C2413870   5.985   4.988  16.082  0.1326  0.0461  0.6385
  103CHL1  H24A13871   6.054   5.070  16.112  0.0197 -0.0587  1.2023
  103CHL1  H24B13872   6.054   4.902  16.094 -0.6872 -0.6784  0.2784
  103CHL1   C2513873   5.935   4.996  15.941 -0.2844  0.1034  0.5563
  103CHL1   H2513874   5.863   4.913  15.921 -4.0719  3.6541 -2.3285
  103CHL1   C2613875   5.857   5.130  15.919  0.1880  0.2419 -0.5122
  103CHL1  H26A13876   5.755   5.123  15.962  0.7576 -0.8456  0.7077
  103CHL1  H26B13877   5.909   5.219  15.960  0.8495 -0.5656  0.4698
  103CHL1  H26C13878   5.848   5.143  15.809 -0.3804  0.7368 -0.4146
  103CHL1   C2713879   6.054   4.981  15.844 -0.0545 -0.5500  0.5336
  103CHL1  H27A13880   6.097   4.879  15.840  1.0076 -0.1209  0.5427
  103CHL1  H27B13881   6.011   5.008  15.746  3.3942 -0.1373 -1.0088
  103CHL1  H27C13882   6.130   5.060  15.864 -0.5802  0.5007 -1.3763
  104CHL1    C313883   2.409   6.361  17.392 -0.1812 -0.1137  0.1789
  104CHL1    H313884   2.414   6.253  17.367  0.1972  0.0170 -0.3173
  104CHL1    O313885   2.408   6.376  17.531  0.4301  0.1034 -0.2563
  104CHL1   H3'13886   2.434   6.465  17.554  0.3105  0.0991 -0.1024
  104CHL1    C413887   2.545   6.424  17.341  0.5287  0.0981  0.0613
  104CHL1   H4A13888   2.551   6.526  17.383 -0.1086  0.6130 -1.0480
  104CHL1   H4B13889   2.629   6.362  17.379  0.3589  0.5476  1.1973
  104CHL1    C513890   2.564   6.428  17.191 -0.1198 -0.4356  0.3982
  104CHL1    C613891   2.679   6.382  17.134 -0.1964  0.1518 -0.3355
  104CHL1    H613892   2.760   6.349  17.201  0.1362  0.9480 -0.3278
  104CHL1    C713893   2.694   6.374  16.990  0.2965 -0.3555  0.6570
  104CHL1   H7A13894   2.798   6.403  16.963  0.4895 -2.0427 -0.5554
  104CHL1   H7B13895   2.689   6.267  16.963 -0.4442 -0.6662  1.9670
  104CHL1    C813896   2.591   6.441  16.897  0.1175 -0.3789  0.2022
  104CHL1    H813897   2.621   6.548  16.902  2.0291 -0.9288  2.0095
  104CHL1   C1413898   2.591   6.398  16.747  0.2176 -0.6553 -0.0956
  104CHL1   H1413899   2.567   6.289  16.750 -0.0449 -0.5719  1.4789
  104CHL1   C1513900   2.731   6.393  16.683  0.2897  0.6801  0.0965
  104CHL1  H15A13901   2.797   6.479  16.706  0.9493  0.9006 -2.3747
  104CHL1  H15B13902   2.777   6.300  16.724 -2.2853  1.0707  4.5355
  104CHL1   C1613903   2.683   6.372  16.532 -0.4465  0.5740  0.2158
  104CHL1  H16A13904   2.742   6.446  16.474  0.7121 -1.2957 -1.1184
  104CHL1  H16B13905   2.712   6.271  16.497 -0.5534 -0.5594  3.1747
  104CHL1   C1713906   2.532   6.405  16.516  0.4041 -0.2992 -0.4554
  104CHL1   H1713907   2.482   6.306  16.509  0.4484 -0.2851 -1.0232
  104CHL1   C1313908   2.493   6.464  16.653  0.0484 -0.1824  0.3307
  104CHL1   C1813909   2.521   6.617  16.647 -0.0839 -0.3732  0.2136
  104CHL1  H18A13910   2.622   6.642  16.608 -0.0503 -0.7581  0.0380
  104CHL1  H18B13911   2.450   6.678  16.588  1.9999  0.3505 -1.7124
  104CHL1  H18C13912   2.507   6.666  16.745 -0.8056 -0.9046  0.3844
  104CHL1   C1213913   2.348   6.437  16.710 -0.1400  0.0029  0.2705
  104CHL1  H12A13914   2.287   6.494  16.637 -0.3711 -1.4360 -0.7017
  104CHL1  H12B13915   2.326   6.328  16.715 -0.7436  0.1584  1.2662
  104CHL1   C1113916   2.341   6.494  16.858 -0.9936  0.5644 -0.3063
  104CHL1  H11A13917   2.362   6.603  16.860  0.7466  0.3104 -1.5287
  104CHL1  H11B13918   2.244   6.471  16.905 -1.2507  0.3796 -0.9117
  104CHL1    C913919   2.446   6.429  16.956 -0.0599  0.4634 -0.2636
  104CHL1    H913920   2.421   6.321  16.954  0.6253  0.2821  0.3612
  104CHL1   C1013921   2.439   6.476  17.107  0.0157  0.3443 -0.3484
  104CHL1   C1913922   2.421   6.626  17.099  0.5577  0.7647  0.6944
  104CHL1  H19A13923   2.312   6.643  17.082  0.2474 -0.5010  1.3002
  104CHL1  H19B13924   2.430   6.660  17.204 -0.9459 -1.3856  1.5799
  104CHL1  H19C13925   2.473   6.682  17.018 -1.4055  1.1677 -0.3831
  104CHL1    C113926   2.307   6.405  17.172 -0.1548 -0.2653  0.2301
  104CHL1   H1A13927   2.222   6.455  17.121  1.2298  0.7240 -1.2102
  104CHL1   H1B13928   2.298   6.298  17.143  0.8653 -0.1462 -0.5767
  104CHL1    C213929   2.289   6.416  17.317 -0.3211  0.2885  0.2872
  104CHL1   H2A13930   2.193   6.380  17.358 -0.6722 -0.4386 -1.1233
  104CHL1   H2B13931   2.277   6.525  17.336 -0.1539  0.4664 -0.6030
  104CHL1   C2013932   2.488   6.482  16.388 -0.8478  1.1147 -0.0307
  104CHL1   H2013933   2.524   6.587  16.383  0.3933  0.8110  1.6650
  104CHL1   C2113934   2.334   6.480  16.386  0.3755  0.4112  0.8968
  104CHL1  H21A13935   2.290   6.502  16.286 -0.3836 -0.7932  0.9439
  104CHL1  H21B13936   2.303   6.560  16.455 -1.6320  1.4386 -1.0553
  104CHL1  H21C13937   2.302   6.377  16.415  2.4461 -0.1420  1.4373
  104CHL1   C2213938   2.544   6.400  16.261  0.2206  0.4424  0.1683
  104CHL1  H22A13939   2.655   6.408  16.254  0.3549  0.6443  1.9597
  104CHL1  H22B13940   2.524   6.291  16.273 -0.7164  0.4159 -1.4256
  104CHL1   C2313941   2.482   6.442  16.129  0.4161 -1.0255  0.1487
  104CHL1  H23A13942   2.375   6.414  16.118  0.2140 -0.0712 -0.4012
  104CHL1  H23B13943   2.483   6.551  16.109 -1.9278 -0.9026  0.4586
  104CHL1   C2413944   2.550   6.389  16.003  0.2434  0.5900  0.0299
  104CHL1  H24A13945   2.648   6.440  16.007  0.6741 -0.2165  3.6395
  104CHL1  H24B13946   2.567   6.281  16.020 -1.1126  0.2532 -0.5641
  104CHL1   C2513947   2.481   6.404  15.867 -0.0019 -0.6759  0.7236
  104CHL1   H2513948   2.460   6.509  15.836 -1.5499 -1.1918 -0.0484
  104CHL1   C2613949   2.579   6.346  15.758 -0.2930 -0.5033  0.3203
  104CHL1  H26A13950   2.530   6.309  15.665  1.2471 -2.3926  0.2022
  104CHL1  H26B13951   2.650   6.426  15.731  0.6044 -0.6959  1.9860
  104CHL1  H26C13952   2.641   6.266  15.803 -0.1957 -0.7804 -0.2927
  104CHL1   C2713953   2.339   6.343  15.859 -0.2300 -0.0195  0.3005
  104CHL1  H27A13954   2.343   6.233  15.873  0.6217  0.0827  0.8848
  104CHL1  H27B13955   2.266   6.385  15.932 -1.7560 -0.7496 -0.7414
  104CHL1  H27C13956   2.289   6.369  15.763  0.7829 -0.1525 -0.2791
  105CHL1    C313957   1.969   6.104  17.638  0.2671  0.0871 -0.3427
  105CHL1    H313958   1.981   6.213  17.622 -0.3702  0.1644 -0.3290
  105CHL1    O313959   1.976   6.086  17.777 -0.6095 -0.1793  0.3554
  105CHL1   H3'13960   2.009   5.996  17.782  0.5694  0.2778  1.1130
  105CHL1    C413961   1.830   6.062  17.585 -0.6785  0.0830  0.1594
  105CHL1   H4A13962   1.813   5.954  17.604  0.7935 -0.3824 -1.0130
  105CHL1   H4B13963   1.757   6.124  17.643 -1.9118 -1.2883  0.1408
  105CHL1    C513964   1.822   6.089  17.435  0.0472  0.6953 -0.6656
  105CHL1    C613965   1.716   6.161  17.381  0.4461  0.4287 -0.3882
  105CHL1    H613966   1.632   6.206  17.436  1.3922  0.2593  1.2347
  105CHL1    C713967   1.710   6.186  17.232 -0.3962 -0.0108  0.5874
  105CHL1   H7A13968   1.611   6.148  17.199 -0.6726  0.1059  1.2698
  105CHL1   H7B13969   1.721   6.294  17.212  0.6283 -0.5020 -1.8793
  105CHL1    C813970   1.815   6.112  17.145 -0.2773 -0.2959  0.0051
  105CHL1    H813971   1.786   6.008  17.118  1.9949 -0.4637 -2.1523
  105CHL1   C1413972   1.827   6.200  17.019 -0.2533  0.2625  0.1326
  105CHL1   H1413973   1.869   6.298  17.052  0.2279 -0.1873  0.8900
  105CHL1   C1513974   1.701   6.224  16.941  0.1466  0.0391  0.1767
  105CHL1  H15A13975   1.644   6.129  16.935  0.2565 -0.0540  0.6248
  105CHL1  H15B13976   1.639   6.307  16.983  1.0253  1.2671 -0.8725
  105CHL1   C1613977   1.750   6.259  16.800  0.1631 -0.7464  0.8933
  105CHL1  H16A13978   1.700   6.195  16.724  1.1508  2.4785 -2.8056
  105CHL1  H16B13979   1.724   6.363  16.772  1.1760 -0.3326  1.4734
  105CHL1   C1713980   1.903   6.230  16.797  0.7115  0.2897  0.2144
  105CHL1   H1713981   1.958   6.323  16.821  0.6559  0.3799 -0.0064
  105CHL1   C1313982   1.922   6.135  16.914  0.4164 -0.2099 -0.0071
  105CHL1   C1813983   1.877   5.994  16.867 -0.4523  0.5739  0.6239
  105CHL1  H18A13984   1.942   5.959  16.784 -2.0119 -2.1077  0.4222
  105CHL1  H18B13985   1.886   5.925  16.953 -1.3964 -0.0402  0.2452
  105CHL1  H18C13986   1.775   5.988  16.823 -0.3706 -0.1769  0.5245
  105CHL1   C1213987   2.064   6.140  16.980  0.0644  0.1713  0.0712
  105CHL1  H12A13988   2.140   6.101  16.908 -0.3173  1.5024 -1.0817
  105CHL1  H12B13989   2.081   6.248  17.001  0.0640  0.1082  0.4008
  105CHL1   C1113990   2.065   6.069  17.110 -0.8187 -0.4052 -0.6206
  105CHL1  H11A13991   2.055   5.961  17.084 -1.3606 -0.1320 -1.5644
  105CHL1  H11B13992   2.166   6.080  17.156  0.5874 -1.3351 -3.2515
  105CHL1    C913993   1.950   6.110  17.210 -0.5291 -0.3293 -0.1607
  105CHL1    H913994   1.978   6.216  17.227 -0.6183 -0.2787 -0.3250
  105CHL1   C1013995   1.942   6.038  17.349  0.2748 -0.4673 -0.1344
  105CHL1   C1913996   1.938   5.880  17.337 -0.9954  0.0398  0.2287
  105CHL1  H19A13997   2.034   5.836  17.304 -0.2729  0.5952  1.5438
  105CHL1  H19B13998   1.925   5.831  17.436 -0.1483  0.0017  0.3274
  105CHL1  H19C13999   1.850   5.852  17.275 -1.0881  0.2768  0.2534
  105CHL1    C114000   2.081   6.066  17.424  1.2056  0.0143 -0.0914
  105CHL1   H1A14001   2.155   6.005  17.367  0.4754  2.2368 -3.7741
  105CHL1   H1B14002   2.102   6.174  17.415 -0.9337  0.4200 -0.8359
  105CHL1    C214003   2.075   6.023  17.571 -0.1899 -0.0578 -0.5086
  105CHL1   H2A14004   2.176   6.032  17.616  0.0841  0.2354 -1.1670
  105CHL1   H2B14005   2.038   5.918  17.577 -1.4973  0.4812  1.8571
  105CHL1   C2014006   1.943   6.191  16.653  0.5673  0.1597  0.1506
  105CHL1   H2014007   1.881   6.102  16.627  0.4025  0.4035 -0.2956
  105CHL1   C2114008   2.090   6.158  16.640  0.9667  0.4296 -0.1611
  105CHL1  H21A14009   2.155   6.246  16.660  0.4828  0.2575  2.5325
  105CHL1  H21B14010   2.128   6.124  16.541 -0.9768 -0.0209 -0.7893
  105CHL1  H21C14011   2.122   6.082  16.715  0.9179  1.0193  0.4644
  105CHL1   C2214012   1.919   6.300  16.548 -0.7035  0.0145  0.0885
  105CHL1  H22A14013   1.814   6.335  16.560 -0.8874 -0.0682 -1.1231
  105CHL1  H22B14014   1.990   6.384  16.564  1.3658 -1.7754  0.8140
  105CHL1   C2314015   1.938   6.249  16.403  0.2353  0.0329  0.0898
  105CHL1  H23A14016   2.047   6.236  16.384  0.0173 -1.2455 -0.4123
  105CHL1  H23B14017   1.885   6.152  16.395 -1.2555  0.9141 -1.3762
  105CHL1   C2414018   1.884   6.342  16.292  0.0984  0.3616 -0.5529
  105CHL1  H24A14019   1.787   6.394  16.312  0.1947  1.3635 -2.4490
  105CHL1  H24B14020   1.954   6.427  16.278  1.6374 -1.0446 -1.7918
  105CHL1   C2514021   1.882   6.281  16.150 -0.0221 -0.4569  0.8128
  105CHL1   H2514022   1.814   6.194  16.159 -1.1838  0.5517  2.3661
  105CHL1   C2614023   1.814   6.381  16.052 -0.3930  0.1221 -0.0123
  105CHL1  H26A14024   1.821   6.350  15.945  2.4739  0.5513 -0.0263
  105CHL1  H26B14025   1.708   6.399  16.082 -0.1143 -0.7937  1.6337
  105CHL1  H26C14026   1.876   6.473  16.054 -0.5831  0.2410  1.2779
  105CHL1   C2714027   2.020   6.246  16.095 -0.4795  0.2653 -0.7389
  105CHL1  H27A14028   2.065   6.170  16.162 -2.3127 -0.2762 -0.0600
  105CHL1  H27B14029   2.015   6.197  15.996  0.0575 -1.2774 -0.0351
  105CHL1  H27C14030   2.092   6.331  16.093  3.0050 -2.0810  4.3545
  106CHL1    C314031   6.488   4.468  17.510 -0.5089 -0.2197 -0.0449
  106CHL1    H314032   6.483   4.579  17.512 -2.5027 -0.2885  0.6132
  106CHL1    O314033   6.509   4.418  17.641  0.3482  0.1573  0.3201
  106CHL1   H3'14034   6.587   4.466  17.668 -1.7507  2.9535  2.0083
  106CHL1    C414035   6.356   4.413  17.456  0.2784  0.3040  0.5405
  106CHL1   H4A14036   6.346   4.304  17.475  1.0314 -0.1366 -1.3288
  106CHL1   H4B14037   6.280   4.463  17.521  0.2701  2.8800 -1.2653
  106CHL1    C514038   6.323   4.433  17.311  0.5648  0.0618 -0.3184
  106CHL1    C614039   6.206   4.482  17.280  0.2290 -0.1095  0.2084
  106CHL1    H614040   6.124   4.499  17.352 -1.0571  1.7082 -1.5558
  106CHL1    C714041   6.162   4.514  17.135  0.2191 -0.2341 -0.1094
  106CHL1   H7A14042   6.063   4.464  17.121 -0.7256  1.2146  1.0795
  106CHL1   H7B14043   6.145   4.622  17.116 -1.8797 -0.5614 -0.3261
  106CHL1    C814044   6.267   4.455  17.035 -0.7456  0.2178 -0.5009
  106CHL1    H814045   6.249   4.345  17.036 -0.1693  0.1128 -1.1120
  106CHL1   C1414046   6.251   4.516  16.893  0.2241  0.6028  0.7065
  106CHL1   H1414047   6.288   4.620  16.904 -1.1183  0.9511  2.3163
  106CHL1   C1514048   6.109   4.534  16.843  0.0178 -0.1511  0.8231
  106CHL1  H15A14049   6.049   4.441  16.858 -0.0565 -0.6793 -2.0317
  106CHL1  H15B14050   6.045   4.613  16.888 -0.4362 -0.1174  0.1477
  106CHL1   C1614051   6.126   4.541  16.690  0.1532  0.1097  0.0523
  106CHL1  H16A14052   6.065   4.465  16.637  0.8299 -1.1722  1.0518
  106CHL1  H16B14053   6.106   4.645  16.656  0.5439 -0.8711 -3.5421
  106CHL1   C1714054   6.283   4.521  16.658  0.5581  0.1224  0.1970
  106CHL1   H1714055   6.323   4.624  16.663 -1.4864  0.9686 -0.3513
  106CHL1   C1314056   6.334   4.450  16.786  0.1035  0.2726 -0.2008
  106CHL1   C1814057   6.297   4.300  16.778  0.1708 -0.4874 -0.2470
  106CHL1  H18A14058   6.188   4.284  16.767 -0.0598  0.3858  0.6100
  106CHL1  H18B14059   6.354   4.252  16.695  1.0000 -0.7086  0.4298
  106CHL1  H18C14060   6.331   4.253  16.873 -0.8283  1.5798  1.2109
  106CHL1   C1214061   6.478   4.478  16.824  0.4183  0.0484 -0.0980
  106CHL1  H12A14062   6.549   4.438  16.748 -0.2335  0.2436 -0.8183
  106CHL1  H12B14063   6.484   4.588  16.815 -2.3768  0.1662 -1.6006
  106CHL1   C1114064   6.513   4.426  16.966 -0.0401 -0.2733 -0.7913
  106CHL1  H11A14065   6.516   4.315  16.960  1.3562 -0.3850  1.1312
  106CHL1  H11B14066   6.616   4.441  17.003 -0.4758  0.8148  0.0496
  106CHL1    C914067   6.414   4.475  17.079  0.2172  0.8164  0.1648
  106CHL1    H914068   6.428   4.584  17.095  0.8667  0.4427  2.6458
  106CHL1   C1014069   6.440   4.419  17.217  0.4012 -0.0520 -0.3496
  106CHL1   C1914070   6.459   4.271  17.203  0.3707 -0.3234 -0.5092
  106CHL1  H19A14071   6.383   4.212  17.148 -0.5032 -0.5835  0.9223
  106CHL1  H19B14072   6.552   4.242  17.150  0.4210  2.3488 -2.0330
  106CHL1  H19C14073   6.467   4.216  17.299  0.7065 -1.9720 -1.4530
  106CHL1    C114074   6.577   4.478  17.275 -0.1589 -0.2980  0.0979
  106CHL1   H1A14075   6.657   4.440  17.207 -1.3612 -1.5478 -0.6627
  106CHL1   H1B14076   6.575   4.588  17.287  0.9096 -0.4789  2.7185
  106CHL1    C214077   6.608   4.435  17.419 -0.2285  0.3371 -0.1418
  106CHL1   H2A14078   6.698   4.490  17.453 -0.0644 -0.3383  0.5440
  106CHL1   H2B14079   6.620   4.325  17.428 -0.1374  0.4604  1.6007
  106CHL1   C2014080   6.312   4.468  16.513 -0.1156 -0.3144 -0.4568
  106CHL1   H2014081   6.268   4.367  16.506 -0.1996 -0.2806 -0.4164
  106CHL1   C2114082   6.470   4.481  16.489  0.0191  0.8787  0.5964
  106CHL1  H21A14083   6.490   4.589  16.508 -0.4604  1.4545 -1.9006
  106CHL1  H21B14084   6.497   4.455  16.385  0.8054 -0.1902  1.0494
  106CHL1  H21C14085   6.523   4.415  16.561  0.6693  1.7204  0.9085
  106CHL1   C2214086   6.245   4.548  16.397 -0.5550 -0.0758  0.3798
  106CHL1  H22A14087   6.138   4.567  16.420 -0.5275 -2.6517  3.1612
  106CHL1  H22B14088   6.296   4.647  16.394 -0.5717 -0.0244  1.4398
  106CHL1   C2314089   6.254   4.469  16.265  0.0024  0.0929 -0.4749
  106CHL1  H23A14090   6.359   4.455  16.230  0.5561 -1.8428  1.6904
  106CHL1  H23B14091   6.229   4.364  16.288 -0.1679  0.2409  0.0356
  106CHL1   C2414092   6.161   4.525  16.153 -0.9008 -0.0142 -0.4393
  106CHL1  H24A14093   6.056   4.530  16.189  0.0648  0.4855  2.5410
  106CHL1  H24B14094   6.191   4.630  16.130  0.4409 -0.2354  0.2221
  106CHL1   C2514095   6.176   4.452  16.015  0.9345 -0.2886 -0.6609
  106CHL1   H2514096   6.184   4.343  16.038 -1.2816 -0.1673  1.0053
  106CHL1   C2614097   6.048   4.478  15.933  0.3727  0.5841 -0.3680
  106CHL1  H26A14098   6.072   4.449  15.829 -0.9310 -1.4926 -0.1439
  106CHL1  H26B14099   5.957   4.439  15.984  1.4948 -1.1422  0.4042
  106CHL1  H26C14100   6.022   4.586  15.930  1.4491  0.8388 -0.9422
  106CHL1   C2714101   6.302   4.501  15.944 -0.7512  0.3361 -0.5953
  106CHL1  H27A14102   6.378   4.461  16.014 -3.5542 -3.7572  0.4595
  106CHL1  H27B14103   6.310   4.435  15.855 -0.1284 -0.6577  0.1822
  106CHL1  H27C14104   6.306   4.610  15.922  1.4224  0.7135  1.2549
  107CHL1    C314105   1.778   2.541  16.958  0.2314 -0.1245  0.1865
  107CHL1    H314106   1.887   2.540  16.935  0.2077  0.3968  0.0514
  107CHL1    O314107   1.749   2.552  17.099  0.3182  0.2390 -0.0034
  107CHL1   H3'14108   1.783   2.637  17.128  0.5650 -0.8142  3.1641
  107CHL1    C414109   1.715   2.661  16.885  0.1562 -0.7755  0.3818
  107CHL1   H4A14110   1.608   2.654  16.915 -0.4284  0.5271 -1.2693
  107CHL1   H4B14111   1.752   2.755  16.931 -0.5892  0.7522 -1.9541
  107CHL1    C514112   1.736   2.659  16.732 -0.7315 -0.0829 -0.6870
  107CHL1    C614113   1.789   2.758  16.658  0.4669 -1.0003 -0.5021
  107CHL1    H614114   1.826   2.847  16.713  0.0327 -0.8448 -0.4626
  107CHL1    C714115   1.815   2.760  16.507 -0.1816  0.3983  0.1856
  107CHL1   H7A14116   1.817   2.862  16.464  1.4708 -0.2147 -1.3203
  107CHL1   H7B14117   1.913   2.713  16.483 -1.3069 -2.4128  0.6928
  107CHL1    C814118   1.715   2.667  16.440  0.9965 -0.1729  0.6294
  107CHL1    H814119   1.608   2.699  16.447  0.4181 -2.2359  1.9647
  107CHL1   C1414120   1.758   2.650  16.299 -0.0878  0.2689  0.5044
  107CHL1   H1414121   1.857   2.599  16.299  1.0498  2.3607  0.4713
  107CHL1   C1514122   1.774   2.777  16.212 -0.8608 -0.8790  0.0209
  107CHL1  H15A14123   1.686   2.844  16.229 -1.6688 -1.9884  0.3280
  107CHL1  H15B14124   1.868   2.827  16.243 -0.3816 -0.9229 -1.3315
  107CHL1   C1614125   1.773   2.729  16.066 -0.4588 -0.7674  0.1448
  107CHL1  H16A14126   1.703   2.793  16.010  0.3258  0.1795  0.2298
  107CHL1  H16B14127   1.872   2.731  16.017 -0.1112 -1.4551  0.7824
  107CHL1   C1714128   1.724   2.584  16.070  0.1752 -0.4462 -0.4320
  107CHL1   H1714129   1.815   2.522  16.062  1.3989  1.2295 -0.0675
  107CHL1   C1314130   1.667   2.562  16.211 -0.1339  0.7522  0.0159
  107CHL1   C1814131   1.522   2.616  16.225 -0.0010  0.1528  1.2109
  107CHL1  H18A14132   1.455   2.547  16.170  0.8176  0.9805 -0.9398
  107CHL1  H18B14133   1.487   2.618  16.330 -1.1153 -1.6018  0.9133
  107CHL1  H18C14134   1.515   2.719  16.186  0.0074 -0.3752 -0.2524
  107CHL1   C1214135   1.689   2.416  16.274  0.3682  0.2434  0.2214
  107CHL1  H12A14136   1.628   2.337  16.224 -0.9826 -0.1642  2.3538
  107CHL1  H12B14137   1.792   2.376  16.272 -0.0245 -0.7929 -0.2158
  107CHL1   C1114138   1.645   2.418  16.422 -0.3746 -0.2206 -0.0337
  107CHL1  H11A14139   1.534   2.421  16.418 -0.3580  1.3908  0.3245
  107CHL1  H11B14140   1.668   2.320  16.469  3.9528  0.7254  0.1919
  107CHL1    C914141   1.721   2.523  16.505  0.0306 -0.6398  0.0774
  107CHL1    H914142   1.830   2.502  16.511  0.4410  1.3541  0.4173
  107CHL1   C1014143   1.684   2.529  16.658 -0.2945 -0.0357  0.6757
  107CHL1   C1914144   1.532   2.531  16.660 -0.1599  0.8109  0.3525
  107CHL1  H19A14145   1.489   2.517  16.762 -2.9473  1.5271 -0.6413
  107CHL1  H19B14146   1.496   2.627  16.619 -0.5330  0.8936  0.8609
  107CHL1  H19C14147   1.493   2.444  16.603 -0.3649  0.4708  0.9990
  107CHL1    C114148   1.746   2.413  16.735 -0.4068  0.6906  0.3799
  107CHL1   H1A14149   1.705   2.319  16.692 -0.1165  0.2904  0.9704
  107CHL1   H1B14150   1.856   2.407  16.721 -0.4954 -3.0275  0.3358
  107CHL1    C214151   1.721   2.419  16.891 -0.1885 -0.2502 -0.1666
  107CHL1   H2A14152   1.766   2.327  16.933 -1.2466 -0.7560 -0.1138
  107CHL1   H2B14153   1.613   2.424  16.915 -0.7231 -0.2223 -2.3734
  107CHL1   C2014154   1.636   2.549  15.950  0.4909  0.3830 -0.2552
  107CHL1   H2014155   1.546   2.610  15.974  2.1054  2.2678  1.3053
  107CHL1   C2114156   1.596   2.399  15.933 -0.1390 -0.6993  0.1675
  107CHL1  H21A14157   1.552   2.359  16.027 -1.0134  0.4301  0.2697
  107CHL1  H21B14158   1.688   2.344  15.904  0.3262 -1.0283  2.1096
  107CHL1  H21C14159   1.517   2.378  15.857  0.4405 -0.0149 -0.6389
  107CHL1   C2214160   1.694   2.607  15.816 -0.0794  0.3202  0.3139
  107CHL1  H22A14161   1.696   2.718  15.816  1.4352  0.3173 -0.2435
  107CHL1  H22B14162   1.804   2.592  15.809 -0.1440  0.3829 -1.0782
  107CHL1   C2314163   1.641   2.548  15.685 -0.7433  0.2601 -0.4572
  107CHL1  H23A14164   1.644   2.437  15.692 -1.0368  0.1170 -2.2614
  107CHL1  H23B14165   1.531   2.561  15.679 -0.8035 -0.3008 -0.6773
  107CHL1   C2414166   1.705   2.606  15.563 -0.0693  0.6044 -0.4701
  107CHL1  H24A14167   1.688   2.716  15.569  1.1351  0.8413 -1.0039
  107CHL1  H24B14168   1.814   2.589  15.566 -0.1452  0.2856  0.8850
  107CHL1   C2514169   1.644   2.541  15.434  0.0569  0.5146  0.1501
  107CHL1   H2514170   1.629   2.432  15.451 -0.9437  0.1803 -2.4344
  107CHL1   C2614171   1.516   2.612  15.397 -0.2762  0.2185  0.1963
  107CHL1  H26A14172   1.440   2.617  15.477  0.5135 -3.2308  1.3364
  107CHL1  H26B14173   1.537   2.715  15.362 -1.3410  0.0033 -1.1817
  107CHL1  H26C14174   1.468   2.557  15.313 -1.9123 -1.7276  2.2757
  107CHL1   C2714175   1.743   2.526  15.317  0.1880 -0.5734 -0.1777
  107CHL1  H27A14176   1.844   2.486  15.340 -0.8619 -1.8134  2.7970
  107CHL1  H27B14177   1.706   2.471  15.228  0.8949  1.0357 -1.5327
  107CHL1  H27C14178   1.770   2.629  15.283  0.9129 -1.2413 -1.7089
  108CHL1    C314179   2.090   5.517  17.412 -0.5805  0.1128  0.5267
  108CHL1    H314180   2.073   5.627  17.423 -1.5230 -0.0821  1.1300
  108CHL1    O314181   2.100   5.463  17.539 -0.5354  0.1020  0.0722
  108CHL1   H3'14182   2.104   5.370  17.518 -0.8847  0.3827 -1.3175
  108CHL1    C414183   1.958   5.471  17.345  0.3484 -0.1372  0.1300
  108CHL1   H4A14184   1.962   5.360  17.344  0.4545 -0.1371  0.3530
  108CHL1   H4B14185   1.874   5.498  17.412 -1.1255 -0.5019 -1.5146
  108CHL1    C514186   1.954   5.522  17.201  0.0199 -0.2566 -0.2716
  108CHL1    C614187   1.842   5.586  17.168  0.4485 -0.3481 -0.4723
  108CHL1    H614188   1.752   5.587  17.231  1.1080 -1.0696  0.5081
  108CHL1    C714189   1.817   5.633  17.029 -0.0174  0.0388  0.3394
  108CHL1   H7A14190   1.715   5.603  17.000  0.1412 -1.3400  1.0871
  108CHL1   H7B14191   1.834   5.742  17.040  0.4682  0.1857 -1.6399
  108CHL1    C814192   1.929   5.570  16.932  0.5497  0.3622  0.4098
  108CHL1    H814193   1.900   5.463  16.932  1.6001  0.0463  1.9366
  108CHL1   C1414194   1.907   5.636  16.792  0.3848 -0.2964 -0.5924
  108CHL1   H1414195   1.926   5.744  16.812  0.1384 -0.0587 -1.5950
  108CHL1   C1514196   1.767   5.641  16.734 -0.0695 -0.2035  0.0053
  108CHL1  H15A14197   1.712   5.546  16.752  2.1321 -1.3833  0.8925
  108CHL1  H15B14198   1.715   5.725  16.785 -0.6807 -0.8163  0.3975
  108CHL1   C1614199   1.797   5.662  16.587 -0.2924  0.1804  0.0987
  108CHL1  H16A14200   1.743   5.583  16.531 -0.4712 -0.5471  1.2686
  108CHL1  H16B14201   1.768   5.765  16.559  1.9536  0.7335 -0.4154
  108CHL1   C1714202   1.951   5.662  16.566  0.1158  0.6186  0.5032
  108CHL1   H1714203   1.989   5.765  16.583 -0.3379  0.9067 -0.2036
  108CHL1   C1314204   2.008   5.590  16.689  0.5468 -0.2235  0.3527
  108CHL1   C1814205   1.982   5.441  16.665  0.1662  0.0663  0.3887
  108CHL1  H18A14206   1.878   5.417  16.633  0.1624  1.0953 -0.4167
  108CHL1  H18B14207   2.057   5.400  16.593 -0.3282  1.2427 -0.8322
  108CHL1  H18C14208   1.991   5.388  16.762  1.1736 -0.9273 -0.2131
  108CHL1   C1214209   2.149   5.636  16.749  0.2696 -0.3016  0.2713
  108CHL1  H12A14210   2.230   5.627  16.673 -2.0405 -2.7555 -2.1294
  108CHL1  H12B14211   2.145   5.742  16.780 -1.6167  0.2444 -1.6142
  108CHL1   C1114212   2.184   5.555  16.870 -0.4923  0.1199 -0.0245
  108CHL1  H11A14213   2.182   5.445  16.850 -1.8801  0.1821 -0.3270
  108CHL1  H11B14214   2.276   5.597  16.915 -0.8122  1.0065 -0.1929
  108CHL1    C914215   2.075   5.580  16.979 -0.5409  0.4156 -0.7092
  108CHL1    H914216   2.097   5.687  17.001  1.7451  0.4065 -2.5508
  108CHL1   C1014217   2.082   5.509  17.115  0.9624  0.2054 -0.0872
  108CHL1   C1914218   2.097   5.352  17.096  0.0836 -0.1394  0.7178
  108CHL1  H19A14219   2.177   5.332  17.021  0.9407 -0.6182  1.7276
  108CHL1  H19B14220   2.117   5.299  17.191 -2.0308 -1.1937  0.6365
  108CHL1  H19C14221   2.000   5.312  17.059  0.1258  0.7860 -0.4841
  108CHL1    C114222   2.207   5.564  17.190  0.4808 -0.1192  0.0933
  108CHL1   H1A14223   2.301   5.551  17.132  0.4761 -0.6664  0.2057
  108CHL1   H1B14224   2.183   5.672  17.192  0.2125 -0.1834  1.6230
  108CHL1    C214225   2.224   5.505  17.334 -0.1439  0.4129  0.1078
  108CHL1   H2A14226   2.313   5.555  17.378  3.4457 -2.1544 -3.5229
  108CHL1   H2B14227   2.256   5.399  17.344  0.1119  0.7104  3.6879
  108CHL1   C2014228   1.990   5.634  16.419  0.2386 -0.0701 -0.3315
  108CHL1   H2014229   1.961   5.529  16.400 -0.5804  0.1999 -0.6112
  108CHL1   C2114230   2.140   5.648  16.397 -0.2141  0.0761 -0.1939
  108CHL1  H21A14231   2.163   5.609  16.295 -3.9149  0.8607 -1.4814
  108CHL1  H21B14232   2.193   5.592  16.477 -1.4771  1.2413  1.5126
  108CHL1  H21C14233   2.173   5.754  16.397 -0.4236  0.1930 -2.3155
  108CHL1   C2214234   1.921   5.733  16.326 -0.2564 -0.0278  0.3596
  108CHL1  H22A14235   1.811   5.716  16.328  0.0260 -2.1849  0.8464
  108CHL1  H22B14236   1.950   5.832  16.366  4.1381 -0.8366 -0.3386
  108CHL1   C2314237   1.948   5.725  16.174 -0.6070  0.2305  0.5958
  108CHL1  H23A14238   2.047   5.770  16.149  0.1592 -0.9482  1.3984
  108CHL1  H23B14239   1.952   5.616  16.156  0.5209 -0.1194  2.6458
  108CHL1   C2414240   1.837   5.801  16.096 -0.0232 -0.7320 -0.2409
  108CHL1  H24A14241   1.737   5.757  16.114  0.8332 -2.4264  0.6046
  108CHL1  H24B14242   1.824   5.907  16.127 -1.0701 -1.2142  1.0589
  108CHL1   C2514243   1.873   5.800  15.950 -0.0848 -0.4853  0.4821
  108CHL1   H2514244   1.984   5.815  15.946 -0.1101 -0.3788  0.1362
  108CHL1   C2614245   1.833   5.678  15.867 -0.2750  0.3624  0.5830
  108CHL1  H26A14246   1.733   5.640  15.896  0.1265 -0.4065  1.0248
  108CHL1  H26B14247   1.829   5.694  15.758  1.2396  3.0705  0.8324
  108CHL1  H26C14248   1.906   5.594  15.877 -0.5725 -0.2046 -1.6490
  108CHL1   C2714249   1.810   5.926  15.884 -0.2965  0.2795 -0.3125
  108CHL1  H27A14250   1.835   5.930  15.776  1.1739  0.0741  0.0043
  108CHL1  H27B14251   1.699   5.928  15.896 -0.6019 -1.4569 -2.2498
  108CHL1  H27C14252   1.844   6.014  15.944 -0.5851 -1.3244  2.3555
  109CHL1    C314253   2.777   2.901  17.004  0.0670 -0.4396  0.1888
  109CHL1    H314254   2.675   2.859  16.993 -0.7163  0.9969  1.4222
  109CHL1    O314255   2.810   2.919  17.146 -0.1746 -0.0780  0.6248
  109CHL1   H3'14256   2.897   2.960  17.149  0.4876 -1.4656  1.0258
  109CHL1    C414257   2.887   2.822  16.935  0.2174  0.1976 -0.1687
  109CHL1   H4A14258   2.990   2.861  16.955  0.1271  0.7611 -0.7499
  109CHL1   H4B14259   2.885   2.724  16.986 -0.1689  1.2380  1.9610
  109CHL1    C514260   2.850   2.803  16.788  0.0723  0.2172  0.3245
  109CHL1    C614261   2.819   2.680  16.733  0.1158  0.4260  0.1884
  109CHL1    H614262   2.830   2.593  16.799 -0.3002  0.1182 -0.1424
  109CHL1    C714263   2.787   2.658  16.586 -0.5719 -0.2851 -0.4922
  109CHL1   H7A14264   2.849   2.577  16.543 -0.5960 -1.4381  1.5501
  109CHL1   H7B14265   2.677   2.641  16.576 -0.3662 -0.8813 -2.1173
  109CHL1    C814266   2.825   2.785  16.502  0.8386  0.5265  0.2607
  109CHL1    H814267   2.935   2.777  16.496  0.8642  0.3787  0.8698
  109CHL1   C1414268   2.765   2.776  16.360 -0.3432  0.2392  0.4439
  109CHL1   H1414269   2.657   2.795  16.377 -0.2310  3.0051 -1.2921
  109CHL1   C1514270   2.773   2.650  16.279 -0.0498 -0.2025  0.3719
  109CHL1  H15A14271   2.873   2.602  16.286 -0.4119 -1.0167  0.1073
  109CHL1  H15B14272   2.701   2.579  16.322 -0.2623 -0.3564 -0.2253
  109CHL1   C1614273   2.736   2.692  16.135 -0.4884  0.5403 -0.2105
  109CHL1  H16A14274   2.818   2.661  16.066 -0.2654 -1.3895  0.8647
  109CHL1  H16B14275   2.640   2.648  16.102 -0.7981  0.2887  0.9998
  109CHL1   C1714276   2.729   2.847  16.135 -0.6634  0.1102 -0.3988
  109CHL1   H1714277   2.623   2.870  16.157 -1.0376 -0.8063 -1.1785
  109CHL1   C1314278   2.807   2.889  16.261 -0.8958 -0.1385 -0.5709
  109CHL1   C1814279   2.959   2.872  16.235  0.6565 -0.3137 -0.0355
  109CHL1  H18A14280   3.000   2.954  16.172 -1.3511  2.1938  1.6874
  109CHL1  H18B14281   3.022   2.856  16.325 -1.3865 -1.5327  1.2480
  109CHL1  H18C14282   2.972   2.780  16.174 -2.3360  0.9626 -2.9350
  109CHL1   C1214283   2.764   3.022  16.326 -0.4832  0.7140 -0.6768
  109CHL1  H12A14284   2.803   3.111  16.271  1.0060  0.3022 -0.3360
  109CHL1  H12B14285   2.656   3.026  16.348 -0.3835 -0.2616  0.0486
  109CHL1   C1114286   2.818   3.043  16.470 -0.0333  0.6410  0.1335
  109CHL1  H11A14287   2.927   3.066  16.462  0.6304 -2.0045  0.5703
  109CHL1  H11B14288   2.761   3.133  16.502 -1.5903  0.4104 -1.8070
  109CHL1    C914289   2.791   2.922  16.565 -0.3617 -0.2500  0.2081
  109CHL1    H914290   2.681   2.914  16.576 -0.4335  0.4017  0.0276
  109CHL1   C1014291   2.844   2.930  16.712 -0.0994 -0.8628  0.8290
  109CHL1   C1914292   2.980   2.998  16.706 -0.0816  0.1512  0.3647
  109CHL1  H19A14293   3.041   2.945  16.630 -0.1917  2.0247 -1.0915
  109CHL1  H19B14294   2.974   3.103  16.670  3.0576  0.6727  0.9950
  109CHL1  H19C14295   3.032   3.013  16.804  3.4969 -0.1297 -1.3134
  109CHL1    C114296   2.743   3.023  16.790 -0.2841  0.8617 -0.2762
  109CHL1   H1A14297   2.724   3.122  16.743  0.3289  1.5289  0.8382
  109CHL1   H1B14298   2.650   2.964  16.782 -0.1518  0.7972 -1.6882
  109CHL1    C214299   2.777   3.038  16.939 -0.2861 -0.3064  0.4130
  109CHL1   H2A14300   2.699   3.104  16.982 -1.5517 -0.8526 -0.9272
  109CHL1   H2B14301   2.878   3.079  16.959  0.1226 -1.4252  0.6696
  109CHL1   C2014302   2.764   2.901  15.998 -0.1451  0.1127  0.2848
  109CHL1   H2014303   2.871   2.875  15.981  0.1359  0.3508  1.5990
  109CHL1   C2114304   2.770   3.054  16.004  0.2285  0.5204  0.6578
  109CHL1  H21A14305   2.679   3.103  16.046  0.4742  1.3036  0.3018
  109CHL1  H21B14306   2.779   3.083  15.897  1.7513  0.2924  0.7091
  109CHL1  H21C14307   2.865   3.085  16.053 -1.4255 -0.0398  4.6203
  109CHL1   C2214308   2.675   2.849  15.888  0.0354 -0.4280 -0.2931
  109CHL1  H22A14309   2.667   2.739  15.899  4.5490 -0.9456 -0.3766
  109CHL1  H22B14310   2.576   2.895  15.907  1.0690  1.5352  0.6783
  109CHL1   C2314311   2.721   2.870  15.747 -0.1396 -0.0566 -0.6020
  109CHL1  H23A14312   2.751   2.974  15.721  0.4289  0.2459  1.1468
  109CHL1  H23B14313   2.815   2.811  15.739  0.0495 -0.3602  2.6878
  109CHL1   C2414314   2.624   2.800  15.658  0.0408 -0.6748  0.1055
  109CHL1  H24A14315   2.616   2.695  15.694  0.0304 -0.6752  0.1029
  109CHL1  H24B14316   2.528   2.855  15.663  0.0038 -0.5233 -1.6649
  109CHL1   C2514317   2.663   2.819  15.507  0.8332 -0.1509 -0.4493
  109CHL1   H2514318   2.638   2.922  15.473  0.7227 -0.1494 -0.3671
  109CHL1   C2614319   2.817   2.824  15.485 -0.3034  0.6383 -0.0599
  109CHL1  H26A14320   2.839   2.854  15.380  1.6305 -1.4636 -0.3116
  109CHL1  H26B14321   2.872   2.897  15.549 -2.0280  2.8565 -0.9420
  109CHL1  H26C14322   2.844   2.717  15.496 -0.8149  0.4305 -0.7042
  109CHL1   C2714323   2.600   2.715  15.424 -0.3082  0.3248  0.2339
  109CHL1  H27A14324   2.658   2.711  15.330 -2.4359  1.0524 -1.1937
  109CHL1  H27B14325   2.595   2.616  15.474  2.5920  0.1596  0.3797
  109CHL1  H27C14326   2.496   2.747  15.399 -0.2709  1.1324  1.0521
  110CHL1    C314327   4.470   0.423  17.166 -0.1133  0.7444  0.5493
  110CHL1    H314328   4.484   0.313  17.161 -0.5362  0.4834  3.3839
  110CHL1    O314329   4.473   0.452  17.301  0.1177 -0.3187 -0.1112
  110CHL1   H3'14330   4.481   0.548  17.298  0.4594 -0.3662 -1.3610
  110CHL1    C414331   4.572   0.507  17.092  0.0419 -0.3299  0.4298
  110CHL1   H4A14332   4.556   0.615  17.112 -0.1084 -0.8118  3.3752
  110CHL1   H4B14333   4.668   0.469  17.134  0.2897 -0.4913 -0.2821
  110CHL1    C514334   4.570   0.472  16.948 -0.0931  0.0607  0.6334
  110CHL1    C614335   4.680   0.425  16.887  0.1072  0.1357 -0.1060
  110CHL1    H614336   4.775   0.421  16.941  0.0133  0.2921  0.0723
  110CHL1    C714337   4.674   0.387  16.741 -0.1937 -0.6852 -0.2969
  110CHL1   H7A14338   4.764   0.423  16.688 -0.6798  0.1966 -0.5451
  110CHL1   H7B14339   4.664   0.277  16.724  0.9532 -0.8768  0.1704
  110CHL1    C814340   4.556   0.464  16.669  0.5029  0.6649 -0.0575
  110CHL1    H814341   4.579   0.573  16.670 -1.0069  0.9991  0.7165
  110CHL1   C1414342   4.556   0.415  16.523 -0.3972  0.0963 -0.0025
  110CHL1   H1414343   4.538   0.306  16.535  0.0167  0.1339  1.0417
  110CHL1   C1514344   4.684   0.434  16.433  0.0095  0.1693 -0.7521
  110CHL1  H15A14345   4.727   0.535  16.451 -1.1920  0.3346  1.6723
  110CHL1  H15B14346   4.765   0.363  16.458  0.4435  0.9961  0.2836
  110CHL1   C1614347   4.632   0.418  16.296  0.1627  0.1083 -0.2666
  110CHL1  H16A14348   4.656   0.510  16.238 -3.3386  0.8842 -0.7107
  110CHL1  H16B14349   4.683   0.332  16.248  2.6525  0.4788  1.5068
  110CHL1   C1714350   4.475   0.408  16.300 -0.1439  0.1592 -0.1536
  110CHL1   H1714351   4.445   0.301  16.304  0.2047  0.0459 -0.5428
  110CHL1   C1314352   4.439   0.461  16.440 -0.0431 -0.3429 -0.1560
  110CHL1   C1814353   4.451   0.618  16.447 -0.2391  0.0437 -0.0271
  110CHL1  H18A14354   4.378   0.655  16.371  1.3071  1.6484 -0.8282
  110CHL1  H18B14355   4.408   0.663  16.538 -0.1856  1.1726 -0.5351
  110CHL1  H18C14356   4.549   0.668  16.426  0.1410 -0.3718  0.7533
  110CHL1   C1214357   4.307   0.410  16.510 -0.2818 -0.0228  0.2488
  110CHL1  H12A14358   4.217   0.435  16.450  0.0090  0.4574  0.0032
  110CHL1  H12B14359   4.317   0.301  16.525  1.8608  0.1500  0.5173
  110CHL1   C1114360   4.296   0.461  16.661  0.2539  0.2039 -0.0743
  110CHL1  H11A14361   4.267   0.568  16.666  1.0270  0.3642  3.9674
  110CHL1  H11B14362   4.208   0.403  16.694 -0.2119 -1.1082 -3.2513
  110CHL1    C914363   4.425   0.429  16.741 -0.1446  0.0321  0.2915
  110CHL1    H914364   4.421   0.318  16.745 -2.1134 -0.1096 -2.5799
  110CHL1   C1014365   4.429   0.493  16.882  0.6519  0.2715 -0.3697
  110CHL1   C1914366   4.405   0.650  16.883 -0.3330  0.3974  0.1891
  110CHL1  H19A14367   4.427   0.696  16.981  0.1657  0.6663 -0.0469
  110CHL1  H19B14368   4.472   0.702  16.812 -0.0653 -0.7295 -0.3984
  110CHL1  H19C14369   4.303   0.678  16.847  0.5545  0.3672 -2.5789
  110CHL1    C114370   4.314   0.436  16.969  0.2356 -0.0725  0.0502
  110CHL1   H1A14371   4.213   0.475  16.945  1.6839  3.0710 -1.4150
  110CHL1   H1B14372   4.303   0.327  16.950 -1.9997  0.1224 -0.1105
  110CHL1    C214373   4.333   0.454  17.116 -0.0627 -0.8546 -0.1051
  110CHL1   H2A14374   4.257   0.390  17.167 -1.7760 -0.0075 -1.4827
  110CHL1   H2B14375   4.308   0.558  17.145 -0.7272 -0.5465 -1.7119
  110CHL1   C2014376   4.408   0.466  16.171  0.4733  0.0288  0.7489
  110CHL1   H2014377   4.419   0.576  16.156  0.4972 -0.0817 -0.0595
  110CHL1   C2114378   4.256   0.455  16.176 -0.7763  0.1118 -0.1778
  110CHL1  H21A14379   4.214   0.514  16.260  1.0388 -1.1410  1.7232
  110CHL1  H21B14380   4.225   0.349  16.191  0.3127 -0.2163 -0.1233
  110CHL1  H21C14381   4.216   0.494  16.080 -0.4740  3.1611  0.8217
  110CHL1   C2214382   4.454   0.393  16.043 -0.5638  0.1473  0.1640
  110CHL1  H22A14383   4.555   0.435  16.026  0.4508 -2.3091 -0.4385
  110CHL1  H22B14384   4.476   0.285  16.062  1.3327  0.3732 -0.5165
  110CHL1   C2314385   4.367   0.409  15.926 -0.0462 -0.3232  0.1433
  110CHL1  H23A14386   4.272   0.352  15.926  1.6818 -3.4921 -1.2876
  110CHL1  H23B14387   4.356   0.518  15.908 -0.8501 -0.3906  0.2076
  110CHL1   C2414388   4.432   0.332  15.806  0.2979  0.2355  0.1952
  110CHL1  H24A14389   4.527   0.383  15.779  0.1910 -0.2382 -1.1300
  110CHL1  H24B14390   4.445   0.227  15.839 -0.4858  0.2694  0.6302
  110CHL1   C2514391   4.345   0.324  15.680  0.7422 -0.9223 -0.2718
  110CHL1   H2514392   4.239   0.298  15.701  1.3766 -2.6503  1.1195
  110CHL1   C2614393   4.352   0.459  15.601  0.3397  0.2315  0.1018
  110CHL1  H26A14394   4.443   0.516  15.630 -0.0797  0.9036  0.1289
  110CHL1  H26B14395   4.370   0.431  15.495  2.7428  0.6554  0.3507
  110CHL1  H26C14396   4.255   0.514  15.599 -0.6202 -1.3193 -2.6974
  110CHL1   C2714397   4.396   0.212  15.595 -0.1062  0.5421  0.2344
  110CHL1  H27A14398   4.405   0.117  15.653 -1.3294 -0.4851 -1.1886
  110CHL1  H27B14399   4.318   0.197  15.517  0.6899 -0.4445 -0.3919
  110CHL1  H27C14400   4.492   0.239  15.546 -0.3845  1.8865  0.3804
  111CHL1    C314401   6.161   1.889  17.054 -1.2176 -0.2230  0.4016
  111CHL1    H314402   6.252   1.949  17.039 -0.7486 -0.9392  0.3313
  111CHL1    O314403   6.130   1.912  17.190  0.5624  0.5388  0.1460
  111CHL1   H3'14404   6.161   2.003  17.200 -0.7428  1.2578 -1.7784
  111CHL1    C414405   6.060   1.960  16.964  0.5778  0.3260  0.8874
  111CHL1   H4A14406   5.961   1.917  16.989 -0.1501  0.9535 -0.7382
  111CHL1   H4B14407   6.043   2.066  16.990 -3.7842 -0.1164  0.6460
  111CHL1    C514408   6.083   1.934  16.818  0.1493 -0.5208  0.3533
  111CHL1    C614409   6.080   2.024  16.719 -0.2586 -0.4192  0.9034
  111CHL1    H614410   6.059   2.129  16.744  1.4586  0.0917  0.3467
  111CHL1    C714411   6.091   2.001  16.572 -0.8173  0.2900 -0.5420
  111CHL1   H7A14412   6.014   2.058  16.517 -0.8133  0.7537 -0.0780
  111CHL1   H7B14413   6.194   2.030  16.540 -0.4877 -0.3249 -0.0788
  111CHL1    C814414   6.073   1.849  16.534 -0.5993 -0.2675 -0.4928
  111CHL1    H814415   5.965   1.824  16.540 -0.5872 -0.0709  1.2555
  111CHL1   C1414416   6.133   1.822  16.395  0.5188 -0.2135  0.5008
  111CHL1   H1414417   6.243   1.830  16.407  0.7091 -0.6287 -0.8083
  111CHL1   C1514418   6.094   1.919  16.283 -0.2386  0.8967 -0.3828
  111CHL1  H15A14419   5.988   1.950  16.272 -0.5592 -0.3047 -0.8630
  111CHL1  H15B14420   6.151   2.014  16.285 -1.5972  1.7445  2.1611
  111CHL1   C1614421   6.123   1.845  16.151  0.0293 -0.6253  0.7074
  111CHL1  H16A14422   6.029   1.850  16.092  1.7265  0.3920 -2.0890
  111CHL1  H16B14423   6.208   1.901  16.107  0.6676 -1.1306  1.2832
  111CHL1   C1714424   6.168   1.701  16.189  0.1957 -0.6101 -0.5397
  111CHL1   H1714425   6.274   1.713  16.219  0.1654 -0.6171 -0.4299
  111CHL1   C1314426   6.109   1.680  16.336  1.1027  0.0174  0.3570
  111CHL1   C1814427   5.957   1.658  16.315 -0.7880 -0.6218  0.0707
  111CHL1  H18A14428   5.917   1.710  16.225 -0.7488 -2.5506 -1.1060
  111CHL1  H18B14429   5.928   1.552  16.299 -0.7877 -0.6239  0.0843
  111CHL1  H18C14430   5.898   1.676  16.408 -0.3203 -0.6833  0.3789
  111CHL1   C1214431   6.169   1.580  16.438  0.3670 -0.4030 -0.4180
  111CHL1  H12A14432   6.137   1.478  16.405  2.7507 -0.4768 -2.8415
  111CHL1  H12B14433   6.278   1.595  16.426  0.1281 -0.1547 -2.7209
  111CHL1   C1114434   6.113   1.611  16.579 -0.4273 -0.2301  0.0666
  111CHL1  H11A14435   6.005   1.585  16.578 -1.4002  3.2356  1.6160
  111CHL1  H11B14436   6.167   1.540  16.645  1.7239  1.2324 -0.0230
  111CHL1    C914437   6.139   1.755  16.632 -0.0491 -0.1111  1.1747
  111CHL1    H914438   6.248   1.772  16.623  0.0447 -1.5701 -1.6946
  111CHL1   C1014439   6.103   1.784  16.783  0.1383  0.4407 -0.8869
  111CHL1   C1914440   5.969   1.714  16.813  0.3548  0.7757 -0.4422
  111CHL1  H19A14441   5.978   1.604  16.804 -1.2836  0.4594  1.1527
  111CHL1  H19B14442   5.939   1.730  16.919  0.3395  0.6644 -0.4297
  111CHL1  H19C14443   5.885   1.753  16.752 -0.7328 -1.8720 -0.7666
  111CHL1    C114444   6.212   1.717  16.874 -0.0061 -0.1422  0.0515
  111CHL1   H1A14445   6.223   1.610  16.848  1.6880  0.4836 -2.1488
  111CHL1   H1B14446   6.312   1.762  16.857  1.1462 -2.0452  1.4296
  111CHL1    C214447   6.178   1.740  17.024 -0.1020  0.2076 -0.2761
  111CHL1   H2A14448   6.251   1.694  17.093  0.5356  2.1079  0.3709
  111CHL1   H2B14449   6.091   1.678  17.053 -1.0161  0.8773 -1.4557
  111CHL1   C2014450   6.151   1.584  16.088 -0.3304 -0.7875 -0.7749
  111CHL1   H2014451   6.043   1.557  16.088 -0.7843  0.7866  0.6320
  111CHL1   C2114452   6.241   1.470  16.145  0.0483  0.1149 -0.4782
  111CHL1  H21A14453   6.275   1.406  16.060  1.1660 -0.8746  0.6846
  111CHL1  H21B14454   6.184   1.404  16.214 -1.2251  0.0338 -1.5587
  111CHL1  H21C14455   6.331   1.505  16.198 -0.2844  1.6068 -0.8500
  111CHL1   C2214456   6.206   1.642  15.950  0.0825  0.6654  0.6305
  111CHL1  H22A14457   6.154   1.734  15.915 -3.4719 -1.3411  0.0542
  111CHL1  H22B14458   6.311   1.668  15.971  0.0763  0.9875  0.2738
  111CHL1   C2314459   6.202   1.527  15.839 -0.8919 -0.6158 -0.5789
  111CHL1  H23A14460   6.270   1.442  15.861 -1.0560 -0.8810 -1.0833
  111CHL1  H23B14461   6.098   1.489  15.828 -1.2059 -1.3358  3.4415
  111CHL1   C2414462   6.266   1.569  15.697 -0.9144 -0.7251 -0.4177
  111CHL1  H24A14463   6.229   1.672  15.680  1.0120 -0.1142 -1.2271
  111CHL1  H24B14464   6.375   1.577  15.720 -0.9541 -1.2111 -0.0368
  111CHL1   C2514465   6.244   1.475  15.579 -0.3216  0.1556 -0.2829
  111CHL1   H2514466   6.277   1.371  15.600  0.8705  0.6574  0.3912
  111CHL1   C2614467   6.099   1.464  15.542 -0.4950 -0.3876  0.0148
  111CHL1  H26A14468   6.079   1.570  15.512  0.4165  0.0211  0.7861
  111CHL1  H26B14469   6.074   1.404  15.452 -0.4603  1.8088 -1.5457
  111CHL1  H26C14470   6.042   1.424  15.628 -0.2821  0.3274  0.4998
  111CHL1   C2714471   6.339   1.526  15.471  0.0444  0.2644  0.1833
  111CHL1  H27A14472   6.332   1.464  15.378 -0.4400  0.4974  0.0628
  111CHL1  H27B14473   6.313   1.630  15.444 -2.6926 -0.9113 -2.3798
  111CHL1  H27C14474   6.445   1.523  15.503  0.8500 -1.9118 -2.2975
  112CHL1    C314475   0.808   2.882  17.243 -0.4963  0.4483  0.1464
  112CHL1    H314476   0.702   2.909  17.224  0.0325  2.3906 -0.1769
  112CHL1    O314477   0.838   2.873  17.380 -0.6244 -0.1245  0.3772
  112CHL1   H3'14478   0.926   2.838  17.393  0.5771  1.6946 -2.0034
  112CHL1    C414479   0.835   2.752  17.167 -0.4387  0.3071  0.1304
  112CHL1   H4A14480   0.933   2.707  17.195 -0.9603 -1.9979 -1.4255
  112CHL1   H4B14481   0.757   2.678  17.197 -0.9155  0.6800 -0.1924
  112CHL1    C514482   0.826   2.770  17.014 -0.5070  0.0753  0.4719
  112CHL1    C614483   0.738   2.703  16.936  0.6758  0.1622 -0.2377
  112CHL1    H614484   0.679   2.627  16.990 -0.0861  0.4514 -0.6558
  112CHL1    C714485   0.705   2.728  16.791  0.3841  0.5729  0.1022
  112CHL1   H7A14486   0.657   2.637  16.749 -2.3521  0.7253  2.5477
  112CHL1   H7B14487   0.621   2.800  16.783  0.5897  0.7256 -0.7879
  112CHL1    C814488   0.821   2.799  16.719  0.2236  0.0660 -0.1590
  112CHL1    H814489   0.905   2.727  16.715  0.7115  0.6820 -1.5322
  112CHL1   C1414490   0.781   2.834  16.580 -1.3352  0.0229 -0.5153
  112CHL1   H1414491   0.708   2.917  16.591 -0.2223  0.7276  2.5127
  112CHL1   C1514492   0.695   2.733  16.498 -0.4618 -0.2337  0.5089
  112CHL1  H15A14493   0.745   2.635  16.511  0.7912  0.6029  2.6783
  112CHL1  H15B14494   0.593   2.736  16.542 -0.5404  0.8190  0.2837
  112CHL1   C1614495   0.717   2.789  16.352 -0.3209  0.2245 -0.0508
  112CHL1  H16A14496   0.750   2.697  16.300  0.6084  1.0696 -0.9797
  112CHL1  H16B14497   0.627   2.838  16.308  1.5839  2.5907 -1.5267
  112CHL1   C1714498   0.822   2.903  16.366 -0.2804 -0.5386  0.1864
  112CHL1   H1714499   0.761   2.995  16.376 -0.1920 -0.6546  2.1500
  112CHL1   C1314500   0.904   2.883  16.499  0.4116 -0.1234 -0.5436
  112CHL1   C1814501   1.006   2.772  16.482  0.1911 -0.2848 -0.2020
  112CHL1  H18A14502   0.960   2.688  16.424  0.0301 -0.2067 -0.1901
  112CHL1  H18B14503   1.094   2.808  16.425 -0.1605  0.1046 -0.5060
  112CHL1  H18C14504   1.050   2.732  16.576 -1.5695 -0.1520  0.7283
  112CHL1   C1214505   0.966   3.013  16.575  0.7736 -0.5576  1.2050
  112CHL1  H12A14506   1.052   3.056  16.521 -0.1838 -0.5631 -0.3886
  112CHL1  H12B14507   0.882   3.085  16.568 -0.8656 -2.5426 -2.4760
  112CHL1   C1114508   0.996   2.991  16.721  0.0275  0.0118  0.7518
  112CHL1  H11A14509   1.090   2.932  16.717  0.5226  0.7227  1.5710
  112CHL1  H11B14510   1.017   3.090  16.766  1.2687  0.5274 -0.8705
  112CHL1    C914511   0.882   2.915  16.800 -0.0223 -0.8022 -0.7200
  112CHL1    H914512   0.800   2.989  16.812  1.9261  1.3885 -0.3406
  112CHL1   C1014513   0.922   2.882  16.950  0.4805 -0.7019  0.0762
  112CHL1   C1914514   1.067   2.827  16.968  0.2257  0.0114 -0.1196
  112CHL1  H19A14515   1.081   2.768  16.875 -0.9911  1.3305 -1.1890
  112CHL1  H19B14516   1.146   2.906  16.960  0.1564  0.2625  1.3575
  112CHL1  H19C14517   1.087   2.771  17.062 -0.4866  0.0883  0.0765
  112CHL1    C114518   0.892   3.009  17.039  0.3555 -0.3011 -0.5094
  112CHL1   H1A14519   0.957   3.088  16.997 -0.4647  0.5789 -0.1690
  112CHL1   H1B14520   0.785   3.040  17.030  0.5580  1.3151  1.6826
  112CHL1    C214521   0.901   2.989  17.187  0.3316 -0.2713 -0.2819
  112CHL1   H2A14522   0.880   3.087  17.233  1.4271  0.5511 -1.4450
  112CHL1   H2B14523   1.006   2.966  17.216  0.1476 -1.3342 -0.4268
  112CHL1   C2014524   0.907   2.922  16.233 -0.4995  0.4791 -0.2911
  112CHL1   H2014525   0.968   2.831  16.217  0.8299  1.2012  0.4912
  112CHL1   C2114526   0.991   3.050  16.245 -0.2885  0.7137 -0.1092
  112CHL1  H21A14527   1.028   3.084  16.146  0.4400 -2.1334 -0.8947
  112CHL1  H21B14528   1.073   3.040  16.319  0.2290  1.3533 -0.5898
  112CHL1  H21C14529   0.924   3.124  16.294 -0.9026 -1.3185  2.3678
  112CHL1   C2214530   0.815   2.936  16.106  0.5822  0.5658 -0.1795
  112CHL1  H22A14531   0.734   2.860  16.114  0.3817  0.8509  0.5110
  112CHL1  H22B14532   0.762   3.032  16.122 -0.7889 -0.0817 -0.6102
  112CHL1   C2314533   0.876   2.957  15.965 -0.1733 -0.2204  0.3130
  112CHL1  H23A14534   0.919   3.060  15.960  0.0001 -0.3409 -1.7435
  112CHL1  H23B14535   0.970   2.900  15.949  1.5154  2.1988  0.9795
  112CHL1   C2414536   0.770   2.931  15.861  0.5929 -0.6381 -0.2948
  112CHL1  H24A14537   0.738   2.825  15.847  1.8733 -1.0894  0.0314
  112CHL1  H24B14538   0.683   2.993  15.893 -0.0120 -1.8312  0.4549
  112CHL1   C2514539   0.826   2.966  15.724 -0.0907 -0.2170 -0.0256
  112CHL1   H2514540   0.911   2.896  15.710 -0.8536 -1.2200  0.2312
  112CHL1   C2614541   0.721   2.932  15.621 -1.1034 -0.5281  0.1762
  112CHL1  H26A14542   0.694   2.825  15.634 -0.8025 -0.4986  1.1448
  112CHL1  H26B14543   0.634   3.001  15.630 -0.1467  0.6676  0.5387
  112CHL1  H26C14544   0.759   2.927  15.517 -1.4591  1.4943 -0.0937
  112CHL1   C2714545   0.869   3.107  15.691  0.3981  0.5969 -0.2960
  112CHL1  H27A14546   0.917   3.149  15.782 -1.4234 -0.9349  1.4547
  112CHL1  H27B14547   0.931   3.125  15.600  1.0239 -0.2038 -0.0365
  112CHL1  H27C14548   0.778   3.170  15.681 -1.0938 -0.9677  2.3031
  113CHL1    C314549   4.406   6.215  17.083  0.3695 -1.2787 -0.2191
  113CHL1    H314550   4.466   6.122  17.095 -0.0636 -1.5960 -0.4885
  113CHL1    O314551   4.382   6.267  17.214  0.3710  0.4209 -0.1373
  113CHL1   H3'14552   4.337   6.200  17.266 -0.0340  0.8966  0.1312
  113CHL1    C414553   4.478   6.311  16.984 -0.2245  0.0382 -0.7487
  113CHL1   H4A14554   4.440   6.414  17.002 -0.9436 -0.2683 -0.4909
  113CHL1   H4B14555   4.583   6.325  17.018 -0.5996  0.7047  0.1660
  113CHL1    C514556   4.480   6.278  16.836 -0.5122  0.5215 -0.5420
  113CHL1    C614557   4.591   6.284  16.757 -0.5978  0.1697  0.7569
  113CHL1    H614558   4.681   6.331  16.798  0.3643 -1.4776  0.6550
  113CHL1    C714559   4.585   6.245  16.611 -0.3588 -0.5575 -0.6371
  113CHL1   H7A14560   4.665   6.303  16.560 -0.9878  0.9396 -0.0047
  113CHL1   H7B14561   4.610   6.137  16.607  1.9708 -0.1835  1.6503
  113CHL1    C814562   4.443   6.251  16.546 -0.1051  0.5949 -0.7740
  113CHL1    H814563   4.417   6.358  16.533  1.4539  0.9220 -1.5674
  113CHL1   C1414564   4.446   6.184  16.406  0.7667 -0.1580 -0.3629
  113CHL1   H1414565   4.460   6.079  16.438 -0.3635  0.0759  0.9812
  113CHL1   C1514566   4.560   6.235  16.308  0.8721 -0.5184 -0.1211
  113CHL1  H15A14567   4.573   6.345  16.321 -0.1037 -0.2052 -1.5851
  113CHL1  H15B14568   4.660   6.196  16.339  1.1977  0.9980  0.8980
  113CHL1   C1614569   4.508   6.182  16.172  0.6355 -0.4416 -0.1330
  113CHL1  H16A14570   4.497   6.276  16.114 -3.0769  0.8328  2.2871
  113CHL1  H16B14571   4.591   6.117  16.136  0.3838 -0.3205 -0.9401
  113CHL1   C1714572   4.364   6.114  16.198 -0.7630  0.1573  0.0697
  113CHL1   H1714573   4.391   6.008  16.217 -1.7038 -0.3102 -1.0613
  113CHL1   C1314574   4.318   6.176  16.330  0.0723  0.5939 -0.6202
  113CHL1   C1814575   4.263   6.317  16.296 -0.1897 -0.1607 -0.1158
  113CHL1  H18A14576   4.158   6.314  16.260 -0.2895  0.6959  0.0899
  113CHL1  H18B14577   4.256   6.384  16.384  0.0809 -0.9130  0.4981
  113CHL1  H18C14578   4.327   6.363  16.218  0.4226 -0.5284  0.1502
  113CHL1   C1214579   4.219   6.098  16.425 -0.1180  0.1870 -0.5594
  113CHL1  H12A14580   4.123   6.105  16.371 -0.0120  0.3843 -0.7239
  113CHL1  H12B14581   4.235   5.988  16.430 -0.5934  0.0396 -1.8404
  113CHL1   C1114582   4.209   6.164  16.569 -0.7731  0.4653 -0.2088
  113CHL1  H11A14583   4.152   6.258  16.549 -3.2854 -1.0312 -0.5413
  113CHL1  H11B14584   4.139   6.102  16.630 -0.4991 -0.7377 -1.0852
  113CHL1    C914585   4.345   6.180  16.636  0.3906  0.6085  0.2538
  113CHL1    H914586   4.390   6.079  16.646  2.5900  1.4552 -0.3971
  113CHL1   C1014587   4.344   6.240  16.782  0.6816  0.1546  0.4636
  113CHL1   C1914588   4.246   6.364  16.780 -0.4824 -0.4899  0.5407
  113CHL1  H19A14589   4.281   6.441  16.708 -3.3904  0.3658 -0.1226
  113CHL1  H19B14590   4.140   6.336  16.760 -0.8304  0.2294  1.3368
  113CHL1  H19C14591   4.235   6.426  16.871 -0.2887  0.2097  0.1009
  113CHL1    C114592   4.282   6.130  16.875  0.3630  0.2286 -0.0425
  113CHL1   H1A14593   4.184   6.103  16.830  1.2857 -1.6234 -1.0614
  113CHL1   H1B14594   4.347   6.040  16.868 -1.2372 -0.9883  0.0381
  113CHL1    C214595   4.271   6.169  17.025 -0.4043  0.1836  0.3538
  113CHL1   H2A14596   4.220   6.090  17.085 -0.0893  0.6746  1.2894
  113CHL1   H2B14597   4.199   6.253  17.023 -1.4524 -0.7119 -1.2876
  113CHL1   C2014598   4.275   6.118  16.070  0.0501  0.7243 -0.1785
  113CHL1   H2014599   4.241   6.222  16.049  0.1828  0.6468 -0.7925
  113CHL1   C2114600   4.144   6.026  16.100  1.0645 -0.6271 -0.4560
  113CHL1  H21A14601   4.186   5.935  16.147 -0.0343 -1.3394 -0.8171
  113CHL1  H21B14602   4.091   5.996  16.008 -1.1440 -2.1898  1.2262
  113CHL1  H21C14603   4.084   6.094  16.164 -0.5253  0.5798 -3.0681
  113CHL1   C2214604   4.345   6.071  15.937 -0.1899  0.3256  0.3651
  113CHL1  H22A14605   4.449   6.110  15.936  0.1346 -0.4915  0.9845
  113CHL1  H22B14606   4.346   5.962  15.918 -0.2646  0.1332  1.3729
  113CHL1   C2314607   4.258   6.127  15.823 -0.0646  0.3798 -0.0882
  113CHL1  H23A14608   4.158   6.079  15.815  0.3851 -0.2382 -3.6329
  113CHL1  H23B14609   4.240   6.233  15.852 -2.6516 -0.3899  1.4628
  113CHL1   C2414610   4.317   6.106  15.689 -0.2302 -0.7954  0.1631
  113CHL1  H24A14611   4.405   6.172  15.675  0.2616 -1.5694 -0.4704
  113CHL1  H24B14612   4.350   6.000  15.682  0.2636 -0.6113 -0.3948
  113CHL1   C2514613   4.219   6.137  15.575  0.2982 -0.0661  0.1063
  113CHL1   H2514614   4.119   6.089  15.586 -0.0077 -0.0645 -2.2745
  113CHL1   C2614615   4.193   6.290  15.558  0.1780 -0.1851 -0.0235
  113CHL1  H26A14616   4.125   6.302  15.471 -0.2646 -0.8828  0.2133
  113CHL1  H26B14617   4.144   6.337  15.646  0.2340  0.0537 -0.1197
  113CHL1  H26C14618   4.288   6.345  15.543 -0.1660 -0.0433 -1.9331
  113CHL1   C2714619   4.266   6.078  15.446 -1.0395  0.1341  0.4484
  113CHL1  H27A14620   4.313   5.979  15.465 -0.3058 -0.1883 -2.5109
  113CHL1  H27B14621   4.182   6.062  15.374 -2.0828 -0.3460  1.7208
  113CHL1  H27C14622   4.342   6.148  15.406  0.8826 -1.2806  1.5151
  114CHL1    C314623   0.484   1.023  17.056  0.3370  0.0580 -0.6638
  114CHL1    H314624   0.376   1.030  17.031  0.6157  1.2541 -1.6336
  114CHL1    O314625   0.509   1.037  17.196 -0.4365 -0.0096 -0.1248
  114CHL1   H3'14626   0.430   1.018  17.246 -1.3102 -0.3031 -1.5467
  114CHL1    C414627   0.542   0.887  17.012 -0.5328  0.2053  0.4623
  114CHL1   H4A14628   0.644   0.882  17.055 -0.3738  0.2255  0.0886
  114CHL1   H4B14629   0.489   0.808  17.070  0.0382  0.6389  1.6235
  114CHL1    C514630   0.559   0.863  16.863 -0.0714  0.1413  0.8096
  114CHL1    C614631   0.523   0.742  16.804 -0.1821  0.3681 -0.6743
  114CHL1    H614632   0.494   0.657  16.868  1.6072  1.1392  1.2853
  114CHL1    C714633   0.553   0.716  16.663  0.7308  0.6674  1.0964
  114CHL1   H7A14634   0.608   0.621  16.654 -0.8736 -0.2214  0.1656
  114CHL1   H7B14635   0.453   0.713  16.614  1.3024  0.0174 -0.0408
  114CHL1    C814636   0.638   0.818  16.587 -0.3475  0.2606  0.0574
  114CHL1    H814637   0.747   0.800  16.601 -0.6160  0.1730  2.4263
  114CHL1   C1414638   0.600   0.804  16.442  0.1427 -0.1040  0.7857
  114CHL1   H1414639   0.492   0.831  16.429  0.2986 -0.7424 -2.7537
  114CHL1   C1514640   0.591   0.662  16.380  0.5540 -0.0049  0.3180
  114CHL1  H15A14641   0.675   0.596  16.410  1.0373  0.8607  0.9089
  114CHL1  H15B14642   0.494   0.615  16.404 -0.1256  1.7987  1.3090
  114CHL1   C1614643   0.616   0.687  16.231  0.3483  0.0709 -0.4405
  114CHL1  H16A14644   0.711   0.639  16.200  0.1878  0.3626 -1.4257
  114CHL1  H16B14645   0.530   0.645  16.173  0.8314 -0.0689 -1.0717
  114CHL1   C1714646   0.616   0.847  16.214  0.4541  0.5269 -0.1447
  114CHL1   H1714647   0.509   0.878  16.213 -0.1761 -1.5249 -0.7040
  114CHL1   C1314648   0.673   0.898  16.348 -0.0102 -0.6069  0.4125
  114CHL1   C1814649   0.824   0.863  16.351  0.1756  0.9799  0.1020
  114CHL1  H18A14650   0.878   0.925  16.276  1.2509 -1.3467 -1.1817
  114CHL1  H18B14651   0.864   0.885  16.452  0.8000  0.3231  0.0120
  114CHL1  H18C14652   0.840   0.753  16.339  0.6561  0.7197  2.6362
  114CHL1   C1214653   0.659   1.040  16.393  0.8088 -0.0223  0.2074
  114CHL1  H12A14654   0.727   1.114  16.346  0.9304  0.1271  0.6114
  114CHL1  H12B14655   0.557   1.066  16.359  1.0764 -0.1880 -0.7547
  114CHL1   C1114656   0.678   1.062  16.549  0.1230  0.1128  0.3173
  114CHL1  H11A14657   0.783   1.047  16.580 -0.8533 -1.7337  3.1705
  114CHL1  H11B14658   0.652   1.166  16.577 -2.8766 -0.6148  0.5548
  114CHL1    C914659   0.604   0.953  16.635 -0.3098 -0.2095  0.3138
  114CHL1    H914660   0.494   0.956  16.618 -0.3113 -1.1513  0.0953
  114CHL1   C1014661   0.620   0.977  16.785  0.4827 -0.1296 -0.0172
  114CHL1   C1914662   0.771   0.999  16.818 -0.1652 -0.8538  0.7707
  114CHL1  H19A14663   0.790   0.987  16.927  1.3350 -0.2439  0.6001
  114CHL1  H19B14664   0.824   0.915  16.769 -1.8013 -0.8936 -1.0570
  114CHL1  H19C14665   0.832   1.084  16.780  0.5750 -2.4982 -2.0174
  114CHL1    C114666   0.541   1.104  16.820 -1.0281 -0.1489 -0.1156
  114CHL1   H1A14667   0.595   1.191  16.776  0.7507  0.4142  2.8919
  114CHL1   H1B14668   0.437   1.092  16.784 -0.3761 -0.4041 -2.0071
  114CHL1    C214669   0.550   1.131  16.972 -0.6837  0.1416  0.3467
  114CHL1   H2A14670   0.502   1.229  16.991 -1.9808  0.1074 -2.2317
  114CHL1   H2B14671   0.657   1.151  16.996  0.1257 -2.8120 -0.3639
  114CHL1   C2014672   0.678   0.898  16.082  0.7007 -0.0973  0.4390
  114CHL1   H2014673   0.788   0.898  16.097  0.5648 -1.6215  1.6578
  114CHL1   C2114674   0.624   1.041  16.066  0.4583 -0.3603  0.1160
  114CHL1  H21A14675   0.634   1.110  16.152 -0.6240 -1.2995  1.0192
  114CHL1  H21B14676   0.515   1.034  16.046  0.0980  1.1262  1.3585
  114CHL1  H21C14677   0.662   1.091  15.974 -3.8516  1.3104 -1.0193
  114CHL1   C2214678   0.642   0.811  15.957 -0.4409 -0.8049  0.7176
  114CHL1  H22A14679   0.689   0.712  15.974 -2.9740 -1.9432  1.4933
  114CHL1  H22B14680   0.531   0.807  15.952 -0.5129  0.2614  1.1483
  114CHL1   C2314681   0.696   0.865  15.818  0.6223 -0.3464  0.4392
  114CHL1  H23A14682   0.648   0.962  15.792 -0.0922 -0.5890  0.8437
  114CHL1  H23B14683   0.803   0.890  15.837  0.6097 -0.9647  1.4064
  114CHL1   C2414684   0.680   0.765  15.706 -0.4176  0.0575 -0.4031
  114CHL1  H24A14685   0.703   0.662  15.744 -0.8245  1.0117  2.7689
  114CHL1  H24B14686   0.575   0.761  15.672 -1.0325 -0.5170  1.4390
  114CHL1   C2514687   0.769   0.776  15.580  0.3690  0.5475  0.7827
  114CHL1   H2514688   0.874   0.786  15.617  0.2683  0.4002  1.1097
  114CHL1   C2614689   0.742   0.647  15.488 -0.1238 -0.3301 -0.2651
  114CHL1  H26A14690   0.773   0.550  15.532  0.3425  0.3443  0.9393
  114CHL1  H26B14691   0.635   0.637  15.462 -0.5014 -0.9641  1.4148
  114CHL1  H26C14692   0.798   0.668  15.394  1.0895 -1.9423  0.0429
  114CHL1   C2714693   0.741   0.897  15.487  0.1252  0.5877 -0.0067
  114CHL1  H27A14694   0.769   0.986  15.547 -0.0682 -0.0765  1.0790
  114CHL1  H27B14695   0.796   0.891  15.390  1.4299 -0.5415  0.7641
  114CHL1  H27C14696   0.634   0.905  15.457 -0.0216 -1.8879 -0.4185
  115CHL1    C314697   5.640   2.075  17.070 -0.2861 -0.2829  0.2139
  115CHL1    H314698   5.736   2.125  17.046 -0.8987 -0.1234 -2.2164
  115CHL1    O314699   5.598   2.078  17.206  0.0743 -0.2934  0.2217
  115CHL1   H3'14700   5.505   2.057  17.195 -0.5203  2.0997  0.1217
  115CHL1    C414701   5.532   2.146  16.982  0.0092 -0.4213  0.4600
  115CHL1   H4A14702   5.434   2.093  16.988  0.0143 -0.7135 -1.4695
  115CHL1   H4B14703   5.509   2.247  17.022  0.8804 -0.5193  1.2473
  115CHL1    C514704   5.565   2.148  16.834 -0.4756  0.7101  0.0946
  115CHL1    C614705   5.567   2.254  16.761  0.2993 -0.4074 -0.4534
  115CHL1    H614706   5.547   2.351  16.808 -1.8084 -0.5490 -0.9564
  115CHL1    C714707   5.585   2.266  16.610  0.1000  0.1234 -0.4260
  115CHL1   H7A14708   5.509   2.330  16.560 -1.0307  0.2766  1.3639
  115CHL1   H7B14709   5.683   2.315  16.592  0.9111 -1.7487 -1.3150
  115CHL1    C814710   5.567   2.125  16.546 -0.0730 -0.4082 -0.0607
  115CHL1    H814711   5.457   2.110  16.546 -0.2959  0.7601 -2.2959
  115CHL1   C1414712   5.622   2.115  16.407 -0.4754 -0.2096  0.3025
  115CHL1   H1414713   5.732   2.131  16.402 -0.4545  0.4392  2.0370
  115CHL1   C1514714   5.570   2.223  16.321  0.1404  0.6779  0.6338
  115CHL1  H15A14715   5.461   2.247  16.316 -0.6451 -2.6301 -2.5201
  115CHL1  H15B14716   5.619   2.322  16.330 -1.7554  1.9521 -1.8089
  115CHL1   C1614717   5.597   2.169  16.174  0.8937  0.1442 -0.6479
  115CHL1  H16A14718   5.501   2.179  16.120 -0.7998 -1.4101  1.8409
  115CHL1  H16B14719   5.678   2.231  16.129  0.9299 -0.4792 -1.4743
  115CHL1   C1714720   5.637   2.017  16.190 -0.1339  0.3464  0.5874
  115CHL1   H1714721   5.747   2.027  16.197  0.0491 -2.1183  2.7101
  115CHL1   C1314722   5.596   1.980  16.334 -0.1257  0.0523 -0.5140
  115CHL1   C1814723   5.448   1.944  16.337 -0.3263 -0.2125 -0.1356
  115CHL1  H18A14724   5.390   2.020  16.280 -0.1251  2.8054  3.3491
  115CHL1  H18B14725   5.435   1.846  16.287 -0.4330 -1.0308  1.4413
  115CHL1  H18C14726   5.412   1.935  16.442  0.2135  0.3694  0.1071
  115CHL1   C1214727   5.684   1.874  16.413  0.5753 -0.4126  0.2539
  115CHL1  H12A14728   5.660   1.773  16.374 -2.2048  0.0057  0.7187
  115CHL1  H12B14729   5.792   1.897  16.399  0.8024 -0.4622  1.7187
  115CHL1   C1114730   5.645   1.876  16.561  0.4850 -0.5046  0.3623
  115CHL1  H11A14731   5.547   1.824  16.563 -0.1923  0.5592 -2.0248
  115CHL1  H11B14732   5.715   1.808  16.615  0.7785 -0.0997  0.5021
  115CHL1    C914733   5.641   2.015  16.629  0.3303  0.6620 -0.2290
  115CHL1    H914734   5.745   2.053  16.633 -0.1287  2.1723 -1.5316
  115CHL1   C1014735   5.580   2.005  16.775  0.5429 -0.4302 -0.0822
  115CHL1   C1914736   5.434   1.942  16.771  0.1479 -0.0152 -0.3526
  115CHL1  H19A14737   5.365   1.994  16.701 -1.6470 -1.1786  0.4802
  115CHL1  H19B14738   5.453   1.838  16.737  1.5051  0.0623  0.0967
  115CHL1  H19C14739   5.380   1.940  16.868  2.9484  2.4840  1.4281
  115CHL1    C114740   5.663   1.914  16.873  0.8331  0.1956 -0.7859
  115CHL1   H1A14741   5.628   1.810  16.856  0.3109  0.0919  0.7937
  115CHL1   H1B14742   5.771   1.919  16.847  0.9123  0.0123 -0.4970
  115CHL1    C214743   5.644   1.926  17.025 -0.7332 -0.4895  0.5812
  115CHL1   H2A14744   5.711   1.869  17.093 -0.6402 -1.1363 -0.0430
  115CHL1   H2B14745   5.545   1.883  17.053 -0.5340 -0.1335  1.9357
  115CHL1   C2014746   5.593   1.930  16.074  0.1722 -0.1241  0.3760
  115CHL1   H2014747   5.483   1.922  16.074  0.3219 -4.6764  0.6022
  115CHL1   C2114748   5.642   1.786  16.095  0.8952 -0.6338 -0.3024
  115CHL1  H21A14749   5.604   1.748  16.192  3.1408  1.3896  1.4784
  115CHL1  H21B14750   5.752   1.778  16.101  1.0178  1.2355  0.7327
  115CHL1  H21C14751   5.597   1.734  16.007  0.8130 -1.9346  0.4831
  115CHL1   C2214752   5.647   1.982  15.937 -0.1587  0.1831  0.7538
  115CHL1  H22A14753   5.612   1.916  15.855  2.0248  1.5125 -1.3827
  115CHL1  H22B14754   5.603   2.081  15.911  0.0753 -0.2217 -1.3066
  115CHL1   C2314755   5.801   1.982  15.920  1.0567 -0.1214 -0.0182
  115CHL1  H23A14756   5.856   2.036  16.000  1.8161 -0.8345 -0.0413
  115CHL1  H23B14757   5.836   1.876  15.920 -1.3010 -0.9665 -0.5015
  115CHL1   C2414758   5.855   2.024  15.784 -0.0383  0.1759 -0.2614
  115CHL1  H24A14759   5.833   2.131  15.763  2.0494  0.5538 -0.7147
  115CHL1  H24B14760   5.966   2.025  15.787  0.1447  4.3440 -1.6966
  115CHL1   C2514761   5.802   1.930  15.669 -0.7150 -0.6603  0.0380
  115CHL1   H2514762   5.698   1.894  15.683 -0.9734  0.5340  1.4728
  115CHL1   C2614763   5.804   2.010  15.540 -0.1170  0.1974 -0.2809
  115CHL1  H26A14764   5.908   2.030  15.507 -0.3535  0.7543 -0.7036
  115CHL1  H26B14765   5.751   1.954  15.460 -0.7598  0.3084  0.0631
  115CHL1  H26C14766   5.755   2.109  15.541  0.4754  0.4926  0.5973
  115CHL1   C2714767   5.892   1.809  15.648  0.7220 -0.9296  0.8133
  115CHL1  H27A14768   5.910   1.761  15.747 -0.0920 -1.0261  0.9239
  115CHL1  H27B14769   5.848   1.750  15.565  0.3034  0.1223  0.2706
  115CHL1  H27C14770   5.996   1.835  15.620  0.4591 -1.4121 -0.6554
  116CHL1    C314771   5.650   2.390  17.333 -0.2939 -1.0817  0.1830
  116CHL1    H314772   5.598   2.309  17.277 -0.5654  0.1107 -1.3572
  116CHL1    O314773   5.636   2.374  17.476 -0.4108  0.4218 -0.0445
  116CHL1   H3'14774   5.715   2.413  17.515 -0.7720 -0.2168  1.4144
  116CHL1    C414775   5.800   2.405  17.303  0.0076  0.2918  0.5097
  116CHL1   H4A14776   5.841   2.489  17.363  0.2412  2.3310 -2.3661
  116CHL1   H4B14777   5.854   2.314  17.340 -0.1150 -1.1652 -2.6007
  116CHL1    C514778   5.828   2.423  17.157 -0.7341  0.0510  0.5336
  116CHL1    C614779   5.916   2.342  17.086  0.2852 -0.1295  0.3707
  116CHL1    H614780   5.964   2.254  17.130 -0.3869 -2.5843 -3.4006
  116CHL1    C714781   5.952   2.373  16.947 -0.1287 -0.0618  0.6182
  116CHL1   H7A14782   6.063   2.374  16.939 -0.1651 -1.1038 -0.3822
  116CHL1   H7B14783   5.920   2.292  16.878  0.0577  0.3820 -0.0012
  116CHL1    C814784   5.909   2.505  16.888 -0.1776  0.5304  0.3192
  116CHL1    H814785   5.985   2.582  16.913 -0.5415  1.5428 -1.5654
  116CHL1   C1414786   5.908   2.493  16.735 -0.4191  0.9445  0.4220
  116CHL1   H1414787   5.838   2.410  16.709  3.4703 -1.8897 -2.0169
  116CHL1   C1514788   6.045   2.454  16.670  0.2939  0.0926 -0.4581
  116CHL1  H15A14789   6.137   2.499  16.712 -1.9690  3.4028  1.4271
  116CHL1  H15B14790   6.056   2.343  16.678  1.1167  0.1777 -0.2923
  116CHL1   C1614791   6.028   2.512  16.526  0.2620 -0.5797 -0.1003
  116CHL1  H16A14792   6.124   2.560  16.498 -0.1055  0.5237  0.4727
  116CHL1  H16B14793   6.024   2.431  16.449 -0.7358 -1.1572  0.5372
  116CHL1   C1714794   5.891   2.577  16.522  0.2109  0.3096  0.2492
  116CHL1   H1714795   5.815   2.497  16.510 -0.0035  0.4222  0.8210
  116CHL1   C1314796   5.869   2.624  16.668 -0.1280  0.8216  0.3630
  116CHL1   C1814797   5.972   2.739  16.698 -0.3570 -0.1409 -0.3633
  116CHL1  H18A14798   5.966   2.755  16.808 -0.3669 -1.7144 -0.1067
  116CHL1  H18B14799   6.080   2.727  16.675  0.4648  0.4123  2.7817
  116CHL1  H18C14800   5.932   2.830  16.649  1.8025  1.4191  0.6164
  116CHL1   C1214801   5.723   2.664  16.716 -0.0260 -0.0411  0.4163
  116CHL1  H12A14802   5.684   2.761  16.677  0.6909 -0.1839 -0.6816
  116CHL1  H12B14803   5.659   2.579  16.683 -2.1265  1.2973  0.8210
  116CHL1   C1114804   5.717   2.677  16.865  0.7408  0.1203 -0.3690
  116CHL1  H11A14805   5.763   2.766  16.914  0.4954 -0.0858  0.2546
  116CHL1  H11B14806   5.612   2.702  16.893  1.4475  2.8281  0.1630
  116CHL1    C914807   5.771   2.553  16.936 -0.0625 -0.2556 -0.1099
  116CHL1    H914808   5.698   2.477  16.903  0.2568 -0.1367 -1.1301
  116CHL1   C1014809   5.754   2.546  17.097  0.2249  0.3347  0.3787
  116CHL1   C1914810   5.819   2.670  17.151  0.0929 -0.5149  0.3328
  116CHL1  H19A14811   5.775   2.763  17.110 -1.4741 -1.1431  0.5294
  116CHL1  H19B14812   5.812   2.686  17.260 -0.7833 -2.7999  0.6546
  116CHL1  H19C14813   5.927   2.674  17.125 -0.2880 -0.9431 -1.4551
  116CHL1    C114814   5.602   2.538  17.141 -0.2082  0.1608 -0.1767
  116CHL1   H1A14815   5.551   2.631  17.110 -0.2640  1.1936  2.7366
  116CHL1   H1B14816   5.557   2.451  17.088 -0.9250  1.0270 -1.0311
  116CHL1    C214817   5.576   2.524  17.291 -0.0739  0.0018  0.5474
  116CHL1   H2A14818   5.469   2.507  17.316  0.3332  0.2028  2.6415
  116CHL1   H2B14819   5.609   2.612  17.349  2.0957 -0.6678  0.4059
  116CHL1   C2014820   5.874   2.681  16.412  0.1137 -0.5223  0.1496
  116CHL1   H2014821   5.948   2.763  16.418 -0.5163  0.0581  0.1494
  116CHL1   C2114822   5.734   2.747  16.409 -0.9148 -0.0926 -0.1245
  116CHL1  H21A14823   5.731   2.798  16.311  1.6643 -1.1234 -0.8172
  116CHL1  H21B14824   5.722   2.814  16.497  0.3441  0.2719 -0.2242
  116CHL1  H21C14825   5.660   2.664  16.404 -0.1907 -0.7001 -0.8997
  116CHL1   C2214826   5.916   2.628  16.272  0.7674 -0.0040 -0.4056
  116CHL1  H22A14827   5.894   2.699  16.189 -1.5457 -1.1334 -0.8385
  116CHL1  H22B14828   6.024   2.608  16.290  0.1590 -1.9357  1.5100
  116CHL1   C2314829   5.834   2.504  16.223  0.6702  0.1845 -0.6954
  116CHL1  H23A14830   5.859   2.433  16.305  0.7344  0.1146 -0.7764
  116CHL1  H23B14831   5.724   2.521  16.222  0.2389 -2.1216  0.3260
  116CHL1   C2414832   5.872   2.451  16.088  0.1468  0.5801 -0.6736
  116CHL1  H24A14833   5.806   2.367  16.056  1.6337 -0.2485 -1.7457
  116CHL1  H24B14834   5.852   2.528  16.010 -0.8796 -0.3421 -1.3560
  116CHL1   C2514835   6.018   2.409  16.073  0.2519 -0.2765 -0.5561
  116CHL1   H2514836   6.078   2.492  16.116 -2.1645  1.2342  0.0954
  116CHL1   C2614837   6.065   2.280  16.150  0.4438 -0.2539 -0.0616
  116CHL1  H26A14838   6.004   2.193  16.115  0.8836 -0.1388 -1.1494
  116CHL1  H26B14839   6.169   2.256  16.122  0.0193 -1.8267 -0.3773
  116CHL1  H26C14840   6.055   2.302  16.258 -0.1768  0.5128 -0.2618
  116CHL1   C2714841   6.057   2.392  15.926 -0.2062  0.0719 -0.4876
  116CHL1  H27A14842   6.019   2.300  15.876  0.9906 -0.1532 -1.0293
  116CHL1  H27B14843   6.023   2.486  15.876 -0.9973  0.9594  1.6356
  116CHL1  H27C14844   6.167   2.397  15.908 -0.5252  2.3469 -2.3590
  117CHL1    C314845   0.152   2.539  17.027  0.4667  0.8551  0.9532
  117CHL1    H314846   0.047   2.504  17.013  0.5903 -0.0174  2.0001
  117CHL1    O314847   0.180   2.556  17.164 -1.0095 -0.1929  0.6101
  117CHL1   H3'14848   0.273   2.581  17.165 -1.0416  0.0369 -0.5526
  117CHL1    C414849   0.249   2.452  16.951 -0.7455  0.3034 -0.3936
  117CHL1   H4A14850   0.345   2.505  16.968 -1.6913  2.0514 -0.2552
  117CHL1   H4B14851   0.258   2.351  16.995  0.1018 -0.1660 -1.5814
  117CHL1    C514852   0.225   2.438  16.801  0.6065 -0.2434 -0.8550
  117CHL1    C614853   0.196   2.319  16.744  0.9046  0.4824 -0.3041
  117CHL1    H614854   0.189   2.225  16.800 -2.2940 -0.7364 -2.4552
  117CHL1    C714855   0.175   2.295  16.595 -0.3871  0.2415  0.4955
  117CHL1   H7A14856   0.237   2.209  16.562 -0.8716  0.6973 -1.7172
  117CHL1   H7B14857   0.070   2.267  16.572 -0.5775  2.2679 -1.4078
  117CHL1    C814858   0.203   2.427  16.507 -0.6329  0.9191 -0.1307
  117CHL1    H814859   0.313   2.439  16.500 -0.3530 -0.2360  1.7258
  117CHL1   C1414860   0.133   2.414  16.371  0.9286 -0.2598 -0.1640
  117CHL1   H1414861   0.023   2.409  16.391  1.0915  0.3171  0.9640
  117CHL1   C1514862   0.164   2.283  16.289  0.1722  0.8871 -0.1617
  117CHL1  H15A14863   0.271   2.254  16.293 -0.1991 -0.4323  1.9789
  117CHL1  H15B14864   0.097   2.199  16.318  0.7122  0.2716 -0.6842
  117CHL1   C1614865   0.118   2.334  16.149 -0.3994  0.3378  0.7505
  117CHL1  H16A14866   0.204   2.333  16.078 -0.7523 -0.0710  0.3226
  117CHL1  H16B14867   0.038   2.274  16.100  0.1604 -0.8917  1.3038
  117CHL1   C1714868   0.070   2.478  16.155 -0.5438  0.1312  0.2695
  117CHL1   H1714869  -0.040   2.473  16.169 -0.4961 -0.1774  0.5570
  117CHL1   C1314870   0.146   2.538  16.281  0.0488 -0.5793  0.8965
  117CHL1   C1814871   0.300   2.558  16.243 -0.0868  0.5831 -0.3220
  117CHL1  H18A14872   0.340   2.466  16.195 -2.5159 -1.0625  0.6397
  117CHL1  H18B14873   0.319   2.641  16.171  0.3560 -1.8208 -3.1270
  117CHL1  H18C14874   0.371   2.577  16.328  0.3246  1.3880 -0.8321
  117CHL1   C1214875   0.084   2.661  16.355 -0.2369 -0.0098  0.4834
  117CHL1  H12A14876   0.117   2.754  16.306 -0.0618  1.0628  2.5211
  117CHL1  H12B14877  -0.027   2.653  16.360 -0.1055 -2.1567  1.2670
  117CHL1   C1114878   0.153   2.675  16.490 -0.0385  0.0659 -0.5937
  117CHL1  H11A14879   0.259   2.697  16.468  0.0194 -0.2022 -0.5847
  117CHL1  H11B14880   0.108   2.764  16.540 -2.1933 -0.4227 -1.5284
  117CHL1    C914881   0.149   2.547  16.585  0.0125  0.2232  0.1002
  117CHL1    H914882   0.039   2.533  16.587 -0.1958  1.2579 -1.7275
  117CHL1   C1014883   0.217   2.573  16.725 -0.4392  0.7245 -0.0781
  117CHL1   C1914884   0.363   2.622  16.712  0.6629 -0.1816 -0.2674
  117CHL1  H19A14885   0.420   2.615  16.807  1.2974  3.6133 -0.2173
  117CHL1  H19B14886   0.408   2.576  16.622  2.6689  1.9736 -0.4721
  117CHL1  H19C14887   0.364   2.732  16.696 -0.7889 -0.4222 -2.4168
  117CHL1    C114888   0.124   2.675  16.804 -0.1106 -0.3321  0.6388
  117CHL1   H1A14889   0.139   2.777  16.763 -0.2730  0.2792  2.0361
  117CHL1   H1B14890   0.016   2.650  16.792 -0.2218 -1.0076  2.6631
  117CHL1    C214891   0.158   2.677  16.953  0.5779 -0.2336 -0.2266
  117CHL1   H2A14892   0.091   2.753  16.998  0.0168 -1.0229  0.2879
  117CHL1   H2B14893   0.263   2.714  16.957  0.6863 -0.4892 -0.6157
  117CHL1   C2014894   0.101   2.545  16.020 -0.1746 -0.1093 -0.1209
  117CHL1   H2014895   0.210   2.538  15.999 -0.7997  0.1654 -4.0707
  117CHL1   C2114896   0.052   2.691  16.039 -0.1898  0.4193 -0.1796
  117CHL1  H21A14897   0.124   2.761  16.088  0.9788 -0.3279 -0.7683
  117CHL1  H21B14898  -0.046   2.700  16.089  0.2146 -1.2489  0.9801
  117CHL1  H21C14899   0.034   2.736  15.939  3.4628  2.5876 -0.0651
  117CHL1   C2214900   0.034   2.481  15.898  0.3098  0.3083  0.3176
  117CHL1  H22A14901   0.071   2.377  15.887 -1.7160 -0.3724 -0.5721
  117CHL1  H22B14902  -0.075   2.462  15.910  0.5167 -0.8954  0.4793
  117CHL1   C2314903   0.068   2.549  15.762  0.5703 -0.2560  0.0720
  117CHL1  H23A14904   0.010   2.643  15.756  1.1684  0.2081  1.1660
  117CHL1  H23B14905   0.176   2.573  15.748  0.3294  0.5339 -0.4402
  117CHL1   C2414906   0.025   2.461  15.649  0.2453 -0.1693  0.4926
  117CHL1  H24A14907   0.072   2.362  15.666 -1.3074 -0.6663  2.3572
  117CHL1  H24B14908  -0.085   2.440  15.648  0.2558 -0.3131 -1.4156
  117CHL1   C2514909   0.071   2.511  15.515  0.6984 -0.3006  0.1972
  117CHL1   H2514910   0.175   2.549  15.505 -0.1592  1.9455 -0.7268
  117CHL1   C2614911   0.058   2.387  15.419  0.0693 -0.5619  0.4824
  117CHL1  H26A14912  -0.045   2.358  15.391  0.0417 -1.9269  1.8831
  117CHL1  H26B14913   0.112   2.403  15.324  3.3758 -2.1817  1.9234
  117CHL1  H26C14914   0.111   2.297  15.457  1.8037 -0.2931 -1.1413
  117CHL1   C2714915  -0.017   2.635  15.476  0.2482  0.8557 -0.1962
  117CHL1  H27A14916   0.002   2.662  15.370  2.8191  2.5485  0.5902
  117CHL1  H27B14917  -0.122   2.627  15.510  0.2471  2.5150  0.2762
  117CHL1  H27C14918   0.025   2.725  15.526 -1.9195  2.2180 -0.7290
  118CHL1    C314919   3.092   4.187  17.248 -0.1299 -0.0580 -0.2065
  118CHL1    H314920   2.986   4.211  17.224  0.4621  1.1815 -1.8061
  118CHL1    O314921   3.126   4.215  17.385 -0.2160  0.6242  0.0396
  118CHL1   H3'14922   3.090   4.141  17.434  3.1537 -0.1829  1.5447
  118CHL1    C414923   3.118   4.044  17.211  0.2845  0.0678  0.2829
  118CHL1   H4A14924   3.224   4.020  17.237 -0.1550  0.0431  2.1980
  118CHL1   H4B14925   3.066   3.972  17.277 -0.0619 -2.0442 -2.1330
  118CHL1    C514926   3.089   4.009  17.066 -0.1921 -0.4246 -0.4973
  118CHL1    C614927   3.007   3.909  17.029 -0.1733  0.1906 -0.1383
  118CHL1    H614928   2.971   3.840  17.107  2.1184 -1.8935 -0.7678
  118CHL1    C714929   2.992   3.869  16.886 -0.0690 -0.0144 -1.1488
  118CHL1   H7A14930   3.014   3.761  16.885  2.2454  0.3873  0.2327
  118CHL1   H7B14931   2.891   3.891  16.844  0.5181  1.2200 -1.9833
  118CHL1    C814932   3.095   3.942  16.791  0.2278  0.6326  0.3096
  118CHL1    H814933   3.197   3.899  16.800 -0.8152 -1.8318  1.0604
  118CHL1   C1414934   3.046   3.930  16.648  0.0819  0.5668  0.2384
  118CHL1   H1414935   2.949   3.984  16.640 -0.1068  0.0165 -1.6989
  118CHL1   C1514936   3.008   3.792  16.593 -0.2354  0.0435  0.2623
  118CHL1  H15A14937   3.089   3.721  16.619 -1.2102 -0.6023  1.6550
  118CHL1  H15B14938   2.916   3.755  16.643  2.0534 -3.4310  2.3027
  118CHL1   C1614939   3.004   3.815  16.442  0.0585  0.4824 -0.1199
  118CHL1  H16A14940   3.056   3.737  16.384 -0.8641 -2.0756  2.2836
  118CHL1  H16B14941   2.898   3.800  16.413 -0.2456  1.4990  0.4161
  118CHL1   C1714942   3.045   3.968  16.415 -0.3224  0.6525 -0.2438
  118CHL1   H1714943   2.955   4.033  16.426  0.2237  1.6250 -1.3436
  118CHL1   C1314944   3.128   4.007  16.543  0.4312  0.3342 -0.1764
  118CHL1   C1814945   3.272   3.945  16.523 -0.2848 -0.4212 -0.4657
  118CHL1  H18A14946   3.323   3.958  16.621 -1.5309  0.1355  0.1305
  118CHL1  H18B14947   3.266   3.840  16.486  2.8387 -1.7580  2.2669
  118CHL1  H18C14948   3.325   4.009  16.449 -0.9863  1.3941  0.5406
  118CHL1   C1214949   3.137   4.156  16.577  0.4147  0.0985 -0.4420
  118CHL1  H12A14950   3.215   4.213  16.522  1.2306 -0.9354 -0.3692
  118CHL1  H12B14951   3.037   4.203  16.564  1.3786  2.0981 -0.9814
  118CHL1   C1114952   3.185   4.173  16.724 -0.8965 -0.0406  0.7787
  118CHL1  H11A14953   3.292   4.142  16.723 -1.2805 -1.4885  1.9664
  118CHL1  H11B14954   3.186   4.282  16.746  0.0877  0.1658 -0.1605
  118CHL1    C914955   3.108   4.093  16.829 -0.1020 -0.4695 -0.0953
  118CHL1    H914956   3.002   4.126  16.825  0.1560  0.2679 -1.4771
  118CHL1   C1014957   3.162   4.108  16.971 -0.4089 -0.0286 -0.0150
  118CHL1   C1914958   3.316   4.078  16.975 -0.7858  0.1285 -0.0637
  118CHL1  H19A14959   3.389   4.143  16.923  1.2187 -1.4203  0.6517
  118CHL1  H19B14960   3.357   4.074  17.078  2.1514  1.8548 -1.0535
  118CHL1  H19C14961   3.342   3.981  16.927  1.0254 -0.9444  2.7930
  118CHL1    C114962   3.142   4.255  17.016 -0.3448 -0.4049  0.2743
  118CHL1   H1A14963   3.201   4.321  16.949  0.1913 -1.1485 -0.0006
  118CHL1   H1B14964   3.034   4.272  16.994  0.0787 -0.7515 -2.4948
  118CHL1    C214965   3.175   4.278  17.162  0.0172 -0.1038  0.5362
  118CHL1   H2A14966   3.151   4.382  17.191 -1.3966 -0.4373  0.6647
  118CHL1   H2B14967   3.282   4.255  17.181  0.0881  0.1001  0.3848
  118CHL1   C2014968   3.087   3.984  16.265  0.3759  0.0400 -0.1481
  118CHL1   H2014969   3.179   3.924  16.245  0.8834  0.9421 -0.5875
  118CHL1   C2114970   3.116   4.135  16.240  0.1435  0.3014 -0.4525
  118CHL1  H21A14971   3.201   4.159  16.307 -0.0370 -1.1710  0.3522
  118CHL1  H21B14972   3.027   4.200  16.257 -1.0303 -1.2619 -0.3720
  118CHL1  H21C14973   3.147   4.154  16.135  0.9235  0.2949 -0.2291
  118CHL1   C2214974   2.975   3.920  16.173 -0.5553 -0.2083  0.6395
  118CHL1  H22A14975   2.922   3.836  16.222  1.5875 -1.5733  0.7264
  118CHL1  H22B14976   2.901   4.003  16.166 -0.0789  0.5906  3.5052
  118CHL1   C2314977   3.039   3.902  16.036  0.3145 -0.7485  0.4528
  118CHL1  H23A14978   3.104   3.989  16.014  2.3992 -1.1460  4.1896
  118CHL1  H23B14979   3.109   3.816  16.038  1.7642  0.3756  0.0652
  118CHL1   C2414980   2.935   3.889  15.924 -0.3282  0.1088  0.3647
  118CHL1  H24A14981   2.866   3.804  15.940  1.3093 -1.1938  0.8581
  118CHL1  H24B14982   2.883   3.986  15.913  1.1127  0.9945  1.0055
  118CHL1   C2514983   2.991   3.870  15.784 -0.4259 -1.0470 -0.1033
  118CHL1   H2514984   2.914   3.823  15.720 -1.1987 -1.3163  0.9885
  118CHL1   C2614985   3.042   4.002  15.724 -0.3914 -0.7072  0.3256
  118CHL1  H26A14986   2.954   4.071  15.726  0.0530 -0.0001 -1.7586
  118CHL1  H26B14987   3.127   4.032  15.789 -1.2346  1.7760  0.4015
  118CHL1  H26C14988   3.065   3.985  15.617 -1.8994  3.1155 -0.7903
  118CHL1   C2714989   3.109   3.762  15.781 -0.0771  0.2909  0.2289
  118CHL1  H27A14990   3.202   3.799  15.829  0.2062 -0.9024  0.6417
  118CHL1  H27B14991   3.060   3.670  15.820 -1.5722  1.3223  0.8964
  118CHL1  H27C14992   3.131   3.742  15.674 -0.3456  1.3970 -0.0480
  119CHL1    C314993   4.602   2.487  16.831 -0.2843 -0.9112  0.4095
  119CHL1    H314994   4.674   2.403  16.846 -0.4765 -0.8592  1.7892
  119CHL1    O314995   4.555   2.513  16.968  0.2530  0.1148  0.5169
  119CHL1   H3'14996   4.524   2.429  17.001  0.1718  0.7293  2.1064
  119CHL1    C414997   4.669   2.611  16.772  0.2967  0.8215  0.2544
  119CHL1   H4A14998   4.587   2.685  16.780 -1.0779 -0.3216 -2.2000
  119CHL1   H4B14999   4.757   2.629  16.838  0.6078  1.2832 -0.2735
  119CHL1    C515000   4.711   2.589  16.624  0.8500  0.6885 -0.4797
  119CHL1    C615001   4.837   2.612  16.578  0.0506  0.7014 -0.9052
  119CHL1    H615002   4.907   2.652  16.653  1.9362 -1.7713 -1.2087
  119CHL1    C715003   4.885   2.590  16.439 -0.6005  0.0374 -0.1801
  119CHL1   H7A15004   4.961   2.663  16.403  0.1564 -0.5938  0.1069
  119CHL1   H7B15005   4.940   2.495  16.428  1.2927  0.9994  0.5115
  119CHL1    C815006   4.761   2.590  16.339  0.1362 -0.2577  0.5555
  119CHL1    H815007   4.718   2.691  16.323 -0.7968 -0.8886 -1.2227
  119CHL1   C1415008   4.812   2.528  16.210 -0.0939 -0.5055 -0.4224
  119CHL1   H1415009   4.848   2.424  16.225 -0.0842 -0.6608 -1.4480
  119CHL1   C1515010   4.940   2.596  16.145 -0.7989 -0.7822 -0.9911
  119CHL1  H15A15011   4.940   2.707  16.150 -0.1312 -0.8505  1.4684
  119CHL1  H15B15012   5.033   2.559  16.193 -0.9130  0.3841  0.1744
  119CHL1   C1615013   4.929   2.557  16.000 -0.3029  1.1028  0.1743
  119CHL1  H16A15014   4.940   2.652  15.945  2.5226  1.2351  0.8296
  119CHL1  H16B15015   5.015   2.497  15.963 -0.7279  0.3827  0.3252
  119CHL1   C1715016   4.797   2.479  15.983  0.3456  0.3825  0.1264
  119CHL1   H1715017   4.834   2.376  16.002 -1.1933 -0.1006  0.7075
  119CHL1   C1315018   4.700   2.522  16.096  0.5487 -0.6564 -0.0958
  119CHL1   C1815019   4.656   2.663  16.072  0.3497 -0.0932 -0.0899
  119CHL1  H18A15020   4.585   2.662  15.987 -2.0657 -2.6349  1.8070
  119CHL1  H18B15021   4.590   2.704  16.152 -0.1581 -1.1014  0.0272
  119CHL1  H18C15022   4.736   2.733  16.039  0.1645 -0.0864 -0.5235
  119CHL1   C1215023   4.584   2.424  16.152 -0.3458 -0.9876 -0.5462
  119CHL1  H12A15024   4.500   2.422  16.080 -0.3640 -2.8874 -0.5103
  119CHL1  H12B15025   4.635   2.328  16.173  0.1477 -0.4099  1.0960
  119CHL1   C1115026   4.533   2.477  16.286 -0.2857  0.3343  0.9137
  119CHL1  H11A15027   4.478   2.572  16.269  0.4693  0.6958  0.4516
  119CHL1  H11B15028   4.463   2.396  16.314 -2.4170  1.6710 -0.2480
  119CHL1    C915029   4.647   2.499  16.391 -0.7530 -0.0535  0.2302
  119CHL1    H915030   4.701   2.403  16.403  2.0192  1.4977  0.9180
  119CHL1   C1015031   4.602   2.535  16.537 -0.1023 -0.1735  0.3289
  119CHL1   C1915032   4.501   2.648  16.525 -0.0134 -0.0929  0.6460
  119CHL1  H19A15033   4.412   2.618  16.465 -1.8627  2.6024  1.8737
  119CHL1  H19B15034   4.468   2.678  16.626  2.1882  1.4498  0.9844
  119CHL1  H19C15035   4.549   2.739  16.483 -0.1875 -0.3092 -0.0343
  119CHL1    C115036   4.544   2.411  16.601 -0.5318  0.4758  0.0212
  119CHL1   H1A15037   4.476   2.354  16.534  0.5538 -1.4632  0.4816
  119CHL1   H1B15038   4.625   2.334  16.604 -2.9377 -2.2260 -0.3707
  119CHL1    C215039   4.490   2.432  16.744 -0.2136  0.2940 -0.4023
  119CHL1   H2A15040   4.445   2.337  16.780 -1.7056  1.3650  0.6748
  119CHL1   H2B15041   4.413   2.513  16.747  0.2295  0.6890  0.9807
  119CHL1   C2015042   4.738   2.485  15.844 -0.4270  0.7235  0.1414
  119CHL1   H2015043   4.631   2.479  15.872 -0.2131  1.0468  1.0589
  119CHL1   C2115044   4.781   2.355  15.777 -0.5595 -0.1174  0.4325
  119CHL1  H21A15045   4.742   2.340  15.674 -0.5044 -1.5815  0.6010
  119CHL1  H21B15046   4.744   2.265  15.830 -0.2555 -0.0307  0.7962
  119CHL1  H21C15047   4.892   2.344  15.774 -0.3906  0.8289  1.9724
  119CHL1   C2215048   4.753   2.615  15.759  0.1685  0.6691 -0.8067
  119CHL1  H22A15049   4.749   2.708  15.819  0.4673  0.0803  0.1405
  119CHL1  H22B15050   4.858   2.615  15.722  0.0291  0.3198 -1.2126
  119CHL1   C2315051   4.660   2.616  15.643  0.3596 -0.6295 -0.1778
  119CHL1  H23A15052   4.688   2.542  15.565 -1.9118  1.2399 -2.9192
  119CHL1  H23B15053   4.560   2.589  15.684  0.2455 -0.2106 -0.1867
  119CHL1   C2415054   4.665   2.754  15.578 -0.7137 -0.4183 -0.0604
  119CHL1  H24A15055   4.605   2.823  15.641 -0.1147  1.0234 -1.0041
  119CHL1  H24B15056   4.771   2.783  15.561 -0.6839 -0.6004 -0.1919
  119CHL1   C2515057   4.592   2.746  15.444  0.1320  0.2571  0.1589
  119CHL1   H2515058   4.488   2.714  15.465 -0.5770  2.0388 -0.4535
  119CHL1   C2615059   4.569   2.890  15.395  0.6540 -0.1570  0.4841
  119CHL1  H26A15060   4.662   2.946  15.418  0.3202  0.5014  0.2507
  119CHL1  H26B15061   4.538   2.892  15.288 -0.5258 -0.3608  0.8006
  119CHL1  H26C15062   4.480   2.933  15.446  0.4169 -1.5817  1.3256
  119CHL1   C2715063   4.653   2.659  15.332  0.2064  0.5979  0.3927
  119CHL1  H27A15064   4.759   2.690  15.320  0.4057  0.1342  0.8790
  119CHL1  H27B15065   4.648   2.550  15.354  0.0289  0.6256  0.4950
  119CHL1  H27C15066   4.597   2.683  15.239  0.5497  0.9033  0.2639
  120CHL1    C315067   2.189   2.788  16.988 -0.9129  0.4352 -0.5584
  120CHL1    H315068   2.082   2.802  16.963 -1.0171 -1.2651 -1.1644
  120CHL1    O315069   2.219   2.789  17.128 -0.2188 -0.3619 -0.4865
  120CHL1   H3'15070   2.307   2.752  17.143  0.2437  0.5392 -0.8956
  120CHL1    C415071   2.229   2.648  16.933 -0.1242 -0.0072  0.4100
  120CHL1   H4A15072   2.334   2.626  16.962 -0.4833  0.0654  1.8598
  120CHL1   H4B15073   2.174   2.572  16.993  0.8218 -2.0193 -1.1903
  120CHL1    C515074   2.217   2.633  16.784 -0.2409 -0.6047  0.3107
  120CHL1    C615075   2.140   2.535  16.733  0.0181  0.6071  0.6105
  120CHL1    H615076   2.096   2.454  16.795  0.2891 -0.2702 -0.3174
  120CHL1    C715077   2.123   2.512  16.586  0.1549 -0.7056 -0.4628
  120CHL1   H7A15078   2.128   2.403  16.566  2.9548 -0.6674 -0.4396
  120CHL1   H7B15079   2.018   2.545  16.576  0.6532  1.8396  1.4656
  120CHL1    C815080   2.219   2.604  16.495  0.7575 -0.2205 -0.0013
  120CHL1    H815081   2.318   2.558  16.516  0.8938  0.6032  1.3112
  120CHL1   C1415082   2.176   2.608  16.349  0.7326  0.7629  0.4453
  120CHL1   H1415083   2.074   2.652  16.355  1.2777  2.5062 -1.9097
  120CHL1   C1515084   2.157   2.481  16.270 -0.3904 -0.1818  0.5006
  120CHL1  H15A15085   2.239   2.411  16.296 -0.4522  0.2843  2.0419
  120CHL1  H15B15086   2.067   2.420  16.293 -0.4720  0.4210  1.8399
  120CHL1   C1615087   2.143   2.525  16.123  0.4588 -0.4860 -0.2224
  120CHL1  H16A15088   2.215   2.467  16.060 -0.0521 -2.1021  0.6133
  120CHL1  H16B15089   2.038   2.516  16.087  1.1777 -0.4652 -2.4784
  120CHL1   C1715090   2.187   2.673  16.113 -0.0297 -0.6224 -0.2003
  120CHL1   H1715091   2.092   2.729  16.105  1.7325  2.3129 -4.0185
  120CHL1   C1315092   2.256   2.699  16.251  0.4731  1.2580 -0.5043
  120CHL1   C1815093   2.403   2.648  16.241  0.5496 -0.0561  0.5163
  120CHL1  H18A15094   2.411   2.540  16.216 -0.2936 -0.4751  1.9647
  120CHL1  H18B15095   2.461   2.712  16.171  0.6101  0.3870  0.9710
  120CHL1  H18C15096   2.451   2.659  16.340  0.3351  4.9565  0.2934
  120CHL1   C1215097   2.243   2.844  16.311 -0.2363  0.3746  0.3543
  120CHL1  H12A15098   2.301   2.919  16.254  1.0041 -0.4967  0.4305
  120CHL1  H12B15099   2.136   2.873  16.311 -0.3878 -0.1084  1.7160
  120CHL1   C1115100   2.290   2.852  16.457 -0.6181  0.2033  0.3822
  120CHL1  H11A15101   2.400   2.839  16.449 -0.7134 -2.1455  1.8304
  120CHL1  H11B15102   2.274   2.955  16.493  1.9034  0.6516  0.3746
  120CHL1    C915103   2.226   2.747  16.553  0.0818  0.0100  0.4275
  120CHL1    H915104   2.119   2.776  16.558 -0.5924 -2.1205 -0.3181
  120CHL1   C1015105   2.278   2.750  16.702 -0.6504  0.8731  0.3193
  120CHL1   C1915106   2.430   2.733  16.694  0.3090  0.2173  0.6148
  120CHL1  H19A15107   2.466   2.731  16.799 -0.7945  0.1394  1.0000
  120CHL1  H19B15108   2.469   2.642  16.643  1.3760 -0.1318  1.9884
  120CHL1  H19C15109   2.484   2.818  16.646  0.8462 -0.3619  0.1726
  120CHL1    C115110   2.252   2.888  16.768 -0.6497 -0.3793 -0.0805
  120CHL1   H1A15111   2.316   2.956  16.709  0.9556 -0.8974  0.9943
  120CHL1   H1B15112   2.149   2.911  16.734 -0.8859 -1.2720  0.0007
  120CHL1    C215113   2.283   2.891  16.921  0.4034  0.4194  0.1242
  120CHL1   H2A15114   2.254   2.996  16.946 -1.1036 -0.1976  1.0995
  120CHL1   H2B15115   2.391   2.876  16.942 -0.2505 -0.3743  3.3871
  120CHL1   C2015116   2.250   2.710  15.973 -0.4107  0.2279  0.0131
  120CHL1   H2015117   2.351   2.664  15.968 -0.2342  0.3861  1.5548
  120CHL1   C2115118   2.268   2.867  15.975 -1.3419  0.2124  0.2702
  120CHL1  H21A15119   2.340   2.904  16.052  0.3371 -1.2271 -0.5385
  120CHL1  H21B15120   2.176   2.929  15.983 -0.2196  1.9329  0.4940
  120CHL1  H21C15121   2.300   2.884  15.870 -2.3948 -0.8420 -0.2399
  120CHL1   C2215122   2.165   2.675  15.850  0.1230  0.3892 -0.0456
  120CHL1  H22A15123   2.096   2.590  15.870  1.1360 -0.5199 -0.3304
  120CHL1  H22B15124   2.097   2.755  15.814 -0.2427  0.5973  1.0805
  120CHL1   C2315125   2.260   2.639  15.731  0.1122 -0.5540 -0.5339
  120CHL1  H23A15126   2.306   2.736  15.701  1.2911 -0.9590 -0.0754
  120CHL1  H23B15127   2.339   2.572  15.770  0.5333  1.9244  3.4014
  120CHL1   C2415128   2.167   2.589  15.617 -0.1308  0.3213  0.5441
  120CHL1  H24A15129   2.107   2.503  15.655 -0.0989  0.0266 -0.0666
  120CHL1  H24B15130   2.101   2.671  15.582 -0.8922 -1.2912 -2.0714
  120CHL1   C2515131   2.240   2.548  15.489 -1.0445  0.1477  1.4116
  120CHL1   H2515132   2.317   2.625  15.466  0.0936 -0.6189  2.5338
  120CHL1   C2615133   2.301   2.404  15.500 -0.3158 -0.5452 -0.0105
  120CHL1  H26A15134   2.358   2.390  15.405 -0.3521 -1.5681  0.1087
  120CHL1  H26B15135   2.363   2.394  15.591  0.3549  0.5405 -0.3295
  120CHL1  H26C15136   2.218   2.329  15.495 -1.2810  0.5431 -2.5921
  120CHL1   C2715137   2.141   2.543  15.371 -0.5277 -0.1483 -0.0629
  120CHL1  H27A15138   2.193   2.500  15.282 -1.4393 -0.5243 -0.4200
  120CHL1  H27B15139   2.051   2.486  15.402  0.0857 -0.4819  1.2055
  120CHL1  H27C15140   2.110   2.642  15.334  0.9589  0.4453  0.1928
  121CHL1    C315141   0.115   6.003  13.672 -0.0221  0.7192 -0.4083
  121CHL1    H315142   0.130   5.894  13.689  1.1130  1.3637  3.9718
  121CHL1    O315143   0.130   6.024  13.536 -0.7593  0.3814 -0.0736
  121CHL1   H3'15144   0.153   6.117  13.539 -2.2438  0.7914 -0.5556
  121CHL1    C415145  -0.017   6.052  13.715  0.6287 -0.1743  0.2721
  121CHL1   H4A15146  -0.026   6.155  13.676 -1.2243  0.1503  1.4301
  121CHL1   H4B15147  -0.103   5.994  13.677  0.4717 -0.5662  1.1767
  121CHL1    C515148  -0.032   6.046  13.867  0.3427  0.5477  0.6259
  121CHL1    C615149  -0.132   5.978  13.924  1.1417  0.3681 -0.2143
  121CHL1    H615150  -0.213   5.935  13.862  0.8555 -0.6498  0.8356
  121CHL1    C715151  -0.161   5.964  14.073 -0.3481 -0.3983 -0.5881
  121CHL1   H7A15152  -0.266   5.985  14.104 -0.0157 -0.3507  0.5345
  121CHL1   H7B15153  -0.130   5.863  14.106 -0.1676 -0.1701 -0.0537
  121CHL1    C815154  -0.081   6.079  14.146  0.1440 -0.1758 -0.6903
  121CHL1    H815155  -0.131   6.177  14.128  1.4815  0.8510  0.8602
  121CHL1   C1415156  -0.078   6.058  14.296  0.0343 -0.2388  0.3000
  121CHL1   H1415157  -0.031   5.958  14.307 -0.4045 -0.7155 -1.7999
  121CHL1   C1515158  -0.222   6.049  14.356 -0.1665  0.2205 -0.1468
  121CHL1  H15A15159  -0.285   6.134  14.321 -1.2112 -0.5885 -0.3186
  121CHL1  H15B15160  -0.272   5.951  14.340  0.0123  0.2651 -1.0536
  121CHL1   C1615161  -0.187   6.050  14.509  0.7126  0.1786  0.7357
  121CHL1  H16A15162  -0.255   6.125  14.555 -3.9979 -1.9933 -2.0468
  121CHL1  H16B15163  -0.207   5.951  14.555 -0.4621  0.3778  0.6787
  121CHL1   C1715164  -0.032   6.099  14.522  0.0305 -0.0470 -0.1144
  121CHL1   H1715165   0.034   6.014  14.551  1.6942  0.0771 -3.0986
  121CHL1   C1315166   0.002   6.149  14.381  0.2907  0.0229  0.2308
  121CHL1   C1815167  -0.054   6.295  14.355  0.0040 -0.6453  0.3512
  121CHL1  H18A15168  -0.003   6.369  14.420  1.4545 -1.0434 -0.2844
  121CHL1  H18B15169  -0.041   6.327  14.250 -0.5742 -0.3910  0.3515
  121CHL1  H18C15170  -0.163   6.290  14.376 -0.2900  0.3220 -0.8399
  121CHL1   C1215171   0.146   6.132  14.334 -0.3752  0.2865 -0.4488
  121CHL1  H12A15172   0.222   6.193  14.387  0.2798 -0.5673 -0.3849
  121CHL1  H12B15173   0.181   6.030  14.360  3.2034  1.5718  0.2683
  121CHL1   C1115174   0.169   6.160  14.180 -0.4681  0.5162 -0.7987
  121CHL1  H11A15175   0.164   6.270  14.164 -1.9042  0.5235 -0.3910
  121CHL1  H11B15176   0.274   6.128  14.159 -0.5441  0.6021 -1.3236
  121CHL1    C915177   0.066   6.080  14.097 -0.2765 -0.8706 -0.8566
  121CHL1    H915178   0.099   5.974  14.106  0.1504 -0.7699 -1.2167
  121CHL1   C1015179   0.071   6.114  13.950 -0.8289 -0.2232  0.3049
  121CHL1   C1915180   0.041   6.267  13.928  0.0248  0.7136 -0.0706
  121CHL1  H19A15181   0.044   6.285  13.818 -1.4002 -0.2161 -0.2896
  121CHL1  H19B15182  -0.061   6.298  13.959 -0.9033 -1.9362 -0.2344
  121CHL1  H19C15183   0.116   6.334  13.976 -0.0019  0.8497 -0.2151
  121CHL1    C115184   0.215   6.069  13.890 -0.0601  0.2142 -0.3795
  121CHL1   H1A15185   0.303   6.109  13.944  1.5255 -3.0079 -0.3167
  121CHL1   H1B15186   0.210   5.961  13.918  0.8670  0.0972 -0.6539
  121CHL1    C215187   0.223   6.078  13.738 -0.1612  0.1125 -0.0100
  121CHL1   H2A15188   0.320   6.041  13.697 -0.8132  0.3942 -1.8931
  121CHL1   H2B15189   0.226   6.185  13.707 -0.0754 -0.0356 -0.5168
  121CHL1   C2015190  -0.019   6.199  14.642  1.1890  0.6309 -0.1854
  121CHL1   H2015191  -0.090   6.284  14.627 -1.4594 -1.4233 -0.0388
  121CHL1   C2115192   0.128   6.250  14.645  0.2570 -0.3274  1.1703
  121CHL1  H21A15193   0.199   6.171  14.613  0.3522  0.2810 -0.2268
  121CHL1  H21B15194   0.155   6.294  14.743 -1.9734  0.1883  1.6158
  121CHL1  H21C15195   0.145   6.339  14.579  0.6699 -1.2032  0.0594
  121CHL1   C2215196  -0.058   6.128  14.777  0.0889 -0.0383 -0.6277
  121CHL1  H22A15197  -0.160   6.087  14.766 -0.6042  1.2857  0.5133
  121CHL1  H22B15198   0.018   6.049  14.793 -0.1288 -0.3919 -1.3180
  121CHL1   C2315199  -0.055   6.216  14.900  0.3513  0.1443 -0.1065
  121CHL1  H23A15200   0.043   6.265  14.916  1.1669 -1.6257  0.5343
  121CHL1  H23B15201  -0.135   6.291  14.879 -1.5142 -2.2637 -2.1339
  121CHL1   C2415202  -0.089   6.150  15.034  0.4817 -0.4179 -0.3869
  121CHL1  H24A15203  -0.189   6.107  15.011 -0.7164  1.2685  1.4865
  121CHL1  H24B15204  -0.012   6.078  15.069  1.1142 -0.0675 -1.0274
  121CHL1   C2515205  -0.117   6.249  15.149 -0.0746  0.0474  0.4563
  121CHL1   H2515206  -0.181   6.334  15.117  2.4722  2.1061  0.5586
  121CHL1   C2615207  -0.182   6.195  15.275 -0.2989 -0.5475 -0.4727
  121CHL1  H26A15208  -0.175   6.269  15.357 -0.5349 -0.4464 -0.5408
  121CHL1  H26B15209  -0.281   6.157  15.241 -0.0484 -2.0842  0.4096
  121CHL1  H26C15210  -0.128   6.104  15.309  1.8462  0.9876  0.4018
  121CHL1   C2715211   0.009   6.318  15.206 -0.0248  0.2658 -0.0263
  121CHL1  H27A15212   0.078   6.327  15.120 -0.8571  0.0510 -0.7343
  121CHL1  H27B15213  -0.018   6.419  15.246 -0.0950  0.6047 -0.9160
  121CHL1  H27C15214   0.052   6.257  15.289  0.0722  0.1195 -0.1842
  122CHL1    C315215   3.398   5.719  13.663  0.1624  0.2954  0.7270
  122CHL1    H315216   3.290   5.696  13.673  0.2207  0.7478  2.9753
  122CHL1    O315217   3.432   5.761  13.531  0.1007 -0.0925  0.0127
  122CHL1   H3'15218   3.514   5.811  13.525  0.3562 -0.5972 -0.8979
  122CHL1    C415219   3.436   5.838  13.754  0.4264 -0.1610 -0.8581
  122CHL1   H4A15220   3.545   5.855  13.744  0.3963 -0.0492 -1.0005
  122CHL1   H4B15221   3.375   5.923  13.716  1.0508  1.0876  0.8319
  122CHL1    C515222   3.417   5.811  13.901 -0.6783  0.2598 -0.0845
  122CHL1    C615223   3.336   5.884  13.977 -0.4716  0.4864 -0.6573
  122CHL1    H615224   3.279   5.966  13.930 -2.3758  0.4877  1.4660
  122CHL1    C715225   3.315   5.857  14.122 -0.2971  0.0782  0.0105
  122CHL1   H7A15226   3.323   5.955  14.174  1.3888  1.1908 -2.1839
  122CHL1   H7B15227   3.213   5.814  14.124 -0.4161  0.3176 -0.7126
  122CHL1    C815228   3.419   5.758  14.172 -0.3706  0.2228 -0.5493
  122CHL1    H815229   3.504   5.828  14.193 -2.0461  2.2405 -0.0836
  122CHL1   C1415230   3.379   5.708  14.315 -0.0978 -0.5300  0.2834
  122CHL1   H1415231   3.293   5.639  14.301 -0.5159  0.1676 -0.7085
  122CHL1   C1515232   3.325   5.802  14.430 -0.8726 -0.7277  0.4299
  122CHL1  H15A15233   3.404   5.880  14.431 -0.1404 -1.4329 -0.5040
  122CHL1  H15B15234   3.221   5.839  14.421 -0.6482  0.5681  2.4317
  122CHL1   C1615235   3.342   5.730  14.560  0.3033  0.2962 -0.0320
  122CHL1  H16A15236   3.407   5.783  14.633 -0.7571 -0.8553  1.8368
  122CHL1  H16B15237   3.245   5.710  14.611  0.0187 -0.5493 -0.8850
  122CHL1   C1715238   3.410   5.591  14.517  0.3525  0.4576 -0.1096
  122CHL1   H1715239   3.322   5.528  14.495  1.8036 -1.9551  0.6589
  122CHL1   C1315240   3.477   5.620  14.380 -0.2158 -0.0995 -0.1703
  122CHL1   C1815241   3.615   5.694  14.401  0.3483  0.1855 -0.4680
  122CHL1  H18A15242   3.592   5.776  14.472  1.4557 -0.2088  0.3786
  122CHL1  H18B15243   3.692   5.632  14.452 -0.3488  0.2026  0.6217
  122CHL1  H18C15244   3.655   5.725  14.302  0.9623 -2.3196 -1.0890
  122CHL1   C1215245   3.496   5.497  14.294  0.5618  0.5680  0.4590
  122CHL1  H12A15246   3.577   5.438  14.342  0.5799 -0.8491 -1.1944
  122CHL1  H12B15247   3.401   5.440  14.299  0.5864  0.2972 -1.3246
  122CHL1   C1115248   3.544   5.527  14.154 -0.0463 -0.1106  0.5185
  122CHL1  H11A15249   3.648   5.565  14.166 -0.5914  1.0687  1.8582
  122CHL1  H11B15250   3.546   5.434  14.094 -0.0537 -0.3714  0.9172
  122CHL1    C915251   3.454   5.637  14.084 -0.6438 -0.7774 -0.4307
  122CHL1    H915252   3.365   5.571  14.081 -2.9129  2.0798  0.0297
  122CHL1   C1015253   3.499   5.679  13.943 -0.2311  0.3282  0.3151
  122CHL1   C1915254   3.648   5.722  13.954  0.1057  0.1256  0.1825
  122CHL1  H19A15255   3.687   5.768  13.861  1.4288  0.2577  0.7892
  122CHL1  H19B15256   3.665   5.796  14.035  0.4706  0.2951 -0.0491
  122CHL1  H19C15257   3.712   5.635  13.981  0.2832 -0.7623 -2.7496
  122CHL1    C115258   3.465   5.567  13.843  0.9728  0.1080  0.2217
  122CHL1   H1A15259   3.533   5.486  13.879  3.1883  1.7507 -0.0351
  122CHL1   H1B15260   3.359   5.537  13.853  0.5242  1.7418  0.6113
  122CHL1    C215261   3.477   5.598  13.699 -0.1826 -0.3348  0.9195
  122CHL1   H2A15262   3.443   5.513  13.635 -0.1379  0.7765 -0.6288
  122CHL1   H2B15263   3.583   5.610  13.669 -0.1606 -0.5536  0.9052
  122CHL1   C2015264   3.493   5.514  14.623  0.1164 -0.3871  0.3585
  122CHL1   H2015265   3.598   5.525  14.589 -0.1472  0.9425 -0.0663
  122CHL1   C2115266   3.466   5.369  14.584  0.0879  0.1597 -0.2842
  122CHL1  H21A15267   3.527   5.299  14.644  1.6080  0.6442 -1.2130
  122CHL1  H21B15268   3.496   5.345  14.480 -0.0919 -1.9219  0.1081
  122CHL1  H21C15269   3.362   5.342  14.613  0.5070  0.2074  1.3711
  122CHL1   C2215270   3.468   5.548  14.767  0.4070 -0.2713  0.2371
  122CHL1  H22A15271   3.504   5.653  14.776  2.1987 -0.8754  0.5938
  122CHL1  H22B15272   3.360   5.542  14.790  0.8222 -1.2148  2.2296
  122CHL1   C2315273   3.535   5.458  14.874  0.5990 -0.7089  0.5724
  122CHL1  H23A15274   3.502   5.493  14.974  2.1526 -0.4287  1.0142
  122CHL1  H23B15275   3.497   5.354  14.864 -2.8569  0.6933 -3.9333
  122CHL1   C2415276   3.691   5.465  14.867  0.1799 -0.2599 -0.1671
  122CHL1  H24A15277   3.736   5.372  14.909  0.9537  0.4461  0.6179
  122CHL1  H24B15278   3.712   5.464  14.758  0.2562  1.1097 -0.1868
  122CHL1   C2515279   3.752   5.593  14.930  0.3771 -0.1027  0.5940
  122CHL1   H2515280   3.673   5.671  14.934  0.6111  0.1200  1.0274
  122CHL1   C2615281   3.784   5.575  15.080 -0.0813 -0.6548 -0.2751
  122CHL1  H26A15282   3.836   5.664  15.122  0.3599 -1.2842  0.5743
  122CHL1  H26B15283   3.694   5.553  15.141 -0.1962 -0.4832 -0.3867
  122CHL1  H26C15284   3.846   5.482  15.083 -0.4224 -0.9656 -2.0448
  122CHL1   C2715285   3.858   5.643  14.841 -0.0511 -0.2527 -0.3400
  122CHL1  H27A15286   3.937   5.565  14.848  0.2121  0.1545  2.8665
  122CHL1  H27B15287   3.829   5.665  14.737  0.6267 -0.0574 -0.4930
  122CHL1  H27C15288   3.894   5.742  14.877  2.6523 -0.5813 -1.8288
  123CHL1    C315289   0.948   0.455  13.453  1.3763 -0.4180  0.6014
  123CHL1    H315290   0.871   0.534  13.465  1.4908 -0.5380  2.3463
  123CHL1    O315291   0.950   0.422  13.313 -0.0472  0.0459  0.5670
  123CHL1   H3'15292   0.992   0.494  13.265  0.9405  0.1917  1.5942
  123CHL1    C415293   1.079   0.527  13.493  0.4449  0.7920 -0.1746
  123CHL1   H4A15294   1.167   0.477  13.448 -0.4885 -1.4636  0.3697
  123CHL1   H4B15295   1.064   0.617  13.430 -0.1344  0.0605 -1.1114
  123CHL1    C515296   1.107   0.556  13.635 -0.4171  0.2039  0.0868
  123CHL1    C615297   1.131   0.679  13.676  0.0851 -1.0824  0.4192
  123CHL1    H615298   1.137   0.763  13.605 -1.8432  0.5194  2.0192
  123CHL1    C715299   1.161   0.708  13.816  0.4455  0.6169  0.8805
  123CHL1   H7A15300   1.231   0.792  13.829 -1.2050  2.0592  0.8195
  123CHL1   H7B15301   1.060   0.746  13.843 -0.6275 -0.0035 -1.8726
  123CHL1    C815302   1.194   0.587  13.904  0.1309  0.0524 -0.2292
  123CHL1    H815303   1.299   0.557  13.884  0.6484 -0.2754  2.5390
  123CHL1   C1415304   1.180   0.616  14.056  0.4471 -1.0687  0.3056
  123CHL1   H1415305   1.073   0.642  14.076 -0.0304 -1.9906 -0.9597
  123CHL1   C1515306   1.264   0.733  14.121 -0.5556 -0.4213 -0.6311
  123CHL1  H15A15307   1.368   0.743  14.083 -0.4780  2.1192  0.0934
  123CHL1  H15B15308   1.216   0.828  14.089 -1.3866 -0.5329  0.2626
  123CHL1   C1615309   1.245   0.711  14.266 -0.4711 -0.1426 -0.0353
  123CHL1  H16A15310   1.347   0.727  14.307  0.2908 -0.3200 -1.7641
  123CHL1  H16B15311   1.166   0.773  14.314  0.5071  1.1429 -0.0424
  123CHL1   C1715312   1.202   0.559  14.291  0.5930 -0.1825 -0.0388
  123CHL1   H1715313   1.094   0.561  14.315  0.4991 -1.4978 -0.2745
  123CHL1   C1315314   1.220   0.498  14.149 -0.0599  0.5206  0.1024
  123CHL1   C1815315   1.365   0.459  14.126  0.3804  0.0427  0.2812
  123CHL1  H18A15316   1.382   0.364  14.181 -2.0250  0.3056  1.6200
  123CHL1  H18B15317   1.388   0.450  14.018 -0.2853 -1.4257  0.2430
  123CHL1  H18C15318   1.428   0.541  14.167 -1.6393  1.3559  0.9400
  123CHL1   C1215319   1.127   0.380  14.120 -0.0454 -0.4760  0.5070
  123CHL1  H12A15320   1.172   0.293  14.172  3.2467  1.3321  0.9934
  123CHL1  H12B15321   1.025   0.401  14.158 -0.1949  1.4041 -0.7924
  123CHL1   C1115322   1.122   0.349  13.967 -0.2758 -0.3881  0.2834
  123CHL1  H11A15323   1.229   0.326  13.949  0.2486  1.6670  0.4312
  123CHL1  H11B15324   1.059   0.259  13.950  0.7190 -1.2887  1.2200
  123CHL1    C915325   1.095   0.472  13.876 -0.2505  0.1839 -0.3233
  123CHL1    H915326   0.991   0.505  13.896 -0.2189  0.3184 -0.3829
  123CHL1   C1015327   1.089   0.432  13.727 -0.3624  0.0266  0.2627
  123CHL1   C1915328   1.201   0.324  13.701 -0.2132  0.6485 -0.3457
  123CHL1  H19A15329   1.228   0.309  13.594 -0.4759 -1.5165 -0.1566
  123CHL1  H19B15330   1.297   0.353  13.748 -0.2812 -0.6401  0.6534
  123CHL1  H19C15331   1.176   0.220  13.734 -1.4135  0.8404 -0.5846
  123CHL1    C115332   0.948   0.372  13.687 -0.9465 -0.3166 -0.1263
  123CHL1   H1A15333   0.930   0.287  13.757 -1.3302 -1.6002 -1.7144
  123CHL1   H1B15334   0.877   0.451  13.721  0.1977  0.4981  0.4414
  123CHL1    C215335   0.911   0.336  13.540 -0.0562  0.3224  0.3652
  123CHL1   H2A15336   0.806   0.308  13.516  0.5147 -1.5112 -0.1126
  123CHL1   H2B15337   0.979   0.251  13.519  0.3022  1.0809 -1.7597
  123CHL1   C2015338   1.269   0.488  14.415 -0.4919  0.0589 -0.3061
  123CHL1   H2015339   1.374   0.463  14.388 -0.3413 -0.1816  0.4764
  123CHL1   C2115340   1.205   0.349  14.453 -0.1977  0.0886  0.2213
  123CHL1  H21A15341   1.095   0.361  14.463 -0.3833 -1.5102  0.3882
  123CHL1  H21B15342   1.230   0.306  14.552  0.7351 -0.7539 -0.3596
  123CHL1  H21C15343   1.230   0.264  14.385 -2.2282 -0.7513  0.4499
  123CHL1   C2215344   1.281   0.579  14.550  0.1002 -0.0030  0.2364
  123CHL1  H22A15345   1.311   0.683  14.523  2.1087  0.0734  2.4574
  123CHL1  H22B15346   1.178   0.568  14.592  0.3574 -1.0309  0.6112
  123CHL1   C2315347   1.377   0.523  14.664 -0.2431  0.0402  0.1865
  123CHL1  H23A15348   1.327   0.427  14.689  0.3729 -0.6429 -1.0969
  123CHL1  H23B15349   1.476   0.497  14.620  0.1919 -0.1457  1.2530
  123CHL1   C2415350   1.393   0.607  14.783 -0.1008  0.0390  0.4710
  123CHL1  H24A15351   1.418   0.712  14.755 -0.5004 -0.0065 -0.0825
  123CHL1  H24B15352   1.292   0.620  14.828  0.1101  0.5295  0.8164
  123CHL1   C2515353   1.508   0.569  14.877  0.5659  0.5091 -0.1272
  123CHL1   H2515354   1.605   0.572  14.822 -0.2201  0.5800 -1.5404
  123CHL1   C2615355   1.503   0.666  14.993 -0.2925  0.1758  0.0820
  123CHL1  H26A15356   1.512   0.771  14.958  0.3191  0.9156  2.3086
  123CHL1  H26B15357   1.417   0.647  15.060  0.2968 -1.3706  0.4551
  123CHL1  H26C15358   1.597   0.652  15.051  0.5049  1.0613 -0.9628
  123CHL1   C2715359   1.485   0.424  14.928 -0.2641  0.0545 -0.1482
  123CHL1  H27A15360   1.497   0.350  14.847 -0.7002  1.2834 -1.3862
  123CHL1  H27B15361   1.568   0.404  14.999  0.9611 -2.1255 -2.0468
  123CHL1  H27C15362   1.385   0.428  14.976  0.0383  2.9299  0.4233
  124CHL1    C315363   5.538   0.497  13.838 -0.4881  0.1942 -0.3827
  124CHL1    H315364   5.441   0.533  13.877 -0.4518 -0.1177 -0.0026
  124CHL1    O315365   5.515   0.444  13.708 -0.0583 -0.0964 -0.6147
  124CHL1   H3'15366   5.470   0.514  13.661 -1.7404  0.1959  1.2580
  124CHL1    C415367   5.634   0.619  13.835  0.2227  0.8039  0.8807
  124CHL1   H4A15368   5.730   0.579  13.795  0.1115  0.1975  1.2122
  124CHL1   H4B15369   5.593   0.694  13.764 -1.0821 -0.8938 -0.2677
  124CHL1    C515370   5.670   0.674  13.972  0.4695  0.0182  0.4050
  124CHL1    C615371   5.645   0.804  14.004 -0.4165  0.3203 -0.2856
  124CHL1    H615372   5.602   0.877  13.934 -0.7825  0.2220 -0.1647
  124CHL1    C715373   5.685   0.865  14.135 -0.0261  0.3009  0.4041
  124CHL1   H7A15374   5.741   0.960  14.121  0.7227 -0.1071  0.6350
  124CHL1   H7B15375   5.596   0.901  14.191  0.5412 -0.9703  2.1743
  124CHL1    C815376   5.773   0.780  14.229  0.1859  0.7575  0.3854
  124CHL1    H815377   5.876   0.786  14.190 -0.2084 -0.8271 -0.9918
  124CHL1   C1415378   5.761   0.829  14.369  0.4136  0.1820  0.2765
  124CHL1   H1415379   5.656   0.811  14.399  0.4240 -0.6398 -0.1506
  124CHL1   C1515380   5.794   0.981  14.398  0.0468  0.4083 -0.3408
  124CHL1  H15A15381   5.886   1.013  14.346  1.5623 -1.0720  1.3256
  124CHL1  H15B15382   5.714   1.053  14.370  0.3701  0.3756 -1.4091
  124CHL1   C1615383   5.824   0.981  14.552  0.2558 -0.3546  0.3848
  124CHL1  H16A15384   5.924   1.024  14.575 -0.2861  0.9624  0.3372
  124CHL1  H16B15385   5.752   1.048  14.602  0.9068  1.6088 -1.1732
  124CHL1   C1715386   5.820   0.829  14.602 -0.3210 -0.1495 -0.4281
  124CHL1   H1715387   5.713   0.818  14.631 -0.4112  0.7266 -0.3854
  124CHL1   C1315388   5.837   0.744  14.469 -0.1640  0.4591 -0.2345
  124CHL1   C1815389   5.987   0.727  14.437 -0.0456 -0.8725 -0.3058
  124CHL1  H18A15390   6.026   0.647  14.503 -1.9802  0.3577  2.5491
  124CHL1  H18B15391   6.020   0.709  14.333  2.5039 -0.9349  0.4511
  124CHL1  H18C15392   6.040   0.822  14.458 -3.4476  1.5358 -1.6565
  124CHL1   C1215393   5.773   0.601  14.458  0.5687 -0.1756  0.0441
  124CHL1  H12A15394   5.817   0.537  14.537 -0.6080 -0.4551  0.5000
  124CHL1  H12B15395   5.666   0.606  14.490  0.5221 -2.0006  0.2930
  124CHL1   C1115396   5.787   0.535  14.320 -0.2370  0.8607 -0.0617
  124CHL1  H11A15397   5.893   0.515  14.292 -1.3592 -0.3847 -4.0904
  124CHL1  H11B15398   5.740   0.435  14.333 -2.4387  2.0421  1.8988
  124CHL1    C915399   5.724   0.629  14.215 -0.4123 -0.3334  0.3098
  124CHL1    H915400   5.616   0.629  14.243 -0.8113 -0.4812 -1.1609
  124CHL1   C1015401   5.728   0.571  14.074 -0.4670 -0.4203  0.1398
  124CHL1   C1915402   5.877   0.539  14.030 -0.0742  0.2621 -0.3267
  124CHL1  H19A15403   5.921   0.461  14.096 -0.3148  0.5894  0.2382
  124CHL1  H19B15404   5.883   0.526  13.920 -1.7406  0.1565 -0.4217
  124CHL1  H19C15405   5.941   0.628  14.049  2.2648 -1.3237 -0.3229
  124CHL1    C115406   5.638   0.441  14.065  0.0747 -0.2603 -0.0162
  124CHL1   H1A15407   5.681   0.357  14.124 -1.5666 -0.7216  0.5619
  124CHL1   H1B15408   5.544   0.477  14.111  0.2884  1.8947 -1.0997
  124CHL1    C215409   5.601   0.382  13.927  0.0351 -0.2584  0.4843
  124CHL1   H2A15410   5.523   0.304  13.944  0.6495 -1.4878 -1.9861
  124CHL1   H2B15411   5.682   0.330  13.871 -1.5021  0.0065 -2.1437
  124CHL1   C2015412   5.909   0.796  14.732 -0.0184  0.1898 -0.3658
  124CHL1   H2015413   6.016   0.790  14.703 -0.4084  0.1237 -1.9149
  124CHL1   C2115414   5.870   0.655  14.779  0.0639  0.5297 -0.6667
  124CHL1  H21A15415   5.762   0.631  14.776  0.8353 -3.9832  0.7608
  124CHL1  H21B15416   5.895   0.632  14.885 -1.2244 -0.6882 -0.6032
  124CHL1  H21C15417   5.933   0.587  14.718  2.0029  0.5456  1.2254
  124CHL1   C2215418   5.901   0.898  14.850 -0.1846 -0.5347  0.0709
  124CHL1  H22A15419   5.903   1.003  14.813  0.2952 -0.1106  1.2352
  124CHL1  H22B15420   5.810   0.884  14.913  0.3285 -1.7929  0.5587
  124CHL1   C2315421   6.031   0.913  14.940 -0.0783  0.5541  0.6367
  124CHL1  H23A15422   6.046   0.810  14.979 -1.2146 -0.1438 -0.6820
  124CHL1  H23B15423   6.106   0.922  14.859  0.0908  1.7954  0.9076
  124CHL1   C2415424   6.031   1.023  15.031  0.1612  0.0760 -0.5041
  124CHL1  H24A15425   6.001   1.106  14.964 -0.6039 -1.2368 -1.8625
  124CHL1  H24B15426   5.948   1.012  15.104 -1.7823  1.1692 -2.4356
  124CHL1   C2515427   6.168   1.049  15.104  0.2040  0.0893 -0.2418
  124CHL1   H2515428   6.248   1.080  15.033 -2.2663  1.3352 -2.6703
  124CHL1   C2615429   6.147   1.162  15.205  0.1154 -0.4621  0.3576
  124CHL1  H26A15430   6.107   1.247  15.146  1.4797  1.0959  1.5733
  124CHL1  H26B15431   6.065   1.145  15.279 -0.7503  2.6141  0.2708
  124CHL1  H26C15432   6.242   1.194  15.254 -0.6900  1.5534  0.7346
  124CHL1   C2715433   6.219   0.928  15.179  0.0271  0.8071 -0.5736
  124CHL1  H27A15434   6.246   0.840  15.117 -0.0758 -0.5340  1.2240
  124CHL1  H27B15435   6.310   0.942  15.240 -0.0662  1.2809 -0.5417
  124CHL1  H27C15436   6.135   0.897  15.246 -1.4736 -1.2321 -3.1813
  125CHL1    C315437   0.075   0.194  13.967 -0.5621  0.0057 -0.4936
  125CHL1    H315438   0.071   0.301  13.997  1.4738 -0.1879  0.6109
  125CHL1    O315439   0.106   0.181  13.832 -0.0617 -0.2683  0.5515
  125CHL1   H3'15440   0.129   0.088  13.818  0.3138 -0.1881  0.6295
  125CHL1    C415441   0.194   0.120  14.047  0.2115  0.0546 -0.0110
  125CHL1   H4A15442   0.200   0.012  14.019 -1.9167 -0.4074  1.0568
  125CHL1   H4B15443   0.283   0.181  14.024  0.4144  0.2517  1.2159
  125CHL1    C515444   0.151   0.117  14.190  0.1608 -0.5236  0.1552
  125CHL1    C615445   0.228   0.159  14.282  0.2474  0.2568  0.4353
  125CHL1    H615446   0.331   0.183  14.249  0.3054 -2.8687 -2.3254
  125CHL1    C715447   0.210   0.160  14.432 -0.4476  0.0958  0.1362
  125CHL1   H7A15448   0.307   0.136  14.481 -1.2529 -2.9274  0.4331
  125CHL1   H7B15449   0.204   0.267  14.462  1.2977  0.5930 -1.1290
  125CHL1    C815450   0.099   0.071  14.479  1.0398  0.0713  0.8800
  125CHL1    H815451   0.134  -0.035  14.477  0.9288  0.0478 -0.2052
  125CHL1   C1415452   0.059   0.105  14.621 -0.5550  0.3383  0.5471
  125CHL1   H1415453   0.029   0.212  14.617 -3.2896 -0.3724 -1.6785
  125CHL1   C1515454   0.169   0.109  14.729 -0.0656  0.0559 -0.3946
  125CHL1  H15A15455   0.223   0.012  14.722 -0.5283 -0.3288  0.8827
  125CHL1  H15B15456   0.233   0.200  14.735  2.0952 -1.4558  0.7557
  125CHL1   C1615457   0.082   0.099  14.856 -0.3907  0.0249 -0.2372
  125CHL1  H16A15458   0.117   0.010  14.912 -0.6018  0.6603  0.9609
  125CHL1  H16B15459   0.093   0.191  14.918  0.2045 -1.0955  1.3747
  125CHL1   C1715460  -0.069   0.074  14.817 -0.8069  0.1194 -0.3408
  125CHL1   H1715461  -0.125   0.167  14.797  3.1649  3.1542  1.3497
  125CHL1   C1315462  -0.058   0.020  14.671  0.2451 -0.7623  0.1816
  125CHL1   C1815463  -0.031  -0.133  14.681 -0.6992  0.6510 -0.4371
  125CHL1  H18A15464  -0.116  -0.179  14.737  0.3382 -0.2490  0.4497
  125CHL1  H18B15465  -0.027  -0.181  14.581  1.2915 -0.9654  0.3483
  125CHL1  H18C15466   0.064  -0.150  14.736  0.1675  1.9851 -1.4731
  125CHL1   C1215467  -0.184   0.052  14.578  0.0974 -0.1816 -0.0884
  125CHL1  H12A15468  -0.272  -0.008  14.607 -0.2342  0.4086  0.1406
  125CHL1  H12B15469  -0.208   0.160  14.564  0.2318 -0.1505 -0.0847
  125CHL1   C1115470  -0.152   0.010  14.427  0.0536 -0.4646  0.4057
  125CHL1  H11A15471  -0.120  -0.095  14.416 -1.1037 -0.8282  0.3226
  125CHL1  H11B15472  -0.234   0.041  14.358 -0.6947  0.6225  1.7442
  125CHL1    C915473  -0.019   0.086  14.377 -0.3268  0.3198  0.2736
  125CHL1    H915474  -0.049   0.193  14.374  0.5323  0.5731  0.3885
  125CHL1   C1015475   0.020   0.056  14.221  0.0193  0.0556 -0.0308
  125CHL1   C1915476   0.024  -0.098  14.198  0.2132  0.2236  0.2180
  125CHL1  H19A15477   0.066  -0.108  14.095  1.4026  1.9995  0.4865
  125CHL1  H19B15478   0.092  -0.158  14.262 -0.6876  0.1314  1.1103
  125CHL1  H19C15479  -0.076  -0.144  14.187  1.5023 -2.2975 -2.6955
  125CHL1    C115480  -0.091   0.121  14.137 -0.0854 -0.2964  0.1224
  125CHL1   H1A15481  -0.193   0.078  14.131 -0.0067 -0.4650 -0.0057
  125CHL1   H1B15482  -0.101   0.228  14.166 -0.9497 -0.2770 -0.1911
  125CHL1    C215483  -0.050   0.113  13.990  0.2457 -0.0567  0.2636
  125CHL1   H2A15484  -0.130   0.171  13.938 -0.0317  0.0913  0.8461
  125CHL1   H2B15485  -0.051   0.010  13.949  2.7426 -0.2828  0.6087
  125CHL1   C2015486  -0.159   0.015  14.928 -0.6338  0.1201 -0.0431
  125CHL1   H2015487  -0.158  -0.096  14.939 -0.7405  0.0997 -0.2245
  125CHL1   C2115488  -0.306   0.047  14.896 -0.3665  0.1328  0.6905
  125CHL1  H21A15489  -0.327   0.155  14.891 -2.9899 -0.3400 -0.1067
  125CHL1  H21B15490  -0.373   0.015  14.978 -2.5045  0.4181 -0.8509
  125CHL1  H21C15491  -0.331  -0.001  14.798 -0.8070  1.1593  0.2939
  125CHL1   C2215492  -0.124   0.070  15.075  0.1038  0.1608  0.3764
  125CHL1  H22A15493  -0.019   0.041  15.097  0.4381 -0.9328 -2.2472
  125CHL1  H22B15494  -0.126   0.179  15.056  1.9141 -0.1868 -2.4021
  125CHL1   C2315495  -0.216   0.034  15.185 -0.1230  0.4655 -0.2258
  125CHL1  H23A15496  -0.312   0.086  15.167 -1.3314 -1.8375 -0.9053
  125CHL1  H23B15497  -0.236  -0.075  15.173  2.9486 -0.3303  0.7774
  125CHL1   C2415498  -0.152   0.058  15.327 -0.1450 -0.8539 -0.3465
  125CHL1  H24A15499  -0.058  -0.001  15.337  1.8927  2.1299 -0.5520
  125CHL1  H24B15500  -0.140   0.168  15.343  2.4164 -1.3161  1.6670
  125CHL1   C2515501  -0.248   0.004  15.439 -0.3778  0.7086  0.1427
  125CHL1   H2515502  -0.252  -0.106  15.423 -0.4317  0.8642 -0.9319
  125CHL1   C2615503  -0.193   0.012  15.575 -0.1182 -0.3386  0.1921
  125CHL1  H26A15504  -0.260  -0.028  15.654  0.3706  1.3467  1.5168
  125CHL1  H26B15505  -0.094  -0.034  15.595  0.0672  0.4916  1.3383
  125CHL1  H26C15506  -0.189   0.121  15.598  1.0714 -0.5450  1.0576
  125CHL1   C2715507  -0.386   0.069  15.442 -0.1474 -0.0266  0.2066
  125CHL1  H27A15508  -0.455   0.019  15.512  0.3666  0.4442  1.0628
  125CHL1  H27B15509  -0.385   0.176  15.471  0.2587  0.0398 -0.0302
  125CHL1  H27C15510  -0.435   0.061  15.343 -0.9500 -0.7562  0.6563
  126CHL1    C315511   4.178   1.980  12.597  0.4547 -0.0214  0.0473
  126CHL1    H315512   4.137   1.880  12.573  0.9758  0.3976 -2.8999
  126CHL1    O315513   4.209   2.039  12.470 -0.4948 -0.7397 -0.6915
  126CHL1   H3'15514   4.204   2.131  12.497  1.2218 -1.0348  0.7864
  126CHL1    C415515   4.072   2.074  12.655  0.0742  0.6257  0.0744
  126CHL1   H4A15516   4.103   2.180  12.643  0.5445  0.5203  0.3322
  126CHL1   H4B15517   3.984   2.046  12.593 -1.5185  0.1454  2.3841
  126CHL1    C515518   4.033   2.036  12.798 -0.8239  1.0982  0.5940
  126CHL1    C615519   3.912   2.005  12.840 -0.0366 -0.6041 -0.2202
  126CHL1    H615520   3.831   2.026  12.770  0.7045 -0.1313 -0.9484
  126CHL1    C715521   3.876   1.949  12.983  0.0585  0.2186 -0.2492
  126CHL1   H7A15522   3.782   1.989  13.029  0.6791 -0.6580  1.9290
  126CHL1   H7B15523   3.868   1.839  12.990  0.4505  0.1453 -0.9809
  126CHL1    C815524   3.983   1.980  13.087 -0.3548 -0.3608 -0.2711
  126CHL1    H815525   3.961   2.087  13.107  0.2226  0.2670 -2.6720
  126CHL1   C1415526   3.971   1.889  13.207  0.1063 -0.2701 -0.1618
  126CHL1   H1415527   3.987   1.783  13.180 -2.1385 -0.7414  0.1857
  126CHL1   C1515528   3.831   1.871  13.263  0.0815  0.0732  0.7558
  126CHL1  H15A15529   3.780   1.969  13.250 -0.2168 -0.2919 -1.0636
  126CHL1  H15B15530   3.762   1.817  13.195  1.4505  1.8652 -2.2358
  126CHL1   C1615531   3.855   1.824  13.402  0.1701 -0.8666 -0.5099
  126CHL1  H16A15532   3.816   1.902  13.471  1.4238  0.2632 -1.0347
  126CHL1  H16B15533   3.804   1.729  13.431 -0.0687 -0.3952  0.6881
  126CHL1   C1715534   4.007   1.811  13.421 -0.6458  0.7001 -0.2876
  126CHL1   H1715535   4.037   1.710  13.386  1.3104  1.4720 -0.9983
  126CHL1   C1315536   4.068   1.911  13.319 -0.1047 -0.4843 -0.2359
  126CHL1   C1815537   4.049   2.056  13.381  0.4258 -0.2995  0.1289
  126CHL1  H18A15538   3.946   2.060  13.423  0.6030 -1.9802  0.7887
  126CHL1  H18B15539   4.105   2.070  13.476 -0.0344 -1.6456  0.6311
  126CHL1  H18C15540   4.066   2.133  13.303 -0.7757  0.3181  0.4485
  126CHL1   C1215541   4.208   1.896  13.264  0.1423  1.0855 -0.2197
  126CHL1  H12A15542   4.292   1.921  13.332 -0.1546 -0.1942  0.6510
  126CHL1  H12B15543   4.224   1.790  13.233  0.6083  0.3611  2.3111
  126CHL1   C1115544   4.235   1.979  13.135  0.6620  0.2698 -0.1361
  126CHL1  H11A15545   4.238   2.084  13.170  1.1617  0.1701  0.1363
  126CHL1  H11B15546   4.334   1.940  13.102  0.2271 -1.6756  0.6920
  126CHL1    C915547   4.124   1.952  13.032 -0.4340 -0.0200 -0.2542
  126CHL1    H915548   4.129   1.844  13.009  1.0535  0.6076 -3.5099
  126CHL1   C1015549   4.155   2.015  12.893 -0.4160 -0.5035  0.4989
  126CHL1   C1915550   4.213   2.156  12.918 -0.1281 -0.2000  0.0514
  126CHL1  H19A15551   4.216   2.226  12.832 -1.2176  0.2590  0.3757
  126CHL1  H19B15552   4.152   2.208  12.994  0.3954 -0.5206  0.6960
  126CHL1  H19C15553   4.320   2.151  12.949 -0.1814 -0.7711  0.1607
  126CHL1    C115554   4.265   1.933  12.820 -0.3050 -0.0065  0.1407
  126CHL1   H1A15555   4.356   1.937  12.885  0.2237  1.0799 -0.6313
  126CHL1   H1B15556   4.247   1.824  12.815  0.9432 -0.1668 -1.7848
  126CHL1    C215557   4.304   1.971  12.684  0.7434  0.1617 -0.3823
  126CHL1   H2A15558   4.376   1.905  12.632 -0.9947 -0.8506 -1.6420
  126CHL1   H2B15559   4.339   2.076  12.689  0.0834  0.3239  1.3889
  126CHL1   C2015560   4.050   1.822  13.566  0.0575  0.5842 -0.0800
  126CHL1   H2015561   4.011   1.920  13.602 -1.3860  0.9094 -2.3628
  126CHL1   C2115562   4.202   1.816  13.577  0.5922 -1.1935 -0.6576
  126CHL1  H21A15563   4.253   1.908  13.541  0.0119 -0.9465 -0.8501
  126CHL1  H21B15564   4.236   1.726  13.522 -3.0450 -2.3172 -1.3521
  126CHL1  H21C15565   4.242   1.808  13.681  3.3210 -1.2492 -1.6299
  126CHL1   C2215566   3.991   1.712  13.649 -0.0424 -0.3969 -0.7902
  126CHL1  H22A15567   3.881   1.700  13.639  0.1353 -1.8421 -1.2684
  126CHL1  H22B15568   4.030   1.614  13.613  0.6881 -2.1119  3.9099
  126CHL1   C2315569   4.027   1.718  13.802  0.0581 -0.3374 -0.1359
  126CHL1  H23A15570   4.134   1.690  13.808 -0.4551 -2.5320 -0.6705
  126CHL1  H23B15571   4.007   1.821  13.838  0.9087 -0.2151  0.0060
  126CHL1   C2415572   3.949   1.611  13.876 -0.5120  0.0108 -0.0323
  126CHL1  H24A15573   3.844   1.635  13.846 -0.6381  0.0566  0.4318
  126CHL1  H24B15574   3.988   1.517  13.834 -1.7181  0.0693 -1.3601
  126CHL1   C2515575   3.962   1.608  14.029  0.3501 -0.2173  0.4294
  126CHL1   H2515576   3.919   1.513  14.066  0.3808 -0.0777  0.8244
  126CHL1   C2615577   4.107   1.616  14.073  0.2681 -0.0955  0.3955
  126CHL1  H26A15578   4.177   1.548  14.019 -1.9598 -0.8856 -1.6636
  126CHL1  H26B15579   4.144   1.721  14.069  0.0451  0.0321  1.4025
  126CHL1  H26C15580   4.120   1.582  14.178  1.1294  1.1861  0.7299
  126CHL1   C2715581   3.897   1.727  14.105  0.7009  0.6195  0.2049
  126CHL1  H27A15582   3.921   1.762  14.207  1.5174  2.7569 -0.6617
  126CHL1  H27B15583   3.914   1.822  14.050 -0.4390  1.1543  0.7520
  126CHL1  H27C15584   3.786   1.718  14.106  0.5172  1.6319 -2.2648
  127CHL1    C315585   5.019   1.328  13.449  0.0105 -0.2223 -0.4955
  127CHL1    H315586   5.079   1.235  13.444 -0.8298 -0.7146 -2.7849
  127CHL1    O315587   5.001   1.378  13.316  0.0302  0.3660 -0.9690
  127CHL1   H3'15588   5.053   1.456  13.294 -2.1988  1.6117 -2.2140
  127CHL1    C415589   4.878   1.301  13.522 -0.0695  0.2245  0.4712
  127CHL1   H4A15590   4.817   1.390  13.495  2.5932  1.7603 -0.9879
  127CHL1   H4B15591   4.838   1.211  13.470 -1.1796  2.3975 -2.7851
  127CHL1    C515592   4.881   1.282  13.669 -0.4377  0.0526 -1.1994
  127CHL1    C615593   4.813   1.190  13.735 -0.5557  0.2331  0.4676
  127CHL1    H615594   4.739   1.137  13.674 -2.4815  0.2082  2.6943
  127CHL1    C715595   4.802   1.181  13.883  0.2285  0.0404 -0.0417
  127CHL1   H7A15596   4.697   1.165  13.918  0.4430  0.5133  0.8434
  127CHL1   H7B15597   4.862   1.094  13.917 -0.7576 -0.6202  0.0537
  127CHL1    C815598   4.867   1.303  13.958 -0.5285  0.1033 -0.1594
  127CHL1    H815599   4.795   1.387  13.951  0.1246  0.6306 -0.7258
  127CHL1   C1415600   4.901   1.266  14.099 -0.1116 -0.8865 -0.1361
  127CHL1   H1415601   4.978   1.186  14.093 -1.8360 -2.6402  0.2125
  127CHL1   C1515602   4.801   1.206  14.194  0.3810 -0.0058 -0.8187
  127CHL1  H15A15603   4.699   1.242  14.170  0.6185 -0.5610 -2.8058
  127CHL1  H15B15604   4.797   1.095  14.184  0.1049 -0.3560  2.1313
  127CHL1   C1615605   4.840   1.238  14.339  0.5622 -0.3847 -0.3365
  127CHL1  H16A15606   4.757   1.294  14.385  0.5090 -1.6664  1.2230
  127CHL1  H16B15607   4.867   1.146  14.396  0.6703 -0.1701 -0.0351
  127CHL1   C1715608   4.967   1.328  14.327  0.2435  0.3128  0.5562
  127CHL1   H1715609   5.052   1.257  14.318 -0.1231 -0.4904  2.6771
  127CHL1   C1315610   4.964   1.377  14.180  0.5161 -0.0554 -0.0036
  127CHL1   C1815611   4.869   1.498  14.182 -0.3157 -0.0936  0.5700
  127CHL1  H18A15612   4.908   1.584  14.242  1.6825  0.9330 -2.0032
  127CHL1  H18B15613   4.849   1.539  14.081 -0.1085 -0.8285  0.2239
  127CHL1  H18C15614   4.765   1.465  14.202 -0.3576 -2.4842 -2.8251
  127CHL1   C1215615   5.098   1.413  14.118  0.0257  0.2257  0.4010
  127CHL1  H12A15616   5.129   1.511  14.159  2.4954  0.8469 -2.6036
  127CHL1  H12B15617   5.166   1.334  14.157  0.6156  0.4414 -0.1739
  127CHL1   C1115618   5.097   1.430  13.967  0.7341 -0.4570  0.2430
  127CHL1  H11A15619   5.072   1.536  13.944 -1.0846 -0.5215  1.6149
  127CHL1  H11B15620   5.200   1.403  13.935  1.0072 -0.5961  1.2065
  127CHL1    C915621   4.996   1.342  13.880 -1.0188  0.4592 -0.1778
  127CHL1    H915622   5.054   1.247  13.872  0.2977  1.2358 -0.0920
  127CHL1   C1015623   4.973   1.383  13.737 -0.9311  0.8317 -0.3699
  127CHL1   C1915624   4.890   1.512  13.745 -0.2519  0.5699  0.2979
  127CHL1  H19A15625   4.854   1.553  13.648 -0.6050 -0.2830  0.0559
  127CHL1  H19B15626   4.802   1.518  13.813 -0.5998  0.8004 -0.1638
  127CHL1  H19C15627   4.969   1.587  13.767 -0.1348  1.0717 -1.6025
  127CHL1    C115628   5.112   1.405  13.674 -0.1185  0.1292  0.1143
  127CHL1   H1A15629   5.158   1.493  13.723  0.6276  1.1806 -2.3145
  127CHL1   H1B15630   5.174   1.316  13.698 -0.5296 -0.6578 -1.6090
  127CHL1    C215631   5.099   1.440  13.521 -0.5972  0.3474 -0.0934
  127CHL1   H2A15632   5.197   1.455  13.471 -0.0886  1.3045  1.1348
  127CHL1   H2B15633   5.050   1.539  13.515 -0.9010  0.1880 -0.2778
  127CHL1   C2015634   5.000   1.422  14.443 -0.8864 -0.1724  0.1861
  127CHL1   H2015635   5.069   1.495  14.395 -0.0955 -1.5875 -0.9237
  127CHL1   C2115636   5.065   1.345  14.554 -0.0068  0.1064 -0.1013
  127CHL1  H21A15637   5.096   1.425  14.625 -0.6385  1.0292 -0.8393
  127CHL1  H21B15638   5.150   1.289  14.509 -0.6043  0.3869 -1.6571
  127CHL1  H21C15639   5.002   1.272  14.608  0.8181 -1.0782 -0.7068
  127CHL1   C2215640   4.864   1.486  14.497 -0.3008 -0.0563 -0.8996
  127CHL1  H22A15641   4.798   1.530  14.420 -1.6371  0.0591  0.2613
  127CHL1  H22B15642   4.812   1.418  14.569  1.1573 -0.9637 -0.6607
  127CHL1   C2315643   4.893   1.616  14.576  0.3053 -1.2884  0.0831
  127CHL1  H23A15644   4.960   1.591  14.661  0.1862  1.1585  0.9560
  127CHL1  H23B15645   4.941   1.688  14.506 -1.9503  0.1900 -0.0409
  127CHL1   C2415646   4.772   1.686  14.642 -0.1264  0.0059 -0.2744
  127CHL1  H24A15647   4.702   1.724  14.564 -0.3137  0.1864 -0.0209
  127CHL1  H24B15648   4.710   1.616  14.702  1.5786 -0.2714  1.2514
  127CHL1   C2515649   4.802   1.805  14.733  0.2351 -0.5501 -0.2996
  127CHL1   H2515650   4.878   1.764  14.804  1.8167  0.7971 -1.1366
  127CHL1   C2615651   4.881   1.911  14.653 -0.0503  0.2124 -0.0610
  127CHL1  H26A15652   4.811   1.960  14.582 -0.9456 -0.0577  0.6185
  127CHL1  H26B15653   4.926   1.987  14.721 -1.5434  2.6094 -1.5982
  127CHL1  H26C15654   4.961   1.854  14.601 -1.5594 -1.3103 -0.8265
  127CHL1   C2715655   4.676   1.865  14.810 -1.4315  0.0778 -0.2856
  127CHL1  H27A15656   4.614   1.789  14.862 -2.3655 -0.7164 -2.4246
  127CHL1  H27B15657   4.715   1.932  14.889  0.5904 -0.1790 -1.0130
  127CHL1  H27C15658   4.622   1.933  14.741  0.0794  0.9248 -0.6708
  128CHL1    C315659   3.963   5.825  13.678 -0.1252 -0.7959  0.3095
  128CHL1    H315660   3.880   5.761  13.717 -2.6716  1.4838 -0.9845
  128CHL1    O315661   3.926   5.865  13.544  0.3210 -0.2556  0.0750
  128CHL1   H3'15662   3.979   5.944  13.533 -2.1565  1.5008 -0.1945
  128CHL1    C415663   3.981   5.948  13.764  0.1893  0.1034 -0.0537
  128CHL1   H4A15664   4.065   6.011  13.727  0.8273  1.7384  3.6786
  128CHL1   H4B15665   3.889   6.010  13.765  0.3399  0.3556 -0.7960
  128CHL1    C515666   4.021   5.894  13.901  0.4734  0.6203  0.5345
  128CHL1    C615667   3.940   5.905  14.010  0.2810 -1.1020  0.2240
  128CHL1    H615668   3.852   5.971  14.014 -0.0745 -1.5571 -0.1406
  128CHL1    C715669   3.962   5.834  14.146  0.0747 -0.3242  0.7418
  128CHL1   H7A15670   3.938   5.916  14.218  1.4743  0.0707  0.7905
  128CHL1   H7B15671   3.903   5.740  14.149  1.6628 -1.3314  1.6540
  128CHL1    C815672   4.111   5.791  14.172  0.4910 -0.3117  0.7415
  128CHL1    H815673   4.162   5.890  14.185 -1.5273  1.1098 -1.4145
  128CHL1   C1415674   4.121   5.710  14.301  0.6536 -0.9000  0.2345
  128CHL1   H1415675   4.053   5.626  14.275 -0.9567  0.4458 -0.0476
  128CHL1   C1515676   4.073   5.776  14.429 -0.0868 -0.1156 -0.3192
  128CHL1  H15A15677   4.112   5.880  14.431  0.7256 -0.4174  0.6611
  128CHL1  H15B15678   3.964   5.783  14.445  0.1195  1.0556  0.7542
  128CHL1   C1615679   4.139   5.695  14.541  0.0240  0.1238  0.1428
  128CHL1  H16A15680   4.186   5.751  14.624  2.1834 -1.8450  0.3345
  128CHL1  H16B15681   4.056   5.642  14.592  0.7517 -0.5732  0.6150
  128CHL1   C1715682   4.233   5.597  14.467 -0.6888  1.0590  0.4318
  128CHL1   H1715683   4.173   5.508  14.439  1.4281 -0.1084 -0.6281
  128CHL1   C1315684   4.267   5.662  14.329  0.6523  1.0284 -0.0812
  128CHL1   C1815685   4.358   5.788  14.353  0.0083 -0.2655  0.5374
  128CHL1  H18A15686   4.321   5.846  14.441 -2.4246 -2.0286  0.7856
  128CHL1  H18B15687   4.467   5.772  14.365  0.4546  1.1593 -1.3242
  128CHL1  H18C15688   4.346   5.848  14.261  0.8138 -1.9429 -0.7038
  128CHL1   C1215689   4.305   5.573  14.211 -1.3418 -0.4426 -0.4481
  128CHL1  H12A15690   4.411   5.540  14.215 -0.6806  1.6986  0.8628
  128CHL1  H12B15691   4.234   5.487  14.203 -0.0201 -1.4855 -1.5117
  128CHL1   C1115692   4.294   5.652  14.080  0.2891  0.2922  0.4913
  128CHL1  H11A15693   4.376   5.727  14.079  1.3652 -0.8563 -0.1604
  128CHL1  H11B15694   4.338   5.587  14.002  0.8252  0.9206  0.2611
  128CHL1    C915695   4.161   5.723  14.049 -0.2658 -0.1155  0.4823
  128CHL1    H915696   4.093   5.635  14.041  0.3350 -0.6429  1.0872
  128CHL1   C1015697   4.152   5.800  13.913 -0.2555 -0.2293 -0.0257
  128CHL1   C1915698   4.275   5.887  13.902  0.0103 -0.3467  0.2462
  128CHL1  H19A15699   4.262   5.965  13.981 -1.2247 -0.1593 -0.1287
  128CHL1  H19B15700   4.370   5.829  13.910  0.0557 -0.0528  2.7882
  128CHL1  H19C15701   4.288   5.936  13.803  3.1293 -1.7037 -0.1340
  128CHL1    C115702   4.153   5.700  13.799  0.2321  0.0463  0.3225
  128CHL1   H1A15703   4.250   5.647  13.789  0.6770  1.1212 -1.6264
  128CHL1   H1B15704   4.071   5.628  13.817 -0.2844 -0.5249 -3.5416
  128CHL1    C215705   4.101   5.758  13.657  0.1829  0.7992 -0.5804
  128CHL1   H2A15706   4.091   5.680  13.579 -0.7439  1.6510 -1.3484
  128CHL1   H2B15707   4.177   5.826  13.613  1.4995 -0.2374  0.0601
  128CHL1   C2015708   4.348   5.550  14.557  0.5895 -0.0174  0.2136
  128CHL1   H2015709   4.425   5.630  14.562 -0.3928  1.0619 -1.2364
  128CHL1   C2115710   4.423   5.428  14.497 -1.3446  0.3177 -0.2804
  128CHL1  H21A15711   4.451   5.434  14.389  0.9576 -1.5293  0.1312
  128CHL1  H21B15712   4.359   5.338  14.498 -1.1561  0.1847 -0.1472
  128CHL1  H21C15713   4.513   5.414  14.560 -1.8076 -1.2553  0.0652
  128CHL1   C2215714   4.304   5.523  14.702  0.5785 -0.4637 -0.2353
  128CHL1  H22A15715   4.283   5.614  14.761 -0.1544  0.2820 -1.5978
  128CHL1  H22B15716   4.214   5.457  14.707 -1.1091  1.8085  0.9919
  128CHL1   C2315717   4.423   5.453  14.785 -0.3173  0.4118  0.4083
  128CHL1  H23A15718   4.415   5.350  14.743 -0.1070 -0.4118  2.3067
  128CHL1  H23B15719   4.520   5.498  14.753  0.9579 -3.0249 -1.1671
  128CHL1   C2415720   4.416   5.439  14.939  0.0808 -0.2248  0.6673
  128CHL1  H24A15721   4.427   5.538  14.989 -0.8714  0.7887 -1.0428
  128CHL1  H24B15722   4.319   5.393  14.967  0.1383  0.5757  2.2924
  128CHL1   C2515723   4.538   5.355  14.986  0.1297 -0.2878 -0.6474
  128CHL1   H2515724   4.631   5.374  14.929  2.0152 -3.1857  1.2659
  128CHL1   C2615725   4.567   5.380  15.136  0.0578 -0.0436  0.1280
  128CHL1  H26A15726   4.643   5.303  15.164 -2.5271 -2.5308  0.7468
  128CHL1  H26B15727   4.592   5.488  15.148  0.8051 -0.3549  1.6885
  128CHL1  H26C15728   4.479   5.351  15.196 -0.4835  1.2651  0.0034
  128CHL1   C2715729   4.506   5.203  14.971 -0.0928  0.5871  0.5624
  128CHL1  H27A15730   4.409   5.166  15.011 -0.3708 -0.5459 -1.0540
  128CHL1  H27B15731   4.516   5.178  14.863 -1.5270  1.2706  0.2506
  128CHL1  H27C15732   4.577   5.144  15.032  0.1311  0.0192 -0.2317
  129CHL1    C315733   1.687   1.408  13.340 -0.1586  0.4250 -0.3362
  129CHL1    H315734   1.578   1.399  13.362  0.0711 -1.3345  0.2738
  129CHL1    O315735   1.710   1.356  13.203 -0.3883 -0.5450 -0.1023
  129CHL1   H3'15736   1.694   1.262  13.197  2.0310 -0.9196 -3.2184
  129CHL1    C415737   1.744   1.548  13.375  0.5939  0.3954  0.0116
  129CHL1   H4A15738   1.852   1.536  13.353  0.4061 -0.5870 -0.4519
  129CHL1   H4B15739   1.714   1.630  13.307 -1.2629  0.3890  0.7602
  129CHL1    C515740   1.720   1.584  13.520 -0.1112 -0.6003  0.5180
  129CHL1    C615741   1.658   1.701  13.554  0.3792  0.2190  0.0876
  129CHL1    H615742   1.625   1.767  13.472  0.9685  0.0632 -0.2841
  129CHL1    C715743   1.630   1.739  13.703  0.1508  0.1284  0.0752
  129CHL1   H7A15744   1.671   1.842  13.706  3.0276 -0.9481  0.1706
  129CHL1   H7B15745   1.521   1.741  13.727  0.0447 -2.7566  0.2516
  129CHL1    C815746   1.703   1.641  13.810  0.5147 -0.0681 -0.7764
  129CHL1    H815747   1.810   1.668  13.808 -0.0341  2.3717 -0.3886
  129CHL1   C1415748   1.637   1.663  13.946 -0.5002 -0.3778  0.0365
  129CHL1   H1415749   1.532   1.628  13.938 -0.3664 -0.3457 -2.7320
  129CHL1   C1515750   1.635   1.810  13.998 -0.1487  0.0899  0.1154
  129CHL1  H15A15751   1.736   1.852  13.978  0.8229 -0.7045  2.8846
  129CHL1  H15B15752   1.547   1.858  13.950 -0.9063 -2.4037 -1.1487
  129CHL1   C1615753   1.621   1.785  14.148 -0.6722 -0.9859 -0.5761
  129CHL1  H16A15754   1.699   1.841  14.204 -1.5061 -0.2416 -0.1352
  129CHL1  H16B15755   1.522   1.827  14.176 -1.1694 -0.5809 -2.7836
  129CHL1   C1715756   1.638   1.635  14.176  0.0869  0.1801  0.2329
  129CHL1   H1715757   1.536   1.592  14.186  1.1116 -1.8315  3.5906
  129CHL1   C1315758   1.704   1.570  14.048  0.6705 -0.3668 -0.6884
  129CHL1   C1815759   1.854   1.597  14.064  0.4311  0.0696  0.2081
  129CHL1  H18A15760   1.908   1.531  14.136  0.7466  3.3491  3.2170
  129CHL1  H18B15761   1.910   1.583  13.968  2.1713  1.4962  0.9576
  129CHL1  H18C15762   1.880   1.701  14.093 -0.0846  0.8854 -2.0224
  129CHL1   C1215763   1.679   1.426  14.008 -0.2268  0.1730 -0.4612
  129CHL1  H12A15764   1.721   1.356  14.083 -1.6584  0.2611  0.4602
  129CHL1  H12B15765   1.568   1.416  14.006 -0.2049  0.0443 -1.3607
  129CHL1   C1115766   1.731   1.390  13.869  0.3344  0.3233 -0.0280
  129CHL1  H11A15767   1.842   1.383  13.881  0.1360 -1.3877  1.1991
  129CHL1  H11B15768   1.694   1.290  13.839  0.1196  0.7097 -1.0822
  129CHL1    C915769   1.696   1.499  13.763 -0.2411  0.6133  0.1224
  129CHL1    H915770   1.587   1.492  13.745 -0.3405 -0.6580  1.0558
  129CHL1   C1015771   1.768   1.480  13.622  0.1528 -0.1894 -0.4598
  129CHL1   C1915772   1.926   1.485  13.652 -0.4561  0.3370 -0.4223
  129CHL1  H19A15773   1.955   1.397  13.713  0.2138  1.5447  1.0768
  129CHL1  H19B15774   1.969   1.464  13.552 -1.9495 -2.5219 -0.5686
  129CHL1  H19C15775   1.978   1.578  13.684  0.9173 -0.6879  0.4292
  129CHL1    C115776   1.738   1.336  13.570  0.2200  0.2228  0.0673
  129CHL1   H1A15777   1.799   1.258  13.621 -1.0584 -1.4242 -0.8261
  129CHL1   H1B15778   1.630   1.316  13.586  0.2699 -2.5673 -2.2005
  129CHL1    C215779   1.767   1.309  13.424 -0.0580  0.7276 -0.8362
  129CHL1   H2A15780   1.739   1.201  13.415  0.8766  0.3281  0.7458
  129CHL1   H2B15781   1.875   1.315  13.401  1.3567  1.3074  4.6315
  129CHL1   C2015782   1.697   1.597  14.320  0.9023  0.3792 -1.0023
  129CHL1   H2015783   1.806   1.620  14.315  1.6068 -2.2218  0.2049
  129CHL1   C2115784   1.690   1.444  14.360  0.3511 -0.7927  0.1322
  129CHL1  H21A15785   1.763   1.434  14.443  1.8928  1.4437 -0.8619
  129CHL1  H21B15786   1.713   1.376  14.275 -2.7115 -0.2792 -1.2661
  129CHL1  H21C15787   1.589   1.424  14.403 -0.0414  0.6847 -0.0565
  129CHL1   C2215788   1.629   1.682  14.435  0.2270  0.0137  0.5665
  129CHL1  H22A15789   1.659   1.788  14.419 -0.3341 -0.1621 -1.9894
  129CHL1  H22B15790   1.522   1.653  14.433 -0.5171  2.5457 -0.2658
  129CHL1   C2315791   1.686   1.653  14.575 -0.2619  0.4460 -0.5600
  129CHL1  H23A15792   1.645   1.554  14.606  0.8849 -0.4826 -1.8919
  129CHL1  H23B15793   1.796   1.643  14.566 -0.4062 -1.9852 -0.4603
  129CHL1   C2415794   1.660   1.765  14.672 -0.3417  0.0336  0.1806
  129CHL1  H24A15795   1.694   1.858  14.623 -0.6734  0.1123  0.0964
  129CHL1  H24B15796   1.552   1.779  14.695 -0.5049 -2.1705  1.0281
  129CHL1   C2515797   1.723   1.736  14.812  0.2837 -0.0441 -0.3242
  129CHL1   H2515798   1.831   1.709  14.809  0.3450 -0.4856  2.7882
  129CHL1   C2615799   1.703   1.859  14.902 -0.1439  0.1258 -0.2737
  129CHL1  H26A15800   1.746   1.853  15.005  2.7858  1.4908 -1.2914
  129CHL1  H26B15801   1.749   1.949  14.856  0.5170  0.3666  0.7982
  129CHL1  H26C15802   1.594   1.880  14.898 -0.0359  0.5220 -1.6801
  129CHL1   C2715803   1.661   1.608  14.872  0.4352  0.5902 -0.6047
  129CHL1  H27A15804   1.684   1.528  14.798  0.8435  0.5307 -0.4114
  129CHL1  H27B15805   1.690   1.583  14.976 -0.0886 -0.5728 -0.7213
  129CHL1  H27C15806   1.551   1.622  14.876  0.2032  1.6104 -5.1716
  130CHL1    C315807   5.147   2.016  13.207 -0.0500  0.1498  0.2784
  130CHL1    H315808   5.199   1.918  13.216  0.1805 -0.0439 -2.2498
  130CHL1    O315809   5.136   2.048  13.066 -0.4785  0.1366 -0.5050
  130CHL1   H3'15810   5.108   1.966  13.026 -0.5610 -0.0256 -0.1202
  130CHL1    C415811   5.012   2.019  13.282 -0.0001  0.4482 -0.6689
  130CHL1   H4A15812   4.962   2.114  13.254 -1.4205  0.3977  1.4346
  130CHL1   H4B15813   4.947   1.938  13.241  1.1769 -0.5975 -0.5283
  130CHL1    C515814   5.037   1.989  13.430 -0.2026 -0.2318 -0.0170
  130CHL1    C615815   4.981   1.881  13.495 -0.5161  0.6645  0.3523
  130CHL1    H615816   4.902   1.828  13.439  2.2745 -0.7897 -2.5370
  130CHL1    C715817   5.014   1.838  13.635  0.4683 -0.1934 -0.1096
  130CHL1   H7A15818   4.923   1.814  13.693  1.4849 -1.6282  0.9830
  130CHL1   H7B15819   5.075   1.746  13.619  1.0228  0.3628 -1.3310
  130CHL1    C815820   5.085   1.949  13.715 -0.4665  0.2052 -0.4419
  130CHL1    H815821   5.011   2.032  13.726  0.7799  1.5687 -1.7620
  130CHL1   C1415822   5.130   1.900  13.850  0.5725  0.5986 -0.0061
  130CHL1   H1415823   5.197   1.815  13.829  0.5341  0.4961  0.2838
  130CHL1   C1515824   5.016   1.851  13.944 -0.0485  0.0479 -0.4820
  130CHL1  H15A15825   4.936   1.928  13.935 -0.3478 -0.2410 -0.3029
  130CHL1  H15B15826   4.978   1.754  13.907 -1.6898  0.9776 -1.3628
  130CHL1   C1615827   5.086   1.848  14.080 -0.0372  0.8337 -0.2721
  130CHL1  H16A15828   5.020   1.881  14.163  0.3768 -0.9858  0.8573
  130CHL1  H16B15829   5.105   1.742  14.109 -0.1231  0.6452 -0.9050
  130CHL1   C1715830   5.223   1.914  14.063  0.1591  0.7679 -0.3828
  130CHL1   H1715831   5.297   1.835  14.040 -0.1407  0.3875 -0.0647
  130CHL1   C1315832   5.215   1.993  13.925  0.0161 -0.8098 -0.2599
  130CHL1   C1815833   5.142   2.130  13.955 -0.3261 -0.4115 -0.7407
  130CHL1  H18A15834   5.126   2.185  13.860 -0.3168  0.6792 -0.1282
  130CHL1  H18B15835   5.042   2.112  14.000  0.4951  1.4468  2.1150
  130CHL1  H18C15836   5.199   2.194  14.026 -5.2286  0.0514  3.3761
  130CHL1   C1215837   5.351   2.006  13.844 -0.4418 -0.3349 -0.0466
  130CHL1  H12A15838   5.426   2.076  13.888 -1.4538  1.1947 -0.6725
  130CHL1  H12B15839   5.393   1.907  13.818  1.8231  0.2251  1.2313
  130CHL1   C1115840   5.322   2.066  13.702 -0.0914  1.1359  0.0763
  130CHL1  H11A15841   5.299   2.174  13.710 -0.0329  1.1687 -0.1910
  130CHL1  H11B15842   5.418   2.063  13.647  1.2578 -2.4034  2.2858
  130CHL1    C915843   5.204   1.995  13.627  0.3534  0.2900 -1.0339
  130CHL1    H915844   5.254   1.901  13.594  1.5812 -0.2601  1.9787
  130CHL1   C1015845   5.156   2.072  13.500 -0.4221  0.2416 -0.3415
  130CHL1   C1915846   5.095   2.213  13.541  0.0025  1.1898 -0.9295
  130CHL1  H19A15847   5.162   2.275  13.605 -1.2137  0.3129  1.3264
  130CHL1  H19B15848   5.084   2.263  13.442  0.0016  0.7662 -1.1450
  130CHL1  H19C15849   4.992   2.201  13.582 -1.2564 -0.6536 -4.2461
  130CHL1    C115850   5.276   2.097  13.412 -0.2936  0.2010  0.5541
  130CHL1   H1A15851   5.329   2.185  13.453 -0.7687  1.0192 -0.5344
  130CHL1   H1B15852   5.345   2.009  13.415 -0.8707 -0.3593 -1.1759
  130CHL1    C215853   5.248   2.117  13.265 -0.5673  0.0144 -0.2042
  130CHL1   H2A15854   5.345   2.117  13.210 -0.4107  0.9230  0.0390
  130CHL1   H2B15855   5.210   2.221  13.253 -0.5283 -0.2064 -2.7241
  130CHL1   C2015856   5.262   1.996  14.187 -0.1786 -0.1383 -0.0112
  130CHL1   H2015857   5.191   2.078  14.212 -0.2470 -0.0278 -0.5560
  130CHL1   C2115858   5.403   2.061  14.164  0.6389 -0.1000  0.5131
  130CHL1  H21A15859   5.404   2.132  14.078 -1.8697  0.5420  0.9193
  130CHL1  H21B15860   5.476   1.982  14.135  0.4287  0.8051 -3.0408
  130CHL1  H21C15861   5.442   2.127  14.244  1.7747 -0.2765  0.1287
  130CHL1   C2215862   5.281   1.918  14.322 -0.1170  0.1132 -0.3941
  130CHL1  H22A15863   5.210   1.832  14.330  1.3855 -1.1591 -0.2885
  130CHL1  H22B15864   5.378   1.864  14.319  0.3064  0.5717  2.4921
  130CHL1   C2315865   5.283   2.009  14.450  0.3367 -0.0195 -0.3858
  130CHL1  H23A15866   5.371   2.077  14.453 -0.4610  1.0182  0.2523
  130CHL1  H23B15867   5.192   2.070  14.436 -0.1526 -1.1125 -2.4157
  130CHL1   C2415868   5.276   1.925  14.581 -0.3068  0.1533  0.7312
  130CHL1  H24A15869   5.174   1.881  14.577 -0.3488  0.1167  1.8602
  130CHL1  H24B15870   5.351   1.845  14.566 -0.3668  0.0630  0.9087
  130CHL1   C2515871   5.284   1.997  14.715  0.3871 -0.1541  0.0052
  130CHL1   H2515872   5.223   2.089  14.711  0.7913  0.1411  0.4179
  130CHL1   C2615873   5.211   1.906  14.813 -0.2777 -0.4777 -0.0143
  130CHL1  H26A15874   5.268   1.824  14.861  1.3857 -0.3438 -1.6577
  130CHL1  H26B15875   5.185   1.966  14.903 -0.9302 -2.0001  0.8496
  130CHL1  H26C15876   5.107   1.878  14.787 -1.8582  1.8075  3.1681
  130CHL1   C2715877   5.427   2.032  14.751 -0.8133 -0.8120 -0.0589
  130CHL1  H27A15878   5.435   2.088  14.847 -0.3113  2.7667 -2.0141
  130CHL1  H27B15879   5.482   1.936  14.759  1.4122  0.1340 -2.6985
  130CHL1  H27C15880   5.467   2.098  14.671  1.9025  0.1343  1.9343
  131CHL1    C315881   4.457   0.911  13.545  0.0204 -0.6114 -0.1806
  131CHL1    H315882   4.521   0.997  13.572  0.2257 -1.3965  2.0118
  131CHL1    O315883   4.426   0.903  13.404 -0.2627 -0.6271  0.3555
  131CHL1   H3'15884   4.380   0.822  13.378  1.8503 -1.0474 -2.7076
  131CHL1    C415885   4.554   0.793  13.579 -0.0244  0.0466  0.0027
  131CHL1   H4A15886   4.518   0.692  13.549 -0.1745  0.2404 -0.4746
  131CHL1   H4B15887   4.644   0.823  13.522  0.8830  0.0483  1.3920
  131CHL1    C515888   4.594   0.784  13.721  0.5589 -0.1525 -0.1400
  131CHL1    C615889   4.722   0.780  13.750  0.1548  0.0633 -0.6274
  131CHL1    H615890   4.798   0.767  13.671  1.6600 -0.8175  0.9007
  131CHL1    C715891   4.767   0.782  13.895  0.1956  0.2045 -0.2397
  131CHL1   H7A15892   4.867   0.736  13.911  0.8395  0.3297 -3.3263
  131CHL1   H7B15893   4.779   0.888  13.929  0.1601  0.0713  0.1925
  131CHL1    C815894   4.658   0.734  14.004 -0.2655 -0.4224  0.1564
  131CHL1    H815895   4.642   0.625  13.996 -2.4030 -0.1354 -0.2382
  131CHL1   C1415896   4.692   0.775  14.147 -0.7038  0.8308  0.0464
  131CHL1   H1415897   4.720   0.882  14.155  1.2835  0.2764  1.1719
  131CHL1   C1515898   4.824   0.715  14.203 -0.0161  0.0808  0.2950
  131CHL1  H15A15899   4.826   0.605  14.191  1.4573 -0.4632  4.0858
  131CHL1  H15B15900   4.909   0.758  14.146  2.2899 -2.9719  1.1879
  131CHL1   C1615901   4.816   0.746  14.354 -0.3401  0.4117  0.3412
  131CHL1  H16A15902   4.844   0.660  14.419 -0.8761  1.3983  1.9342
  131CHL1  H16B15903   4.885   0.830  14.377 -0.8579  0.6405  1.1161
  131CHL1   C1715904   4.663   0.784  14.378 -1.1145 -0.1426 -0.2666
  131CHL1   H1715905   4.656   0.895  14.382  2.4900  0.1962  0.1788
  131CHL1   C1315906   4.587   0.745  14.252  0.0416 -0.3584  0.6998
  131CHL1   C1815907   4.550   0.593  14.253  0.6426  0.0148 -0.7491
  131CHL1  H18A15908   4.534   0.556  14.150  1.1729  1.6750 -1.4662
  131CHL1  H18B15909   4.625   0.526  14.302  1.8884 -0.3815 -3.0750
  131CHL1  H18C15910   4.455   0.581  14.310  0.0684 -1.4959 -1.9751
  131CHL1   C1215911   4.463   0.832  14.214  0.2790 -0.0980 -0.0205
  131CHL1  H12A15912   4.383   0.821  14.291  2.0094 -0.7248  1.7632
  131CHL1  H12B15913   4.489   0.940  14.221  0.5953 -0.0988 -1.0286
  131CHL1   C1115914   4.404   0.792  14.076 -0.1842 -0.5446  0.0243
  131CHL1  H11A15915   4.370   0.688  14.092 -0.8723 -0.4328 -0.6056
  131CHL1  H11B15916   4.325   0.866  14.050  2.2384  2.2745  0.2153
  131CHL1    C915917   4.517   0.805  13.972 -0.8846 -0.6022  0.2264
  131CHL1    H915918   4.537   0.914  13.967 -2.9376 -0.2153 -0.5018
  131CHL1   C1015919   4.478   0.789  13.823  0.1426  0.2185  0.2088
  131CHL1   C1915920   4.420   0.646  13.814  0.3028 -0.2948  0.3598
  131CHL1  H19A15921   4.489   0.566  13.847  0.1670 -0.3026  0.6302
  131CHL1  H19B15922   4.337   0.638  13.888  1.3024 -1.0580  1.4193
  131CHL1  H19C15923   4.381   0.626  13.712 -1.5441 -0.2021  1.0061
  131CHL1    C115924   4.379   0.911  13.786 -0.5129  0.1133 -0.2959
  131CHL1   H1A15925   4.289   0.907  13.850 -0.0972 -0.0315  0.2890
  131CHL1   H1B15926   4.423   1.012  13.801 -0.7349  0.1335  0.2059
  131CHL1    C215927   4.333   0.913  13.635 -0.0307  0.0802 -0.8146
  131CHL1   H2A15928   4.264   0.999  13.616 -1.4803 -1.0003 -0.5926
  131CHL1   H2B15929   4.286   0.816  13.609  0.5889 -0.1723 -0.9877
  131CHL1   C2015930   4.610   0.733  14.522 -0.3329 -0.1410  0.1307
  131CHL1   H2015931   4.605   0.622  14.518  0.7636 -0.2294  0.7926
  131CHL1   C2115932   4.468   0.777  14.562  0.1145  0.1094  0.0375
  131CHL1  H21A15933   4.467   0.887  14.551  0.6439  0.0941 -0.1716
  131CHL1  H21B15934   4.443   0.735  14.662 -1.1105 -2.6836 -1.3322
  131CHL1  H21C15935   4.388   0.740  14.495 -1.7480  1.9477  1.1257
  131CHL1   C2215936   4.703   0.783  14.641  0.1610  0.4421 -0.4665
  131CHL1  H22A15937   4.672   0.734  14.736  0.1380 -2.9855 -2.0749
  131CHL1  H22B15938   4.805   0.745  14.619 -0.4432 -1.8426  0.4062
  131CHL1   C2315939   4.709   0.942  14.647 -0.1941 -0.2542 -0.6918
  131CHL1  H23A15940   4.759   0.983  14.557  1.9677  0.0916  0.5921
  131CHL1  H23B15941   4.612   0.995  14.659  0.3076  0.4515  0.3953
  131CHL1   C2415942   4.771   1.003  14.777 -0.0605  0.0406 -0.6969
  131CHL1  H24A15943   4.708   0.973  14.863  0.7347 -0.2959 -0.2126
  131CHL1  H24B15944   4.868   0.949  14.783  0.1945  0.6614  1.1596
  131CHL1   C2515945   4.803   1.151  14.780  0.1830 -0.0175  0.2756
  131CHL1   H2515946   4.859   1.179  14.688  0.8873  3.2034  1.5565
  131CHL1   C2615947   4.685   1.245  14.780  0.5808 -0.5385  0.1897
  131CHL1  H26A15948   4.633   1.246  14.681  2.6645 -0.9584 -0.9708
  131CHL1  H26B15949   4.611   1.215  14.858 -0.2848 -0.3192 -0.5241
  131CHL1  H26C15950   4.712   1.350  14.802 -1.0165 -0.5802  2.7586
  131CHL1   C2715951   4.898   1.183  14.893 -0.3427 -0.5279 -0.4745
  131CHL1  H27A15952   4.934   1.287  14.883 -0.9582  0.1542  3.1369
  131CHL1  H27B15953   4.840   1.183  14.988 -0.5873  2.8456 -0.5235
  131CHL1  H27C15954   4.984   1.112  14.895 -0.9500 -1.2716  0.6716
  132CHL1    C315955   6.131   2.253  13.292 -1.1481 -0.7767 -0.0737
  132CHL1    H315956   6.048   2.326  13.285  0.0642  0.4874 -2.2813
  132CHL1    O315957   6.158   2.186  13.171 -0.4081 -0.3909  0.0610
  132CHL1   H3'15958   6.231   2.125  13.186  1.5250  1.7045 -0.4282
  132CHL1    C415959   6.269   2.317  13.334 -0.0006 -0.0277  0.7299
  132CHL1   H4A15960   6.342   2.234  13.327 -0.5490 -0.4340 -0.2508
  132CHL1   H4B15961   6.304   2.388  13.257 -2.7894 -1.2569 -1.8594
  132CHL1    C515962   6.267   2.378  13.469 -0.4663  0.0569  0.1728
  132CHL1    C615963   6.294   2.503  13.492 -0.5078 -0.6807  0.9078
  132CHL1    H615964   6.322   2.567  13.406 -1.4671 -0.2038  0.9291
  132CHL1    C715965   6.281   2.581  13.621  0.7008  0.1398  0.7417
  132CHL1   H7A15966   6.367   2.641  13.655  0.6736  0.0638  0.9468
  132CHL1   H7B15967   6.191   2.646  13.613  1.1919  0.9303  1.4684
  132CHL1    C815968   6.265   2.480  13.740  0.3265  0.5875  0.0546
  132CHL1    H815969   6.364   2.429  13.750  0.1924  0.2946 -0.1019
  132CHL1   C1415970   6.230   2.549  13.873 -0.7820 -0.2723 -0.0461
  132CHL1   H1415971   6.122   2.571  13.856 -0.5479 -0.4854 -1.9478
  132CHL1   C1515972   6.307   2.669  13.918 -0.3879  0.1056  0.4483
  132CHL1  H15A15973   6.414   2.649  13.896 -0.9825 -0.0402 -2.7662
  132CHL1  H15B15974   6.278   2.763  13.866  1.5232  0.1191 -0.7216
  132CHL1   C1615975   6.272   2.695  14.064 -0.0451  0.1124 -0.1279
  132CHL1  H16A15976   6.369   2.711  14.114 -0.0067  0.1970 -0.2297
  132CHL1  H16B15977   6.200   2.780  14.069 -0.2379 -0.0459 -0.1818
  132CHL1   C1715978   6.199   2.560  14.116 -0.2272 -0.0169 -0.6393
  132CHL1   H1715979   6.091   2.584  14.112 -0.0129  0.9029 -1.2541
  132CHL1   C1315980   6.222   2.456  14.001 -0.3529  0.3486 -0.2742
  132CHL1   C1815981   6.361   2.386  14.022 -0.6946  1.2923  0.0746
  132CHL1  H18A15982   6.407   2.360  13.924 -0.7073  0.9446  0.1605
  132CHL1  H18B15983   6.444   2.445  14.066  1.4101 -0.6586 -1.0692
  132CHL1  H18C15984   6.348   2.301  14.092 -0.3889  0.6599 -0.6298
  132CHL1   C1215985   6.111   2.364  13.968  0.6696 -0.0836 -0.0344
  132CHL1  H12A15986   6.095   2.294  14.052 -3.9461  0.4754 -0.2377
  132CHL1  H12B15987   6.014   2.417  13.964  0.7024  0.2310  2.1274
  132CHL1   C1115988   6.127   2.284  13.835  0.4812 -0.0723 -0.0632
  132CHL1  H11A15989   6.218   2.222  13.844  0.8136  0.4220  0.0308
  132CHL1  H11B15990   6.029   2.233  13.820  0.3909  0.7312 -2.7209
  132CHL1    C915991   6.156   2.369  13.708 -0.5569 -0.3493 -0.3145
  132CHL1    H915992   6.061   2.421  13.687 -1.3892 -0.9203  1.7461
  132CHL1   C1015993   6.209   2.287  13.588  0.0857  0.6638 -0.3815
  132CHL1   C1915994   6.318   2.184  13.619 -0.9659 -0.3101 -0.5952
  132CHL1  H19A15995   6.368   2.153  13.525 -2.4455 -0.7675 -1.2532
  132CHL1  H19B15996   6.396   2.235  13.680 -1.4853 -0.4361  0.1985
  132CHL1  H19C15997   6.279   2.088  13.660 -0.9608 -0.6168 -1.2937
  132CHL1    C115998   6.081   2.215  13.538 -0.1435 -0.5871  0.1240
  132CHL1   H1A15999   6.069   2.131  13.608  2.0584 -0.3205  0.9157
  132CHL1   H1B16000   5.985   2.269  13.550 -0.3551 -0.7150 -0.8663
  132CHL1    C216001   6.092   2.145  13.397 -0.3984  0.4420 -0.6645
  132CHL1   H2A16002   5.992   2.102  13.379 -0.7559  0.2372  1.5852
  132CHL1   H2B16003   6.174   2.070  13.403  0.3127  1.0442 -2.2072
  132CHL1   C2016004   6.232   2.512  14.260 -0.4572  0.1147 -1.0633
  132CHL1   H2016005   6.338   2.477  14.263 -0.8267 -1.0524 -1.0328
  132CHL1   C2116006   6.132   2.398  14.301  0.7144 -0.3523  0.1589
  132CHL1  H21A16007   6.157   2.367  14.404 -0.5821  0.9820  0.9090
  132CHL1  H21B16008   6.165   2.316  14.233  0.1470  1.2817 -2.2447
  132CHL1  H21C16009   6.027   2.426  14.280  0.1841 -1.8545  0.7516
  132CHL1   C2216010   6.216   2.628  14.362 -0.3437 -0.2359 -0.2534
  132CHL1  H22A16011   6.278   2.714  14.329  0.6904 -1.3954 -1.4884
  132CHL1  H22B16012   6.116   2.670  14.338 -0.5998  0.3455  1.7333
  132CHL1   C2316013   6.216   2.585  14.512 -0.2697  0.2578  0.2765
  132CHL1  H23A16014   6.128   2.524  14.540 -0.2043  1.0242  2.3118
  132CHL1  H23B16015   6.311   2.529  14.522 -0.4623 -0.4489 -1.4751
  132CHL1   C2416016   6.217   2.711  14.604 -0.1165  0.7964 -0.5602
  132CHL1  H24A16017   6.305   2.770  14.572  0.9731 -1.1759 -1.3844
  132CHL1  H24B16018   6.130   2.776  14.584  0.0233  0.5654 -1.9623
  132CHL1   C2516019   6.244   2.688  14.760  0.1936 -0.6853  0.6698
  132CHL1   H2516020   6.158   2.625  14.793 -0.4645  0.3987  1.1056
  132CHL1   C2616021   6.374   2.617  14.782 -0.2498  0.4192  0.4920
  132CHL1  H26A16022   6.406   2.614  14.889  2.7669 -0.0323 -0.3484
  132CHL1  H26B16023   6.367   2.513  14.746 -0.2401  0.8230 -0.7060
  132CHL1  H26C16024   6.457   2.667  14.728  0.6173 -2.1030 -0.6471
  132CHL1   C2716025   6.229   2.819  14.834 -0.1631 -0.0218 -0.0596
  132CHL1  H27A16026   6.137   2.870  14.797 -0.5366 -0.4602  0.2631
  132CHL1  H27B16027   6.225   2.806  14.944 -1.6321  2.7909  0.3194
  132CHL1  H27C16028   6.317   2.884  14.813 -0.7114  0.6552 -0.3063
  133CHL1    C316029   3.776   4.863  13.559 -0.0488  0.1906  0.4860
  133CHL1    H316030   3.883   4.889  13.566 -0.4626  1.7815  1.2627
  133CHL1    O316031   3.735   4.866  13.421 -0.2445 -0.0904  0.2948
  133CHL1   H3'16032   3.672   4.939  13.417  0.4865  0.7265  2.3543
  133CHL1    C416033   3.755   4.721  13.617 -0.2900 -0.3669 -0.6143
  133CHL1   H4A16034   3.650   4.685  13.609 -0.4484 -0.4875  1.4063
  133CHL1   H4B16035   3.818   4.649  13.559 -0.8767 -0.3071 -1.3353
  133CHL1    C516036   3.786   4.724  13.765  0.2792 -0.2208 -0.0116
  133CHL1    C616037   3.878   4.640  13.816  0.0022 -0.0431  0.0094
  133CHL1    H616038   3.925   4.575  13.741  1.7067  2.3135 -1.0486
  133CHL1    C716039   3.902   4.620  13.963  0.0593  0.4384 -1.0672
  133CHL1   H7A16040   3.906   4.514  13.995 -0.1195  0.6547 -0.3110
  133CHL1   H7B16041   4.007   4.656  13.974 -0.3087  0.9855  1.0853
  133CHL1    C816042   3.802   4.699  14.049 -1.0698  0.1404 -0.2515
  133CHL1    H816043   3.708   4.644  14.070 -0.1532 -2.2272 -2.0266
  133CHL1   C1416044   3.860   4.721  14.191 -0.5045 -0.5313  0.4644
  133CHL1   H1416045   3.941   4.796  14.179 -1.5598  0.8392  1.5014
  133CHL1   C1516046   3.925   4.602  14.261  0.3294 -0.2442 -0.0770
  133CHL1  H15A16047   3.886   4.502  14.234 -0.8643  0.3766 -0.7087
  133CHL1  H15B16048   4.033   4.601  14.233  0.9405  0.3297  2.0828
  133CHL1   C1616049   3.917   4.633  14.408  0.1157  0.1008 -0.0480
  133CHL1  H16A16050   3.861   4.552  14.459  0.0621 -1.2877 -2.1912
  133CHL1  H16B16051   4.020   4.627  14.448  0.7523 -1.6743 -1.8374
  133CHL1   C1716052   3.854   4.776  14.424  0.7202 -0.1860 -0.1753
  133CHL1   H1716053   3.940   4.847  14.423  0.3299  0.3290  1.2327
  133CHL1   C1316054   3.769   4.790  14.291  0.0680 -0.1765 -0.3781
  133CHL1   C1816055   3.637   4.703  14.309  0.1319 -0.8515 -0.7283
  133CHL1  H18A16056   3.562   4.747  14.377  2.1225 -0.9824  1.7131
  133CHL1  H18B16057   3.577   4.690  14.217 -0.7318 -0.0611 -0.2935
  133CHL1  H18C16058   3.664   4.609  14.362  2.5946  1.3567  2.3798
  133CHL1   C1216059   3.741   4.928  14.228  0.2833 -0.4424  0.1969
  133CHL1  H12A16060   3.664   4.981  14.288 -0.3033 -1.2131  0.1340
  133CHL1  H12B16061   3.838   4.982  14.222 -0.1809  0.4203  0.2592
  133CHL1   C1116062   3.680   4.910  14.089  0.2290 -0.0503 -0.2537
  133CHL1  H11A16063   3.585   4.852  14.093  0.0646  0.1583 -1.1155
  133CHL1  H11B16064   3.664   5.014  14.054 -0.8290  0.2472  1.0311
  133CHL1    C916065   3.766   4.832  13.989 -0.1305 -0.0322 -0.7472
  133CHL1    H916066   3.863   4.886  13.981  0.4738 -1.0533 -0.5035
  133CHL1   C1016067   3.701   4.822  13.848 -0.1703 -0.2241  0.0834
  133CHL1   C1916068   3.553   4.779  13.850 -0.2197  0.5275 -0.8052
  133CHL1  H19A16069   3.494   4.838  13.923  2.3776  1.1996  0.8803
  133CHL1  H19B16070   3.507   4.790  13.749 -0.6916  0.4387 -0.6054
  133CHL1  H19C16071   3.547   4.673  13.882  1.1838  0.7480  0.2735
  133CHL1    C116072   3.720   4.959  13.778  0.0790  0.6182 -0.1755
  133CHL1   H1A16073   3.668   5.032  13.845 -0.2860 -0.3298  0.5932
  133CHL1   H1B16074   3.829   4.982  13.779  0.6593 -1.8793 -1.2823
  133CHL1    C216075   3.687   4.963  13.634  0.2551 -0.1395  0.5159
  133CHL1   H2A16076   3.729   5.058  13.595 -0.1042 -0.1503  0.1045
  133CHL1   H2B16077   3.579   4.963  13.611  1.0121  0.5085 -3.9840
  133CHL1   C2016078   3.773   4.791  14.557  0.4930 -0.5185  0.4078
  133CHL1   H2016079   3.698   4.713  14.582 -1.1467  1.3040  1.4837
  133CHL1   C2116080   3.710   4.931  14.572 -0.2578 -0.4917 -0.6442
  133CHL1  H21A16081   3.652   4.921  14.667  0.7041  1.8641  0.2628
  133CHL1  H21B16082   3.647   4.959  14.484 -0.5282  1.4360  0.1149
  133CHL1  H21C16083   3.787   5.011  14.576  0.7578 -1.5175  1.2345
  133CHL1   C2216084   3.865   4.768  14.683 -0.3045 -0.1964 -0.0959
  133CHL1  H22A16085   3.928   4.679  14.661  0.3435  0.1388  0.3840
  133CHL1  H22B16086   3.935   4.853  14.697 -0.7574  0.1352  0.1945
  133CHL1   C2316087   3.804   4.735  14.813  0.1257  0.3341 -0.1629
  133CHL1  H23A16088   3.768   4.822  14.872 -1.8844 -0.4457 -0.1746
  133CHL1  H23B16089   3.710   4.680  14.795  0.5669 -0.1989 -0.9191
  133CHL1   C2416090   3.896   4.649  14.902 -0.1419  0.6198  0.0133
  133CHL1  H24A16091   3.904   4.552  14.848 -0.9723 -0.0971  1.1393
  133CHL1  H24B16092   3.995   4.699  14.907  1.4492 -2.3834  0.5200
  133CHL1   C2516093   3.842   4.604  15.037  0.2614  0.1823  0.3310
  133CHL1   H2516094   3.747   4.548  15.026 -0.1438  0.7612  0.8330
  133CHL1   C2616095   3.950   4.503  15.089 -0.0631  0.0010  0.3995
  133CHL1  H26A16096   4.047   4.556  15.100  0.6190 -0.8312 -1.2972
  133CHL1  H26B16097   3.915   4.463  15.187 -4.6267 -0.3536 -1.1644
  133CHL1  H26C16098   3.973   4.416  15.024  1.3104 -0.1458  1.0303
  133CHL1   C2716099   3.817   4.720  15.135 -0.3624 -1.0811  0.7353
  133CHL1  H27A16100   3.913   4.775  15.131 -1.2369  0.4332 -0.9172
  133CHL1  H27B16101   3.747   4.798  15.099  1.6739  0.4477 -0.0866
  133CHL1  H27C16102   3.784   4.681  15.234 -1.3344 -4.3774 -0.7316
  134CHL1    C316103   1.989   6.514  14.003 -0.3275 -0.1191 -0.3061
  134CHL1    H316104   2.013   6.621  14.026  0.1354  0.3625 -2.6928
  134CHL1    O316105   2.003   6.494  13.870  0.2094 -0.1039  0.4825
  134CHL1   H3'16106   1.947   6.416  13.861 -0.5365  0.5259 -0.4398
  134CHL1    C416107   2.086   6.425  14.079  0.4875  0.4289 -0.8547
  134CHL1   H4A16108   2.089   6.322  14.036  0.1713 -0.3684  0.9606
  134CHL1   H4B16109   2.187   6.459  14.046  0.8037 -0.7332 -1.1408
  134CHL1    C516110   2.069   6.419  14.228 -0.1949  0.0661 -0.7862
  134CHL1    C616111   2.175   6.452  14.307  0.3088  0.5275 -0.8082
  134CHL1    H616112   2.273   6.477  14.263  1.2430 -0.4571  0.6406
  134CHL1    C716113   2.164   6.445  14.455  0.2440 -0.6141 -0.7180
  134CHL1   H7A16114   2.252   6.395  14.501  0.6425 -0.5621 -1.4141
  134CHL1   H7B16115   2.163   6.545  14.502 -0.4763 -0.9938  0.1009
  134CHL1    C816116   2.040   6.364  14.503  0.1585 -0.3264 -0.2186
  134CHL1    H816117   2.069   6.260  14.475 -0.3478 -1.2457  2.4047
  134CHL1   C1416118   2.016   6.373  14.653  0.1478 -0.7603 -0.0804
  134CHL1   H1416119   1.994   6.480  14.673 -3.0010 -1.7834  2.7139
  134CHL1   C1516120   2.134   6.336  14.748  0.4179  0.8140  0.1622
  134CHL1  H15A16121   2.175   6.234  14.729  0.3844  0.8525 -0.1284
  134CHL1  H15B16122   2.223   6.402  14.741  1.9379 -1.1131  0.5440
  134CHL1   C1616123   2.065   6.342  14.893  0.2089 -0.0298 -0.4190
  134CHL1  H16A16124   2.105   6.253  14.947  2.0323  0.3578 -1.0885
  134CHL1  H16B16125   2.094   6.428  14.956 -3.3161 -0.8040  2.6637
  134CHL1   C1716126   1.917   6.332  14.866 -0.2392 -0.7455 -0.5284
  134CHL1   H1716127   1.873   6.433  14.881  2.0949  0.4090 -1.0614
  134CHL1   C1316128   1.899   6.302  14.714 -0.0566  1.1775 -0.7721
  134CHL1   C1816129   1.907   6.145  14.691 -0.6314 -0.2592 -0.2892
  134CHL1  H18A16130   1.807   6.096  14.698  1.1558 -4.1064  1.4125
  134CHL1  H18B16131   1.961   6.112  14.600 -0.2326 -2.1287  0.5751
  134CHL1  H18C16132   1.971   6.104  14.772 -0.4404 -0.9584 -0.7833
  134CHL1   C1216133   1.775   6.356  14.641  0.2642 -0.0878 -0.5924
  134CHL1  H12A16134   1.678   6.308  14.665 -0.0121 -0.8753 -3.0066
  134CHL1  H12B16135   1.764   6.465  14.657 -1.7519 -0.2300 -0.8177
  134CHL1   C1116136   1.788   6.328  14.485 -0.2100 -0.3663  0.3993
  134CHL1  H11A16137   1.775   6.221  14.459  0.1259 -0.3473  0.1337
  134CHL1  H11B16138   1.704   6.380  14.433  1.7530  2.1286 -0.5132
  134CHL1    C916139   1.920   6.398  14.429  0.4633  0.1478 -0.5208
  134CHL1    H916140   1.904   6.506  14.446 -1.6249 -0.0465 -0.9726
  134CHL1   C1016141   1.933   6.386  14.272  0.3794 -0.6923 -0.6633
  134CHL1   C1916142   1.912   6.245  14.225 -0.9205 -0.0275 -0.0044
  134CHL1  H19A16143   1.933   6.231  14.117  1.1058  0.9557  0.2262
  134CHL1  H19B16144   1.968   6.172  14.288 -0.6483  1.0816  1.0732
  134CHL1  H19C16145   1.804   6.222  14.241 -1.1289  1.3477  0.7322
  134CHL1    C116146   1.829   6.484  14.201 -0.0767 -0.2733 -0.6998
  134CHL1   H1A16147   1.730   6.447  14.232 -0.8948  0.8711 -1.8320
  134CHL1   H1B16148   1.834   6.589  14.237 -1.3465 -1.0470  1.9374
  134CHL1    C216149   1.849   6.476  14.049  0.0531  0.7321  0.1707
  134CHL1   H2A16150   1.778   6.552  14.012 -0.0461 -0.3987 -2.1384
  134CHL1   H2B16151   1.816   6.378  14.009  1.0835  0.1676  0.6639
  134CHL1   C2016152   1.839   6.248  14.973  0.8332 -0.3133 -0.7423
  134CHL1   H2016153   1.872   6.142  14.965  1.7361 -0.1476  0.5174
  134CHL1   C2116154   1.689   6.240  14.936  0.7818 -0.2737  0.1384
  134CHL1  H21A16155   1.648   6.342  14.949  0.6241 -0.1295 -1.4154
  134CHL1  H21B16156   1.633   6.171  15.003 -0.9230 -0.0713 -1.0137
  134CHL1  H21C16157   1.676   6.201  14.833  0.2330 -0.5169  0.2921
  134CHL1   C2216158   1.858   6.294  15.116 -0.6513  0.6792  0.1474
  134CHL1  H22A16159   1.966   6.287  15.139 -0.7436 -4.9236  0.2522
  134CHL1  H22B16160   1.820   6.395  15.144 -1.0465  0.3638  0.7714
  134CHL1   C2316161   1.804   6.185  15.221  0.4466 -0.2283  0.1602
  134CHL1  H23A16162   1.695   6.176  15.203  0.0425  0.7197  1.8619
  134CHL1  H23B16163   1.847   6.085  15.202  1.9019  0.6129 -1.3138
  134CHL1   C2416164   1.833   6.234  15.364  0.2522 -0.2772 -0.1166
  134CHL1  H24A16165   1.942   6.253  15.375  0.4234 -1.8098  1.3609
  134CHL1  H24B16166   1.778   6.329  15.378  0.4348  0.0517 -1.4209
  134CHL1   C2516167   1.790   6.130  15.470 -0.0897 -0.3017  0.6361
  134CHL1   H2516168   1.859   6.044  15.455 -2.3805 -2.2744  0.7690
  134CHL1   C2616169   1.810   6.184  15.610  0.6574 -0.1289  0.0553
  134CHL1  H26A16170   1.772   6.104  15.678  1.8704 -2.4073 -1.8127
  134CHL1  H26B16171   1.918   6.197  15.635  0.8057  3.1163 -1.8175
  134CHL1  H26C16172   1.758   6.281  15.616  1.2077  0.2609 -1.1788
  134CHL1   C2716173   1.645   6.074  15.444 -0.8895 -0.2229 -0.1269
  134CHL1  H27A16174   1.636   6.021  15.347 -1.5406 -3.1807  1.4225
  134CHL1  H27B16175   1.627   5.990  15.515  0.2322  0.6158  1.2166
  134CHL1  H27C16176   1.559   6.142  15.461 -2.7943 -2.8339  1.3287
  135CHL1    C316177   1.465   6.172  13.846 -0.5733 -0.1689  0.2562
  135CHL1    H316178   1.486   6.063  13.840 -1.3450 -0.2482 -1.7353
  135CHL1    O316179   1.488   6.232  13.713  0.3250 -0.4123 -0.1424
  135CHL1   H3'16180   1.453   6.320  13.728  2.2035  0.3379  0.1370
  135CHL1    C416181   1.321   6.202  13.893 -0.6379  0.1689  0.4680
  135CHL1   H4A16182   1.297   6.310  13.883  1.6230  0.5837 -1.1351
  135CHL1   H4B16183   1.260   6.153  13.814  0.9075 -0.8006 -0.1689
  135CHL1    C516184   1.297   6.158  14.033  0.1354  0.3179 -0.1550
  135CHL1    C616185   1.206   6.064  14.062  0.3780  0.4099  0.0378
  135CHL1    H616186   1.137   6.029  13.984  0.8259 -2.4403  0.7925
  135CHL1    C716187   1.182   6.007  14.197 -0.2377 -0.0974  0.0434
  135CHL1   H7A16188   1.072   6.007  14.209 -0.4378 -0.7653 -1.5341
  135CHL1   H7B16189   1.221   5.904  14.209  0.9290  0.4342  1.0708
  135CHL1    C816190   1.244   6.105  14.302  0.6779  0.3280  0.0049
  135CHL1    H816191   1.179   6.195  14.307 -0.2123 -0.3642  3.0002
  135CHL1   C1416192   1.230   6.045  14.438 -0.3584 -0.5862  0.4070
  135CHL1   H1416193   1.287   5.950  14.446  0.7791 -0.1265 -1.6177
  135CHL1   C1516194   1.084   6.018  14.491  0.1592 -0.2470  0.2117
  135CHL1  H15A16195   1.025   6.108  14.462  1.5880  0.0431 -2.0379
  135CHL1  H15B16196   1.043   5.924  14.447 -2.5786  0.7938  0.3044
  135CHL1   C1616197   1.098   6.018  14.648  0.0285 -1.0524  0.0328
  135CHL1  H16A16198   1.040   6.103  14.691  2.7589  1.1540 -0.3460
  135CHL1  H16B16199   1.065   5.929  14.706  1.2857 -0.1367  2.2669
  135CHL1   C1716200   1.248   6.057  14.675  0.1894  0.2961  0.0888
  135CHL1   H1716201   1.297   5.958  14.665 -1.1623 -0.2403 -1.8538
  135CHL1   C1316202   1.303   6.129  14.551  0.1433 -0.1287  0.2731
  135CHL1   C1816203   1.255   6.276  14.559 -0.2023  0.6062 -0.1821
  135CHL1  H18A16204   1.151   6.295  14.592  1.0370  2.5333  3.1351
  135CHL1  H18B16205   1.319   6.334  14.629 -1.1904  0.8615  0.5377
  135CHL1  H18C16206   1.278   6.325  14.462 -2.2026  1.4296 -0.2786
  135CHL1   C1216207   1.458   6.125  14.529 -0.3045  0.0360 -0.1289
  135CHL1  H12A16208   1.515   6.181  14.607  2.8521 -2.1555 -0.6689
  135CHL1  H12B16209   1.489   6.019  14.532 -1.2526 -0.2362  1.0816
  135CHL1   C1116210   1.486   6.184  14.388  0.8722 -0.3594  0.3186
  135CHL1  H11A16211   1.480   6.295  14.394 -0.1460 -0.2623 -1.5059
  135CHL1  H11B16212   1.592   6.160  14.370  1.4714  0.0324  2.9866
  135CHL1    C916213   1.394   6.133  14.275  0.3698  0.3090  0.0298
  135CHL1    H916214   1.432   6.032  14.247  0.9587  1.0573 -2.0533
  135CHL1   C1016215   1.401   6.208  14.138 -0.0526  0.1043 -0.7581
  135CHL1   C1916216   1.366   6.359  14.165  0.0098 -0.1821  0.0108
  135CHL1  H19A16217   1.260   6.378  14.193 -1.0279 -1.4337 -2.6589
  135CHL1  H19B16218   1.442   6.404  14.232  0.6200  0.2119 -0.9297
  135CHL1  H19C16219   1.369   6.405  14.064  0.2561  0.6072  0.3776
  135CHL1    C116220   1.550   6.203  14.087 -0.2126 -0.7447  0.2063
  135CHL1   H1A16221   1.614   6.272  14.146 -1.3817  0.6023 -0.0646
  135CHL1   H1B16222   1.592   6.100  14.091  2.4758  0.2498  0.0056
  135CHL1    C216223   1.563   6.239  13.941 -0.9842  0.1780 -0.4359
  135CHL1   H2A16224   1.666   6.208  13.915 -0.4545  0.2936  1.4406
  135CHL1   H2B16225   1.562   6.350  13.929  0.0354  0.5701  2.3488
  135CHL1   C2016226   1.285   6.105  14.814  0.4853  0.5688 -0.6333
  135CHL1   H2016227   1.384   6.154  14.799 -0.1860  1.9376 -0.6954
  135CHL1   C2116228   1.302   5.973  14.897  0.0533  0.8355  0.0799
  135CHL1  H21A16229   1.205   5.927  14.923  0.1443  0.7043  0.1933
  135CHL1  H21B16230   1.347   6.005  14.994  1.9151  1.0938 -0.8244
  135CHL1  H21C16231   1.370   5.891  14.864  0.2267  0.6383  0.8881
  135CHL1   C2216232   1.183   6.207  14.876  0.7535 -0.4923  0.4884
  135CHL1  H22A16233   1.146   6.256  14.783  1.6996 -0.8052 -0.0726
  135CHL1  H22B16234   1.100   6.149  14.921 -0.3660 -0.0189 -0.8768
  135CHL1   C2316235   1.244   6.302  14.976 -0.0344 -0.0445  0.1277
  135CHL1  H23A16236   1.306   6.247  15.050 -0.3810 -0.1389  0.3514
  135CHL1  H23B16237   1.309   6.374  14.922 -1.6622  1.7412  0.4288
  135CHL1   C2416238   1.145   6.385  15.053 -0.3164  0.2540  0.0622
  135CHL1  H24A16239   1.084   6.451  14.988 -0.9038 -0.9386 -0.6335
  135CHL1  H24B16240   1.090   6.307  15.109  0.2823  0.0310  0.3499
  135CHL1   C2516241   1.198   6.485  15.165 -0.1102  0.1914  0.4404
  135CHL1   H2516242   1.265   6.559  15.116 -0.1064  2.2543  3.2838
  135CHL1   C2616243   1.085   6.567  15.235  0.5170  0.2331  0.8134
  135CHL1  H26A16244   1.019   6.605  15.155  3.3340  3.1147 -0.3716
  135CHL1  H26B16245   1.025   6.508  15.307  0.5543 -0.0036  0.6499
  135CHL1  H26C16246   1.124   6.653  15.294  1.7270 -1.2807  2.3382
  135CHL1   C2716247   1.289   6.407  15.266  0.5178 -0.3343  0.1545
  135CHL1  H27A16248   1.361   6.339  15.215  0.1438 -1.0885  0.5988
  135CHL1  H27B16249   1.342   6.480  15.331 -1.0579  2.6846 -1.7315
  135CHL1  H27C16250   1.223   6.337  15.322 -1.8383 -1.5642 -3.7071
  136CHL1    C316251   2.391   3.950  13.894 -0.2716  0.0867  0.2355
  136CHL1    H316252   2.489   3.916  13.935 -0.5528  0.7222  1.4728
  136CHL1    O316253   2.407   3.987  13.760  0.1202 -0.0889 -0.4340
  136CHL1   H3'16254   2.326   4.032  13.737 -0.3321 -0.0716  1.0803
  136CHL1    C416255   2.290   3.837  13.901 -0.1694 -0.4619 -0.3434
  136CHL1   H4A16256   2.192   3.868  13.861 -0.2806 -0.3470  0.0171
  136CHL1   H4B16257   2.326   3.749  13.843  1.7368 -0.6236  0.9547
  136CHL1    C516258   2.261   3.798  14.043 -0.3207 -0.8245  0.0109
  136CHL1    C616259   2.297   3.675  14.096  0.0027 -0.1664 -0.2762
  136CHL1    H616260   2.341   3.598  14.030 -0.2429  0.0230 -0.6689
  136CHL1    C716261   2.256   3.632  14.233  0.1524  0.1514 -0.7560
  136CHL1   H7A16262   2.213   3.531  14.218 -0.1628  0.3395 -1.1474
  136CHL1   H7B16263   2.351   3.624  14.290  0.6526 -0.5784 -1.6735
  136CHL1    C816264   2.154   3.731  14.305  0.2558  0.0337  0.5834
  136CHL1    H816265   2.054   3.716  14.260  0.0472  1.1159  0.6735
  136CHL1   C1416266   2.152   3.697  14.453  0.3337  0.6692  0.2355
  136CHL1   H1416267   2.255   3.710  14.492  0.8303 -0.4915 -0.6325
  136CHL1   C1516268   2.118   3.554  14.497  0.5255 -0.0880  0.2528
  136CHL1  H15A16269   2.032   3.520  14.436  1.8580 -0.8670 -1.2720
  136CHL1  H15B16270   2.207   3.496  14.464  0.0333  0.5173 -2.3328
  136CHL1   C1616271   2.099   3.565  14.640  0.3646  0.3968  0.0089
  136CHL1  H16A16272   2.013   3.506  14.678  2.1627  0.0966  4.1052
  136CHL1  H16B16273   2.193   3.529  14.687  0.6574  1.2186  0.0788
  136CHL1   C1716274   2.086   3.718  14.674 -0.1211 -0.9753 -0.8376
  136CHL1   H1716275   2.186   3.753  14.707  0.3294 -1.1289 -1.9740
  136CHL1   C1316276   2.065   3.785  14.540 -0.8054 -0.0978 -0.4461
  136CHL1   C1816277   1.920   3.776  14.494  0.3006 -0.9292  0.1778
  136CHL1  H18A16278   1.908   3.789  14.385  2.1893 -1.5470 -0.1281
  136CHL1  H18B16279   1.872   3.681  14.524 -2.3433  0.0071 -0.8126
  136CHL1  H18C16280   1.863   3.857  14.545  2.3293 -1.4594  3.5902
  136CHL1   C1216281   2.112   3.929  14.527  0.3801 -0.0077  0.3752
  136CHL1  H12A16282   2.043   4.000  14.578 -1.5826  0.2128 -2.3681
  136CHL1  H12B16283   2.210   3.940  14.576  0.4751  1.0354 -0.0274
  136CHL1   C1116284   2.115   3.974  14.376 -1.0553  0.0597  0.5419
  136CHL1  H11A16285   2.007   3.968  14.352 -0.9141 -3.5029  0.3486
  136CHL1  H11B16286   2.161   4.075  14.378  0.0718 -0.4080 -0.4286
  136CHL1    C916287   2.198   3.877  14.286 -0.1649  0.8566  0.3885
  136CHL1    H916288   2.300   3.882  14.330  0.5400  0.0899 -1.0750
  136CHL1   C1016289   2.216   3.916  14.136  0.7579  0.4437  0.4403
  136CHL1   C1916290   2.080   3.964  14.088  0.8191 -0.4900 -0.0876
  136CHL1  H19A16291   2.076   3.989  13.980  1.5411  0.1003  0.0144
  136CHL1  H19B16292   2.001   3.890  14.114  1.3738 -1.0249  0.0832
  136CHL1  H19C16293   2.059   4.062  14.135  2.5974 -0.1097 -0.0102
  136CHL1    C116294   2.316   4.037  14.116 -0.1779  0.4405 -0.2570
  136CHL1   H1A16295   2.282   4.132  14.163 -0.4185  0.7433 -1.0421
  136CHL1   H1B16296   2.413   4.010  14.164 -0.6122 -1.3080 -0.2990
  136CHL1    C216297   2.339   4.078  13.970  0.1097  0.0662  0.1142
  136CHL1   H2A16298   2.405   4.166  13.952 -2.6653  2.2880  0.0502
  136CHL1   H2B16299   2.246   4.110  13.918 -0.6551 -0.8381  0.9086
  136CHL1   C2016300   1.976   3.736  14.789  0.0892  0.0188  0.7133
  136CHL1   H2016301   1.874   3.708  14.757  0.5123 -0.3519 -0.3498
  136CHL1   C2116302   1.975   3.883  14.836  0.4012 -0.8530  0.0680
  136CHL1  H21A16303   2.077   3.913  14.866  0.0892  0.9370 -0.5043
  136CHL1  H21B16304   1.901   3.897  14.918 -1.3446  0.2231 -1.5938
  136CHL1  H21C16305   1.935   3.952  14.758  0.2651 -0.8231  0.1622
  136CHL1   C2216306   2.028   3.659  14.917  0.5395 -0.2323  0.2101
  136CHL1  H22A16307   1.955   3.679  14.999  1.4334 -1.7631  1.4446
  136CHL1  H22B16308   1.993   3.554  14.899 -2.2308  0.7255 -0.5363
  136CHL1   C2316309   2.180   3.645  14.957  0.2549  0.3356 -0.8308
  136CHL1  H23A16310   2.228   3.649  14.856  0.0212  3.7743 -0.9502
  136CHL1  H23B16311   2.207   3.734  15.018 -1.1687 -0.3683  0.8975
  136CHL1   C2416312   2.222   3.514  15.031 -0.5923  0.2024 -1.0187
  136CHL1  H24A16313   2.179   3.521  15.134  2.0132 -1.3785  0.2709
  136CHL1  H24B16314   2.176   3.430  14.975 -1.2727 -0.0025 -0.1774
  136CHL1   C2516315   2.373   3.505  15.055 -0.6608  0.0368 -0.3609
  136CHL1   H2516316   2.402   3.591  15.120 -0.4678  0.0933 -0.5182
  136CHL1   C2616317   2.406   3.365  15.115 -0.3715  0.3594  0.4440
  136CHL1  H26A16318   2.337   3.354  15.202  1.2060  0.9558  1.8272
  136CHL1  H26B16319   2.394   3.282  15.043  2.3299 -1.6816  2.1819
  136CHL1  H26C16320   2.511   3.349  15.146 -0.9247 -0.9767  1.7407
  136CHL1   C2716321   2.456   3.515  14.930  0.1628  0.0096 -0.0159
  136CHL1  H27A16322   2.565   3.510  14.952  0.8948  1.2060 -2.9589
  136CHL1  H27B16323   2.429   3.432  14.862  3.0089 -2.8724  2.0142
  136CHL1  H27C16324   2.438   3.602  14.865  0.8134 -1.5518 -2.4317
  137CHL1    C316325   2.673   5.428  13.753  0.0270 -0.2773  0.1985
  137CHL1    H316326   2.672   5.538  13.769  2.5061 -0.4887  2.6018
  137CHL1    O316327   2.644   5.417  13.610 -0.6834 -0.2696  0.1283
  137CHL1   H3'16328   2.587   5.491  13.587  0.4080  1.1978  1.9678
  137CHL1    C416329   2.811   5.367  13.787  0.4874  0.0670  0.0432
  137CHL1   H4A16330   2.828   5.264  13.749 -2.1404 -2.3121  4.4942
  137CHL1   H4B16331   2.876   5.426  13.719 -1.8126  3.5299  0.6051
  137CHL1    C516332   2.844   5.377  13.934 -0.5272  0.6240  0.3310
  137CHL1    C616333   2.967   5.423  13.972  0.7562 -0.3607 -0.3315
  137CHL1    H616334   3.041   5.448  13.895  2.6402 -1.7837  0.9236
  137CHL1    C716335   3.013   5.422  14.117  0.0453  0.3256 -0.6314
  137CHL1   H7A16336   3.104   5.359  14.129 -0.7836 -0.4738  2.3433
  137CHL1   H7B16337   3.037   5.522  14.158 -1.0407 -0.2595  1.5725
  137CHL1    C816338   2.913   5.352  14.210 -0.4457 -1.3340 -0.1313
  137CHL1    H816339   2.925   5.242  14.219 -0.7678 -1.2474  1.6601
  137CHL1   C1416340   2.947   5.397  14.354  0.2807 -0.2241  0.4276
  137CHL1   H1416341   2.910   5.501  14.358 -0.9442 -0.5625 -1.0813
  137CHL1   C1516342   3.094   5.397  14.398 -0.3959  0.0766 -0.3969
  137CHL1  H15A16343   3.133   5.301  14.358 -0.1222  0.9490 -2.3421
  137CHL1  H15B16344   3.149   5.480  14.349 -3.0300  1.5462 -1.0785
  137CHL1   C1616345   3.081   5.407  14.550  0.1541  0.6392  0.1308
  137CHL1  H16A16346   3.145   5.325  14.590  2.0866  1.4056 -1.2073
  137CHL1  H16B16347   3.118   5.500  14.598 -1.7156  1.6056 -0.2454
  137CHL1   C1716348   2.928   5.394  14.588 -0.4196 -0.0389 -0.2746
  137CHL1   H1716349   2.900   5.501  14.599 -1.9494 -0.5812  1.6748
  137CHL1   C1316350   2.865   5.333  14.464  0.7577 -0.6406  0.3511
  137CHL1   C1816351   2.874   5.179  14.466  0.3626 -0.1944 -0.4266
  137CHL1  H18A16352   2.851   5.127  14.371  2.8889  0.4625 -1.4770
  137CHL1  H18B16353   2.972   5.143  14.504 -0.1158 -0.8081  0.2617
  137CHL1  H18C16354   2.801   5.139  14.540 -0.0194  0.2700 -0.5450
  137CHL1   C1216355   2.716   5.363  14.434  0.6753 -0.3465  0.7069
  137CHL1  H12A16356   2.652   5.301  14.500  1.8838 -0.9614  1.3532
  137CHL1  H12B16357   2.693   5.469  14.459 -0.1849 -0.4490  0.3701
  137CHL1   C1116358   2.673   5.323  14.292  0.0375  0.5456 -0.6072
  137CHL1  H11A16359   2.683   5.213  14.283  0.6496  0.5778 -0.3749
  137CHL1  H11B16360   2.566   5.349  14.276 -0.5229 -1.4329 -0.2569
  137CHL1    C916361   2.768   5.380  14.175  0.4505  0.0429 -0.6293
  137CHL1    H916362   2.759   5.489  14.159  1.4860 -0.0094 -1.6756
  137CHL1   C1016363   2.733   5.332  14.028  0.1404  0.0348 -0.0237
  137CHL1   C1916364   2.718   5.181  14.016  0.0422 -0.5767 -0.2745
  137CHL1  H19A16365   2.808   5.140  14.068  0.8099  0.5391 -0.6880
  137CHL1  H19B16366   2.621   5.139  14.050 -0.6133 -1.3501 -2.8690
  137CHL1  H19C16367   2.716   5.143  13.912  1.4053  0.5214 -0.7303
  137CHL1    C116368   2.602   5.396  13.987  0.5913 -0.3780  0.5662
  137CHL1   H1A16369   2.517   5.359  14.047 -0.7494  0.7242 -0.5778
  137CHL1   H1B16370   2.609   5.504  14.015  0.7989 -0.2893  0.1952
  137CHL1    C216371   2.566   5.367  13.839 -0.2327 -0.1645 -0.0106
  137CHL1   H2A16372   2.464   5.406  13.815  0.1453  1.2223  0.5257
  137CHL1   H2B16373   2.566   5.258  13.820  0.9357  0.1396 -2.0484
  137CHL1   C2016374   2.905   5.331  14.722 -0.1837  0.1145 -0.6976
  137CHL1   H2016375   2.943   5.227  14.727  0.5555  0.4010  0.0427
  137CHL1   C2116376   2.752   5.344  14.762  0.1983 -0.6344 -0.1346
  137CHL1  H21A16377   2.743   5.302  14.865 -1.2272 -0.3802 -0.1375
  137CHL1  H21B16378   2.676   5.302  14.694 -2.1683  1.6786  0.8789
  137CHL1  H21C16379   2.715   5.447  14.783  0.1820 -0.4734 -0.9303
  137CHL1   C2216380   2.995   5.401  14.834  0.1334  0.2357  0.2155
  137CHL1  H22A16381   3.099   5.368  14.815  0.4180 -0.0481  2.0543
  137CHL1  H22B16382   2.982   5.511  14.833 -1.6946  0.0847  1.5080
  137CHL1   C2316383   2.979   5.343  14.979  0.7123 -0.4769 -0.1028
  137CHL1  H23A16384   2.875   5.357  15.017  0.6400 -0.3569 -0.3442
  137CHL1  H23B16385   3.006   5.236  14.970  2.0580 -0.0449 -1.5408
  137CHL1   C2416386   3.067   5.421  15.082  0.0820 -0.3398  0.1269
  137CHL1  H24A16387   3.171   5.423  15.043  0.1831  1.5360  0.3802
  137CHL1  H24B16388   3.031   5.526  15.086  3.7191  1.0363 -0.0871
  137CHL1   C2516389   3.062   5.360  15.224  1.1676 -0.2535  0.4268
  137CHL1   H2516390   3.090   5.253  15.210  0.1454 -0.4254 -0.3955
  137CHL1   C2616391   3.163   5.435  15.322 -0.1235 -0.0710  0.2472
  137CHL1  H26A16392   3.133   5.534  15.362 -1.3496 -0.3735  0.1220
  137CHL1  H26B16393   3.180   5.375  15.414  2.4416  0.3888  0.1524
  137CHL1  H26C16394   3.262   5.441  15.272 -2.4059  1.3587 -4.7688
  137CHL1   C2716395   2.923   5.365  15.287  0.1685 -0.2950  0.9126
  137CHL1  H27A16396   2.936   5.336  15.394 -0.1439  0.1925  1.0884
  137CHL1  H27B16397   2.880   5.467  15.287  2.6448  0.8495 -1.1274
  137CHL1  H27C16398   2.859   5.300  15.224 -1.9926  0.4400  2.2380
  138CHL1    C316399   2.814   3.729  13.897  0.4768  0.8858 -0.6132
  138CHL1    H316400   2.891   3.650  13.886  0.5403  0.7285  0.7622
  138CHL1    O316401   2.761   3.765  13.778  0.1050 -0.4844  0.0496
  138CHL1   H3'16402   2.721   3.688  13.736  0.7275 -1.6966  1.5572
  138CHL1    C416403   2.700   3.676  13.987 -0.1296  0.0987 -0.0702
  138CHL1   H4A16404   2.622   3.754  13.981 -0.8026 -0.6591 -1.7467
  138CHL1   H4B16405   2.662   3.584  13.938 -0.4042  1.2019 -2.0450
  138CHL1    C516406   2.742   3.648  14.128 -0.6103 -0.4201  0.5003
  138CHL1    C616407   2.740   3.521  14.168  0.2096  0.0420 -0.0062
  138CHL1    H616408   2.676   3.447  14.118 -1.5491  0.1627  1.9124
  138CHL1    C716409   2.769   3.473  14.312  0.2770 -0.5328  0.0554
  138CHL1   H7A16410   2.685   3.414  14.353 -3.0470  2.0143 -2.4911
  138CHL1   H7B16411   2.859   3.408  14.306  0.2236 -0.6950  0.9535
  138CHL1    C816412   2.802   3.600  14.399 -0.4152 -0.6355  0.5810
  138CHL1    H816413   2.709   3.650  14.432  1.1756  1.7991  1.6916
  138CHL1   C1416414   2.873   3.560  14.521 -0.5577  0.1037  0.3051
  138CHL1   H1416415   2.964   3.502  14.495 -1.3180 -0.5777 -0.9173
  138CHL1   C1516416   2.791   3.462  14.619 -0.6606  0.5934 -0.1089
  138CHL1  H15A16417   2.691   3.509  14.630 -0.5073  0.8036  0.4528
  138CHL1  H15B16418   2.780   3.354  14.595  2.6844 -0.5683  2.6381
  138CHL1   C1616419   2.861   3.469  14.756 -0.6423  0.0265  0.4365
  138CHL1  H16A16420   2.776   3.498  14.822 -0.9248 -0.2319  0.1864
  138CHL1  H16B16421   2.908   3.379  14.801 -0.3024 -0.8817 -1.6097
  138CHL1   C1716422   2.966   3.590  14.743 -0.0078  0.3946  1.1264
  138CHL1   H1716423   3.053   3.528  14.712 -1.9220 -2.4506  1.0160
  138CHL1   C1316424   2.919   3.666  14.616  0.4714 -0.1508 -0.0403
  138CHL1   C1816425   2.814   3.766  14.664 -0.2371  0.3653 -0.0381
  138CHL1  H18A16426   2.845   3.837  14.744  0.8733 -0.0918 -0.0562
  138CHL1  H18B16427   2.771   3.814  14.573  0.6796  2.0187  0.3617
  138CHL1  H18C16428   2.730   3.706  14.704 -0.2443  0.2103 -0.2841
  138CHL1   C1216429   3.020   3.747  14.545  0.2028  0.5255  0.2087
  138CHL1  H12A16430   3.062   3.834  14.600 -0.8660  1.9742 -1.1720
  138CHL1  H12B16431   3.096   3.674  14.511 -1.9018 -2.1488  0.8782
  138CHL1   C1116432   2.964   3.802  14.419 -0.1162  0.0014  0.5187
  138CHL1  H11A16433   2.894   3.888  14.420 -0.2490 -0.1103  1.2313
  138CHL1  H11B16434   3.050   3.842  14.361  0.5487 -0.4963  1.1440
  138CHL1    C916435   2.888   3.700  14.323  0.4803 -0.0185  0.1735
  138CHL1    H916436   2.971   3.637  14.283  0.1452 -1.0682  1.1029
  138CHL1   C1016437   2.814   3.761  14.202  0.0491 -0.0645 -0.0442
  138CHL1   C1916438   2.712   3.866  14.244 -0.3806 -0.0863  0.0386
  138CHL1  H19A16439   2.642   3.886  14.160  0.3471 -1.0608 -0.8149
  138CHL1  H19B16440   2.653   3.835  14.333  0.6096 -0.7246  0.4896
  138CHL1  H19C16441   2.765   3.960  14.271 -1.1830  0.5944 -0.6899
  138CHL1    C116442   2.917   3.831  14.102  0.2785  0.2282 -0.2230
  138CHL1   H1A16443   2.948   3.929  14.144  0.4288  0.4965 -0.9632
  138CHL1   H1B16444   3.003   3.763  14.092  0.4379  0.2905  0.5920
  138CHL1    C216445   2.864   3.851  13.967 -0.0502 -0.1983 -0.0180
  138CHL1   H2A16446   2.934   3.906  13.901  0.9369  1.2824  2.1440
  138CHL1   H2B16447   2.776   3.919  13.975 -0.7761 -1.1378  0.1089
  138CHL1   C2016448   3.006   3.677  14.864 -0.7157  0.0967  0.2374
  138CHL1   H2016449   3.002   3.780  14.823  0.3008  0.2515  0.4926
  138CHL1   C2116450   3.154   3.656  14.900  0.5521  0.4024  0.5993
  138CHL1  H21A16451   3.202   3.712  14.982  4.3777 -0.1112 -1.0986
  138CHL1  H21B16452   3.209   3.684  14.808 -1.1565  0.4532 -0.4496
  138CHL1  H21C16453   3.163   3.551  14.936 -1.4891 -0.3121 -0.7562
  138CHL1   C2216454   2.912   3.673  14.987 -0.3086 -0.1012 -0.5897
  138CHL1  H22A16455   2.813   3.694  14.942  0.6053  3.6445 -1.2046
  138CHL1  H22B16456   2.925   3.577  15.040  1.9410  0.6218  0.2810
  138CHL1   C2316457   2.939   3.773  15.094 -0.1828  0.0204  0.2311
  138CHL1  H23A16458   2.882   3.732  15.180 -0.7102 -0.2645 -0.2492
  138CHL1  H23B16459   3.046   3.766  15.123  0.1950 -1.4246 -1.3208
  138CHL1   C2416460   2.900   3.918  15.071 -0.1198  0.0191  0.1758
  138CHL1  H24A16461   2.961   3.962  14.989 -0.5413  1.5959  0.6740
  138CHL1  H24B16462   2.796   3.929  15.035  0.3583  0.5210 -1.1212
  138CHL1   C2516463   2.938   4.012  15.188  0.7457  0.4656  0.3513
  138CHL1   H2516464   3.047   4.003  15.208  0.6061 -0.0094  0.9042
  138CHL1   C2616465   2.906   4.162  15.158  0.1853 -0.8479  0.0878
  138CHL1  H26A16466   2.809   4.168  15.104 -0.3195  3.2461  1.1452
  138CHL1  H26B16467   2.906   4.225  15.249 -0.7707 -0.8654  0.1131
  138CHL1  H26C16468   2.977   4.205  15.084 -0.4349 -0.9612 -0.5945
  138CHL1   C2716469   2.858   3.980  15.314  0.2730 -0.0037  0.7613
  138CHL1  H27A16470   2.867   3.875  15.350 -3.0638 -0.0982  1.7068
  138CHL1  H27B16471   2.903   4.044  15.393 -1.2943  0.3375  1.4169
  138CHL1  H27C16472   2.749   4.002  15.316  0.1753 -0.1983 -0.8585
  139CHL1    C316473   2.745   2.693  13.028 -0.6052  0.0438 -0.4970
  139CHL1    H316474   2.743   2.793  13.078  0.5794 -1.1210  2.0808
  139CHL1    O316475   2.762   2.706  12.890 -0.3486  0.1610 -0.1910
  139CHL1   H3'16476   2.730   2.621  12.857  0.0663  0.3634 -1.1532
  139CHL1    C416477   2.866   2.613  13.085 -0.8496  0.0648  0.1414
  139CHL1   H4A16478   2.861   2.518  13.028  1.9686 -1.3459  1.9941
  139CHL1   H4B16479   2.962   2.664  13.061  0.1598 -1.9448 -0.2736
  139CHL1    C516480   2.858   2.582  13.232 -0.6875  0.0741  0.8519
  139CHL1    C616481   2.943   2.626  13.325 -0.6216  0.3536 -0.1184
  139CHL1    H616482   3.035   2.686  13.310  0.4009 -1.1729 -0.1429
  139CHL1    C716483   2.928   2.586  13.473 -0.4108  0.4113 -0.0705
  139CHL1   H7A16484   3.033   2.567  13.505 -0.5514 -0.4517 -0.0912
  139CHL1   H7B16485   2.888   2.668  13.537  1.6548  2.7307 -1.5804
  139CHL1    C816486   2.830   2.464  13.493 -0.7551  0.0884 -0.3086
  139CHL1    H816487   2.890   2.375  13.463  0.8537  0.9113  0.3454
  139CHL1   C1416488   2.803   2.444  13.646 -0.2609 -0.7083  0.4814
  139CHL1   H1416489   2.763   2.542  13.679  1.5070  2.1889 -4.6725
  139CHL1   C1516490   2.917   2.411  13.738 -0.4203 -1.0760 -0.0983
  139CHL1  H15A16491   3.003   2.361  13.689 -0.6917  0.4819 -2.2658
  139CHL1  H15B16492   2.954   2.509  13.777 -2.6521 -0.3799  0.3687
  139CHL1   C1616493   2.860   2.345  13.864 -0.2858 -0.1354 -0.4221
  139CHL1  H16A16494   2.892   2.239  13.875  0.4488  0.0901 -0.3468
  139CHL1  H16B16495   2.884   2.405  13.954  0.2603  1.8040 -1.7945
  139CHL1   C1716496   2.705   2.330  13.831  0.0381  0.2790 -0.0557
  139CHL1   H1716497   2.663   2.428  13.862  0.5636 -0.1511  2.1825
  139CHL1   C1316498   2.696   2.338  13.675 -0.7959  0.0715  0.2919
  139CHL1   C1816499   2.738   2.199  13.607  0.2092 -0.0857  0.4582
  139CHL1  H18A16500   2.665   2.120  13.635 -0.4327  0.5937  0.7538
  139CHL1  H18B16501   2.744   2.202  13.496 -3.0968 -0.7761  0.1551
  139CHL1  H18C16502   2.836   2.166  13.646  1.4090  2.1159 -0.5244
  139CHL1   C1216503   2.561   2.391  13.610  0.0696  0.0769 -0.5386
  139CHL1  H12A16504   2.477   2.319  13.617  0.3743 -0.3567 -1.2474
  139CHL1  H12B16505   2.525   2.477  13.670 -1.9387 -1.7648  1.1014
  139CHL1   C1116506   2.572   2.424  13.465  0.5325  0.5669  0.2692
  139CHL1  H11A16507   2.571   2.329  13.408 -2.2361  1.0862 -0.7026
  139CHL1  H11B16508   2.479   2.473  13.427  0.1474 -1.8390 -2.2115
  139CHL1    C916509   2.702   2.498  13.425  0.4991  0.4569  0.5042
  139CHL1    H916510   2.676   2.599  13.462 -0.7066  0.1071  0.6486
  139CHL1   C1016511   2.721   2.505  13.268  0.6588  0.3221 -0.0122
  139CHL1   C1916512   2.722   2.361  13.219  0.6887 -0.4160  0.0929
  139CHL1  H19A16513   2.792   2.294  13.274 -0.4801 -1.4578  0.3635
  139CHL1  H19B16514   2.620   2.317  13.211  0.2898  0.4274  0.4162
  139CHL1  H19C16515   2.751   2.354  13.112  0.3197  0.7703 -0.0973
  139CHL1    C116516   2.594   2.576  13.203 -0.6961 -0.0538  0.3181
  139CHL1   H1A16517   2.501   2.517  13.218  0.0488 -2.2621 -2.8650
  139CHL1   H1B16518   2.582   2.670  13.262  0.3084  2.4219 -3.1426
  139CHL1    C216519   2.607   2.618  13.052  0.2631  0.1825 -0.1724
  139CHL1   H2A16520   2.518   2.676  13.019 -0.2290  0.6950  1.9404
  139CHL1   H2B16521   2.606   2.524  12.993  0.0944  1.5285 -2.4538
  139CHL1   C2016522   2.639   2.205  13.891 -0.7648 -0.3068  0.0366
  139CHL1   H2016523   2.677   2.108  13.854  3.1208  0.4790  1.4834
  139CHL1   C2116524   2.486   2.202  13.860 -0.2664  0.1114  0.0816
  139CHL1  H21A16525   2.448   2.305  13.840 -0.7287 -0.1857 -0.5892
  139CHL1  H21B16526   2.430   2.150  13.941 -2.9484  2.0038 -0.4043
  139CHL1  H21C16527   2.456   2.153  13.765 -2.2173  1.6348 -0.1502
  139CHL1   C2216528   2.660   2.209  14.045  0.0559 -0.0676  0.4311
  139CHL1  H22A16529   2.611   2.120  14.092  0.7060  0.3328  1.9152
  139CHL1  H22B16530   2.769   2.208  14.065  0.1815 -0.4896 -0.2368
  139CHL1   C2316531   2.596   2.333  14.118 -0.0522  0.6672  0.8970
  139CHL1  H23A16532   2.642   2.423  14.072  1.1992 -0.5648 -0.3687
  139CHL1  H23B16533   2.486   2.338  14.110 -0.2501  0.1849  2.9665
  139CHL1   C2416534   2.634   2.344  14.266 -0.2080  0.1941 -0.9738
  139CHL1  H24A16535   2.744   2.357  14.275 -0.1858 -0.1582 -0.7418
  139CHL1  H24B16536   2.584   2.435  14.305  1.6598  0.8705 -0.0481
  139CHL1   C2516537   2.597   2.220  14.349 -0.1899 -0.8162 -0.2636
  139CHL1   H2516538   2.673   2.141  14.337  0.1959 -0.5477  0.4091
  139CHL1   C2616539   2.606   2.249  14.503 -0.4475 -0.5972  0.1277
  139CHL1  H26A16540   2.587   2.154  14.557 -0.3898 -0.0597  1.1268
  139CHL1  H26B16541   2.711   2.280  14.523  0.3909 -2.3688 -1.2368
  139CHL1  H26C16542   2.543   2.333  14.540  4.0254  2.9476  0.6684
  139CHL1   C2716543   2.455   2.164  14.317  0.1745  0.3694  0.0940
  139CHL1  H27A16544   2.382   2.239  14.355 -1.1494 -0.7739 -0.1204
  139CHL1  H27B16545   2.438   2.143  14.210  0.3957 -0.1040  0.1456
  139CHL1  H27C16546   2.436   2.080  14.387  0.1939  1.4203  1.4086
  140CHL1    C316547   3.462   3.676  13.576 -0.3483  0.0485  0.1352
  140CHL1    H316548   3.563   3.634  13.594 -0.0075  0.9991  0.5343
  140CHL1    O316549   3.462   3.728  13.443  0.1837 -0.4105  0.6620
  140CHL1   H3'16550   3.369   3.743  13.425  0.6132  1.0493 -0.6157
  140CHL1    C416551   3.351   3.576  13.595  0.0660  0.5561  0.3323
  140CHL1   H4A16552   3.249   3.614  13.577  0.4916  1.0876 -1.0748
  140CHL1   H4B16553   3.353   3.499  13.515 -2.4892 -2.7738  3.1577
  140CHL1    C516554   3.353   3.502  13.730 -0.3507 -0.4025  0.1285
  140CHL1    C616555   3.360   3.366  13.746 -0.3708 -0.1773  0.9546
  140CHL1    H616556   3.384   3.305  13.658  0.6040 -0.7746  1.6027
  140CHL1    C716557   3.348   3.292  13.874 -0.1586  0.2559  0.5519
  140CHL1   H7A16558   3.279   3.205  13.868  3.7685 -3.1792  1.1298
  140CHL1   H7B16559   3.448   3.248  13.894  0.0738  0.1178 -0.8226
  140CHL1    C816560   3.315   3.383  13.995 -0.0045 -0.6920 -0.5197
  140CHL1    H816561   3.206   3.397  13.983  0.1434 -0.5949 -1.8080
  140CHL1   C1416562   3.353   3.321  14.125 -0.0934  0.4067 -0.7272
  140CHL1   H1416563   3.463   3.317  14.115 -0.0926 -0.9856 -0.4346
  140CHL1   C1516564   3.315   3.176  14.157 -0.4084  0.2420 -0.4497
  140CHL1  H15A16565   3.207   3.168  14.132 -0.3720 -1.8111 -0.1225
  140CHL1  H15B16566   3.376   3.109  14.094 -0.1030 -0.0459  0.1418
  140CHL1   C1616567   3.345   3.160  14.312  0.1778  0.1784  1.0804
  140CHL1  H16A16568   3.254   3.117  14.360 -0.1754  0.1058  0.3608
  140CHL1  H16B16569   3.436   3.098  14.329 -0.2195 -0.9320 -0.5742
  140CHL1   C1716570   3.363   3.305  14.365  0.7889 -0.7534 -0.7484
  140CHL1   H1716571   3.472   3.326  14.369  0.2547  2.9538 -1.8961
  140CHL1   C1316572   3.318   3.404  14.250 -0.5144 -0.0820  0.0779
  140CHL1   C1816573   3.158   3.410  14.261 -0.3073 -0.3429 -0.5323
  140CHL1  H18A16574   3.097   3.318  14.265 -0.7467 -0.0965 -1.3333
  140CHL1  H18B16575   3.142   3.481  14.346 -0.4235  1.4395 -1.9720
  140CHL1  H18C16576   3.122   3.466  14.172 -0.9891 -1.6641 -1.0999
  140CHL1   C1216577   3.394   3.545  14.232 -0.3278 -0.6555  0.5419
  140CHL1  H12A16578   3.380   3.607  14.323 -1.7376  0.8341 -0.6407
  140CHL1  H12B16579   3.503   3.525  14.231 -0.2497 -0.2254 -0.0989
  140CHL1   C1116580   3.352   3.620  14.103 -0.1737 -0.0274  0.2175
  140CHL1  H11A16581   3.242   3.623  14.116 -0.2462  1.2531 -0.4875
  140CHL1  H11B16582   3.389   3.725  14.098 -0.6021  0.0973 -0.4754
  140CHL1    C916583   3.372   3.528  13.974  0.1643 -0.5922 -0.2377
  140CHL1    H916584   3.482   3.511  13.967  0.1552 -0.2342 -1.4688
  140CHL1   C1016585   3.337   3.599  13.844  0.0544  0.4555 -0.3475
  140CHL1   C1916586   3.185   3.642  13.849  0.7070 -0.0380  0.2896
  140CHL1  H19A16587   3.160   3.705  13.937  0.2951 -0.9815  0.8611
  140CHL1  H19B16588   3.156   3.692  13.755  1.0507 -1.6656 -0.7287
  140CHL1  H19C16589   3.119   3.552  13.846  0.0965  0.2606  2.7056
  140CHL1    C116590   3.437   3.718  13.820 -0.0153 -0.3513 -0.1065
  140CHL1   H1A16591   3.424   3.788  13.906  2.2042 -1.1008  0.9332
  140CHL1   H1B16592   3.540   3.682  13.840  0.2461  1.3026  1.9318
  140CHL1    C216593   3.438   3.785  13.682  0.4838  0.3191 -0.0991
  140CHL1   H2A16594   3.504   3.874  13.674  1.6142 -0.3769  1.0642
  140CHL1   H2B16595   3.336   3.829  13.674  0.6677  0.7639 -0.0200
  140CHL1   C2016596   3.305   3.334  14.513 -0.0229  0.0775 -0.0094
  140CHL1   H2016597   3.195   3.316  14.516 -0.0937  0.1897 -1.5056
  140CHL1   C2116598   3.341   3.480  14.562  0.3124  0.3254 -0.2011
  140CHL1  H21A16599   3.449   3.500  14.546  0.2708  0.6867 -0.0315
  140CHL1  H21B16600   3.318   3.498  14.669 -2.0258  2.0219 -0.9158
  140CHL1  H21C16601   3.291   3.559  14.504 -0.7745 -1.1874 -1.4003
  140CHL1   C2216602   3.370   3.226  14.606  0.5313  0.2303 -0.8716
  140CHL1  H22A16603   3.341   3.129  14.561 -0.2977  0.3581 -0.6409
  140CHL1  H22B16604   3.478   3.249  14.595  0.3489  1.1759 -0.7740
  140CHL1   C2316605   3.333   3.237  14.753 -0.2836  0.5754  0.0883
  140CHL1  H23A16606   3.384   3.329  14.789  0.5480 -0.8014  2.7099
  140CHL1  H23B16607   3.224   3.258  14.756 -0.8546 -1.9824 -0.3157
  140CHL1   C2416608   3.379   3.110  14.829  0.5812 -0.2724  0.1379
  140CHL1  H24A16609   3.321   3.022  14.796  1.1196 -0.3440 -0.6485
  140CHL1  H24B16610   3.483   3.089  14.794  1.0100  2.6408 -0.6517
  140CHL1   C2516611   3.365   3.134  14.977 -0.4963  0.0241 -0.6109
  140CHL1   H2516612   3.425   3.223  15.007 -1.1943  1.1342 -2.3270
  140CHL1   C2616613   3.427   3.015  15.048 -0.1713  0.5946 -0.2228
  140CHL1  H26A16614   3.417   3.023  15.158 -2.4741  0.0301 -0.3387
  140CHL1  H26B16615   3.376   2.921  15.017  0.3038 -0.4886  2.0490
  140CHL1  H26C16616   3.537   3.011  15.033 -0.1040  0.2291  0.3306
  140CHL1   C2716617   3.219   3.145  15.022  0.7670 -0.5563 -0.0206
  140CHL1  H27A16618   3.157   3.057  14.995 -1.6311  1.1916 -0.5290
  140CHL1  H27B16619   3.200   3.152  15.132 -0.1967 -1.8412 -0.0751
  140CHL1  H27C16620   3.174   3.238  14.981 -0.0546 -1.0393 -0.2533
  141DOPC     N16621   0.502   5.501  18.295 -0.4171 -0.1117 -0.0143
  141DOPC   C1216622   0.539   5.555  18.156 -0.0785 -0.3520 -0.3737
  141DOPC  H12A16623   0.620   5.627  18.166  1.4849 -2.1473  0.5448
  141DOPC  H12B16624   0.454   5.609  18.117  0.6019  1.2643  0.2918
  141DOPC   C1316625   0.461   5.614  18.380 -0.1571  0.3814 -0.1573
  141DOPC  H13A16626   0.531   5.696  18.390  0.6626 -0.3863  0.6138
  141DOPC  H13B16627   0.370   5.654  18.338  0.1792  0.5908 -0.7052
  141DOPC  H13C16628   0.453   5.584  18.483  0.7157  1.4015  0.2261
  141DOPC   C1416629   0.617   5.423  18.355 -0.1006 -0.0498  0.1726
  141DOPC  H14A16630   0.606   5.402  18.460  0.3433  1.3391  0.5274
  141DOPC  H14B16631   0.634   5.330  18.303 -1.0374  1.0568 -2.2737
  141DOPC  H14C16632   0.708   5.481  18.361 -0.0483 -0.2301  1.4401
  141DOPC   C1516633   0.385   5.414  18.293  0.0172 -0.4099  0.5352
  141DOPC  H15A16634   0.301   5.475  18.266  1.0939  1.1214  0.5193
  141DOPC  H15B16635   0.362   5.366  18.387  1.9491  1.2772  1.9635
  141DOPC  H15C16636   0.398   5.327  18.230  1.0862  0.2764 -0.2217
  141DOPC   C1116637   0.593   5.443  18.059 -0.0208  0.4193  0.5510
  141DOPC  H11A16638   0.625   5.497  17.967  1.7747 -0.8253  0.3924
  141DOPC  H11B16639   0.681   5.388  18.097  0.3961  1.4715  1.1618
  141DOPC     P16640   0.377   5.407  17.921  0.5175 -0.9336  0.3947
  141DOPC   O1316641   0.319   5.534  17.966  0.0595  1.0708  1.1039
  141DOPC   O1416642   0.281   5.296  17.905 -0.2256 -0.0196 -0.7410
  141DOPC   O1216643   0.483   5.357  18.033 -0.3320 -0.0152  0.1624
  141DOPC   O1116644   0.473   5.426  17.791 -0.1271 -0.0096  0.4185
  141DOPC    C116645   0.568   5.322  17.769 -0.8283  0.2463  0.4566
  141DOPC    HA16646   0.536   5.233  17.826 -4.8153  0.3679 -1.2655
  141DOPC    HB16647   0.667   5.365  17.794 -0.6765 -0.0930  0.4494
  141DOPC    C216648   0.569   5.279  17.616  0.4280  0.0697  0.1658
  141DOPC    HS16649   0.637   5.191  17.619 -0.0233 -0.2792  0.0986
  141DOPC   O2116650   0.629   5.393  17.544 -0.1248  0.4171 -0.1897
  141DOPC   C2116651   0.686   5.364  17.428  0.3261  0.1953 -0.0974
  141DOPC   O2216652   0.681   5.254  17.372  0.5293 -0.0547  0.0464
  141DOPC   C2216653   0.748   5.488  17.372 -0.2756  0.4612 -0.2551
  141DOPC   H2R16654   0.851   5.461  17.339 -0.4460 -1.8283  0.8955
  141DOPC   H2S16655   0.752   5.569  17.447 -1.1133 -0.3106  0.6532
  141DOPC    C316656   0.429   5.242  17.565  0.3738  0.7124 -0.1928
  141DOPC    HX16657   0.383   5.340  17.539  0.5232  0.9470  0.4128
  141DOPC    HY16658   0.377   5.198  17.653  1.8275 -0.6929 -0.0032
  141DOPC   O3116659   0.431   5.145  17.456 -0.1679 -0.9363  0.0376
  141DOPC   C3116660   0.393   5.201  17.338 -0.4137  0.0840 -0.0012
  141DOPC   O3216661   0.326   5.303  17.331 -0.3365  0.2599 -0.3974
  141DOPC   C3216662   0.447   5.111  17.226  0.3689  0.2392 -0.0229
  141DOPC   H2X16663   0.553   5.144  17.226  0.2976  0.6841 -2.8517
  141DOPC   H2Y16664   0.435   5.004  17.255 -2.2465  0.2368 -0.8209
  141DOPC   C2316665   0.662   5.530  17.252 -0.5642 -0.5938 -0.3463
  141DOPC   H3R16666   0.693   5.636  17.239  2.0825 -1.2885 -0.1607
  141DOPC   H3S16667   0.557   5.539  17.287 -0.2095  0.5810  0.4628
  141DOPC   C2416668   0.664   5.464  17.115  0.3397  0.1997 -0.2917
  141DOPC   H4R16669   0.659   5.354  17.128  0.9004  0.3883  1.9399
  141DOPC   H4S16670   0.752   5.494  17.054  0.6982 -0.0178  0.1146
  141DOPC   C2516671   0.537   5.505  17.035 -0.0134 -0.0246  0.1413
  141DOPC   H5R16672   0.532   5.616  17.024  2.2738  0.1537  0.2219
  141DOPC   H5S16673   0.451   5.466  17.093 -0.1983 -0.9575 -0.7224
  141DOPC   C2616674   0.530   5.433  16.897 -0.5660  0.9869 -0.4395
  141DOPC   H6R16675   0.423   5.437  16.867 -1.1871  1.0689  1.6389
  141DOPC   H6S16676   0.567   5.330  16.914  2.1775  1.5628 -2.1927
  141DOPC   C2716677   0.603   5.491  16.778 -0.5870 -0.3578  0.0756
  141DOPC   H7R16678   0.710   5.488  16.806 -0.1657 -1.2699 -1.4846
  141DOPC   H7S16679   0.570   5.595  16.758  1.1939  0.1251 -0.6141
  141DOPC   C2816680   0.593   5.418  16.643  0.4932  0.0446 -0.2653
  141DOPC   H8R16681   0.488   5.432  16.610 -0.4049 -1.7363  1.6093
  141DOPC   H8S16682   0.612   5.310  16.661 -2.1990 -0.4261  0.1098
  141DOPC   C2916683   0.689   5.470  16.540 -0.2133 -0.0365  0.2495
  141DOPC   H9R16684   0.783   5.507  16.584 -0.3886  0.9687 -0.2134
  141DOPC  C21016685   0.662   5.475  16.405 -0.6491  0.6276  0.0379
  141DOPC  H10R16686   0.745   5.491  16.335 -1.0349  1.5970 -0.2127
  141DOPC  C21116687   0.544   5.421  16.330  0.3576  0.5227  0.2021
  141DOPC  H11R16688   0.473   5.505  16.309  1.3867  1.1949 -0.7138
  141DOPC  H11S16689   0.485   5.338  16.374 -0.5074 -0.7036 -2.9666
  141DOPC  C21216690   0.568   5.378  16.181 -0.1222  0.4607  0.1705
  141DOPC  H12R16691   0.652   5.306  16.183 -0.5025  0.0203  1.3835
  141DOPC  H12S16692   0.602   5.463  16.119  0.3577  0.2523  0.1506
  141DOPC  C21316693   0.444   5.320  16.111  0.0307  0.5793 -0.1542
  141DOPC  H13R16694   0.364   5.396  16.099 -0.8631 -0.5667 -1.9205
  141DOPC  H13S16695   0.408   5.235  16.173  3.0131 -1.4015 -0.9271
  141DOPC  C21416696   0.468   5.263  15.970  0.3641  0.3248  0.2817
  141DOPC  H14R16697   0.370   5.211  15.957  1.3083 -1.0147 -1.9776
  141DOPC  H14S16698   0.545   5.184  15.983 -0.6181 -0.8892 -0.8876
  141DOPC  C21516699   0.499   5.358  15.854 -0.1997 -0.5330  0.1922
  141DOPC  H15R16700   0.596   5.405  15.880 -0.8249  2.2470 -1.9527
  141DOPC  H15S16701   0.437   5.450  15.865  0.7305  0.5438 -2.6770
  141DOPC  C21616702   0.492   5.291  15.716 -0.4964 -0.2137  0.4077
  141DOPC  H16R16703   0.399   5.239  15.686  0.7812 -1.7689 -1.0761
  141DOPC  H16S16704   0.564   5.206  15.710 -2.6198 -2.1014  0.3335
  141DOPC  C21716705   0.522   5.388  15.600  0.0898  0.9411  0.4627
  141DOPC  H17R16706   0.621   5.436  15.610  2.2658 -2.9580 -0.1497
  141DOPC  H17S16707   0.450   5.472  15.598 -0.7845  0.2106 -0.8859
  141DOPC  C21816708   0.509   5.316  15.465  0.6237  0.2389  0.6545
  141DOPC  H18R16709   0.599   5.254  15.443 -0.3680 -1.4388  1.1004
  141DOPC  H18S16710   0.505   5.379  15.374  1.3686  0.1315  0.5424
  141DOPC  H18T16711   0.420   5.250  15.470 -1.3701  2.5811 -1.2901
  141DOPC   C3316712   0.380   5.147  17.100  0.5044  0.3783 -0.6688
  141DOPC   H3X16713   0.406   5.254  17.087  2.4296  0.0995  0.4179
  141DOPC   H3Y16714   0.270   5.135  17.097  0.4923  0.4897 -0.6700
  141DOPC   C3416715   0.443   5.074  16.982 -0.1844  0.4406  1.2507
  141DOPC   H4X16716   0.432   4.964  16.989 -0.1514  0.2980 -0.5951
  141DOPC   H4Y16717   0.552   5.092  16.978 -0.3323  1.5332  1.6169
  141DOPC   C3516718   0.387   5.113  16.840 -0.3042 -0.0015  0.0485
  141DOPC   H5X16719   0.378   5.223  16.827  1.1958  0.1596  0.1360
  141DOPC   H5Y16720   0.292   5.058  16.823 -1.1911  1.9448 -1.6446
  141DOPC   C3616721   0.477   5.050  16.725  0.1822 -1.4315  0.0365
  141DOPC   H6X16722   0.571   5.107  16.739  0.6064 -2.1879  0.3400
  141DOPC   H6Y16723   0.485   4.941  16.746 -1.3864 -1.8724 -1.4526
  141DOPC   C3716724   0.415   5.086  16.588 -0.4553 -0.0021 -0.3154
  141DOPC   H7X16725   0.328   5.017  16.583  0.8240 -1.5892 -3.3196
  141DOPC   H7Y16726   0.373   5.188  16.590 -1.3798 -0.3800  0.9904
  141DOPC   C3816727   0.509   5.067  16.474 -0.9303 -0.2193  0.9775
  141DOPC   H8X16728   0.596   5.135  16.487  0.2066 -1.0385 -1.6862
  141DOPC   H8Y16729   0.456   5.096  16.381 -1.0800  2.4323  1.8080
  141DOPC   C3916730   0.570   4.932  16.455  0.8261  0.0002  0.0490
  141DOPC   H9X16731   0.569   4.869  16.545 -0.0878  0.7289  0.5611
  141DOPC  C31016732   0.635   4.884  16.347 -0.4576 -0.0086  0.4539
  141DOPC  H10X16733   0.659   4.777  16.347 -2.0677 -0.3978 -0.1459
  141DOPC  C31116734   0.666   4.943  16.213 -0.4272  0.5170 -1.1394
  141DOPC  H11X16735   0.769   4.986  16.213 -0.2213  0.1782  1.6783
  141DOPC  H11Y16736   0.585   5.016  16.196 -0.2708  1.0511  0.2970
  141DOPC  C31216737   0.655   4.848  16.091  0.9130  0.0738 -0.5955
  141DOPC  H12X16738   0.700   4.747  16.102 -0.5883 -0.5215  0.2850
  141DOPC  H12Y16739   0.716   4.894  16.010  2.4822 -2.6195 -1.0586
  141DOPC  C31316740   0.507   4.829  16.047 -0.8146 -0.0932 -0.1475
  141DOPC  H13X16741   0.459   4.794  16.140 -0.5972 -0.1073 -0.0388
  141DOPC  H13Y16742   0.471   4.932  16.027  0.1372  0.8556  2.6401
  141DOPC  C31416743   0.496   4.731  15.928 -0.5115  0.6387  0.6882
  141DOPC  H14X16744   0.558   4.642  15.951  0.7231  1.1814 -0.3371
  141DOPC  H14Y16745   0.395   4.689  15.909 -0.0310 -1.1960  1.9827
  141DOPC  C31516746   0.528   4.801  15.796  0.5842  0.7668  0.0479
  141DOPC  H15X16747   0.541   4.729  15.712  0.2878 -1.3679  1.7513
  141DOPC  H15Y16748   0.625   4.856  15.798  0.1957  1.4488  0.5512
  141DOPC  C31616749   0.418   4.895  15.749 -0.1334  0.0233 -0.1724
  141DOPC  H16X16750   0.319   4.845  15.759  0.0160  0.0966  2.1502
  141DOPC  H16Y16751   0.405   4.980  15.821 -0.3175  0.3908 -0.6326
  141DOPC  C31716752   0.426   4.944  15.601  0.0991 -0.4450  0.3029
  141DOPC  H17X16753   0.513   5.010  15.583 -0.1879  0.1592  1.0897
  141DOPC  H17Y16754   0.445   4.858  15.533  0.7376 -0.7818  0.8870
  141DOPC  C31816755   0.296   5.004  15.541  0.0341 -0.3078 -0.0458
  141DOPC  H18X16756   0.278   5.008  15.432  0.3049  0.9745 -0.0553
  141DOPC  H18Y16757   0.205   4.948  15.571  0.4111 -0.8461  0.1168
  141DOPC  H18Z16758   0.281   5.107  15.579 -1.4418 -1.3230  2.3761
  142DOPC     N16759   1.597   6.434  18.504 -0.9190  0.1093  0.3562
  142DOPC   C1216760   1.598   6.424  18.348 -0.2248  0.2765 -0.1200
  142DOPC  H12A16761   1.696   6.388  18.320 -0.2928  0.7255 -0.9637
  142DOPC  H12B16762   1.581   6.518  18.299 -2.0096  0.5608  0.9532
  142DOPC   C1316763   1.640   6.305  18.566 -0.3714  0.2234 -0.2051
  142DOPC  H13A16764   1.562   6.233  18.547  1.0775 -1.8986  1.3421
  142DOPC  H13B16765   1.732   6.269  18.522  0.0400 -0.7732  1.3948
  142DOPC  H13C16766   1.661   6.332  18.668 -2.4702  2.4830 -0.2807
  142DOPC   C1416767   1.463   6.472  18.552 -0.1423 -0.5705  0.3107
  142DOPC  H14A16768   1.455   6.495  18.657  2.1850  1.9585  0.0566
  142DOPC  H14B16769   1.427   6.561  18.502 -2.9094 -1.2055  1.0229
  142DOPC  H14C16770   1.392   6.395  18.527  1.4094 -2.0746  0.3003
  142DOPC   C1516771   1.690   6.546  18.545 -0.0635 -0.1053  0.5754
  142DOPC  H15A16772   1.639   6.637  18.517 -0.6013 -1.0965 -1.8669
  142DOPC  H15B16773   1.788   6.555  18.501 -0.5024  0.8307 -0.2547
  142DOPC  H15C16774   1.713   6.540  18.651 -0.0963  2.3989  0.7981
  142DOPC   C1116775   1.491   6.335  18.279 -0.8091  0.2634 -0.1314
  142DOPC  H11A16776   1.399   6.397  18.272 -1.4993 -0.7657 -0.3170
  142DOPC  H11B16777   1.533   6.326  18.177 -0.0537  4.6236 -0.4117
  142DOPC     P16778   1.535   6.080  18.294  0.4214 -0.2741 -0.0059
  142DOPC   O1316779   1.467   5.965  18.352  0.4515 -0.5168 -0.5631
  142DOPC   O1416780   1.682   6.095  18.311  0.2829  0.4904 -0.0603
  142DOPC   O1216781   1.466   6.212  18.339  0.0409 -0.0562  0.1536
  142DOPC   O1116782   1.508   6.094  18.131  0.0420  0.2810 -0.2475
  142DOPC    C116783   1.382   6.055  18.082 -0.8725  1.2609 -0.6393
  142DOPC    HA16784   1.306   6.108  18.143  1.2639  1.0381  2.4538
  142DOPC    HB16785   1.369   5.945  18.085  2.3023  0.7784 -1.1274
  142DOPC    C216786   1.352   6.093  17.930  0.6285  0.0863 -1.6106
  142DOPC    HS16787   1.251   6.052  17.908 -1.1560  2.5818  1.0455
  142DOPC   O2116788   1.444   6.032  17.833 -0.5338 -0.5343  0.1048
  142DOPC   C2116789   1.451   5.903  17.821  0.0337 -0.4587 -0.0137
  142DOPC   O2216790   1.385   5.817  17.877 -0.3546 -0.3318 -0.2673
  142DOPC   C2216791   1.570   5.875  17.737 -0.1386 -0.1076 -0.0453
  142DOPC   H2R16792   1.631   5.811  17.804 -0.8399 -0.0677  0.6564
  142DOPC   H2S16793   1.637   5.961  17.716 -0.0845 -0.0944  0.1860
  142DOPC    C316794   1.357   6.252  17.916  0.4046  0.0415  0.2789
  142DOPC    HX16795   1.461   6.291  17.927  0.3135  0.6703 -0.9960
  142DOPC    HY16796   1.303   6.303  17.998  1.5065  1.1569  0.3482
  142DOPC   O3116797   1.303   6.289  17.789  0.2236 -0.2480  0.4011
  142DOPC   C3116798   1.378   6.283  17.681 -0.5514  0.0930  1.0455
  142DOPC   O3216799   1.493   6.253  17.669 -0.5185 -0.2042 -0.1085
  142DOPC   C3216800   1.306   6.324  17.561  0.7635 -0.5841  0.0983
  142DOPC   H2X16801   1.198   6.302  17.579  1.0518 -2.3183 -0.0825
  142DOPC   H2Y16802   1.307   6.435  17.553 -1.7308 -0.4189  1.1162
  142DOPC   C2316803   1.545   5.803  17.597 -0.2067  0.5858 -0.1457
  142DOPC   H3R16804   1.491   5.705  17.595  1.9853 -0.6889 -0.1709
  142DOPC   H3S16805   1.650   5.777  17.570 -0.9726 -1.3888 -1.4163
  142DOPC   C2416806   1.479   5.894  17.484  0.4506  0.4764  0.9428
  142DOPC   H4R16807   1.518   5.998  17.482 -2.6441  1.7390 -1.6836
  142DOPC   H4S16808   1.372   5.898  17.513  0.5530  1.4213  1.2212
  142DOPC   C2516809   1.496   5.826  17.340 -0.0562 -0.5635 -0.7490
  142DOPC   H5R16810   1.479   5.716  17.347 -0.0964 -0.6884 -2.4056
  142DOPC   H5S16811   1.602   5.839  17.309 -0.0066 -2.5363 -1.5535
  142DOPC   C2616812   1.401   5.879  17.234 -0.0460 -0.1651 -0.5686
  142DOPC   H6R16813   1.409   5.989  17.234  4.7452 -0.2839 -1.5747
  142DOPC   H6S16814   1.299   5.846  17.261 -0.4404  1.6524  0.2786
  142DOPC   C2716815   1.438   5.814  17.098  0.2777 -0.9317  0.6976
  142DOPC   H7R16816   1.403   5.710  17.112 -2.2543 -0.1509  0.6728
  142DOPC   H7S16817   1.546   5.827  17.076  0.1039 -2.2155 -1.1365
  142DOPC   C2816818   1.360   5.865  16.974 -0.1911  1.0111 -0.0881
  142DOPC   H8R16819   1.380   5.974  16.970  1.3521  0.7756  0.5065
  142DOPC   H8S16820   1.252   5.848  16.992 -0.3171  3.0802  1.4413
  142DOPC   C2916821   1.396   5.793  16.843 -0.0107  0.5143  0.1440
  142DOPC   H9R16822   1.406   5.685  16.864 -1.3445 -0.1217 -2.0986
  142DOPC  C21016823   1.429   5.837  16.721  0.6388 -0.4755  0.0418
  142DOPC  H10R16824   1.455   5.763  16.645  1.7166 -1.2726  1.1527
  142DOPC  C21116825   1.446   5.983  16.683 -0.4471 -0.0118  0.4036
  142DOPC  H11R16826   1.454   6.048  16.773 -0.3191  0.6362 -0.0684
  142DOPC  H11S16827   1.354   6.020  16.634 -0.7709 -0.9398  0.2892
  142DOPC  C21216828   1.563   6.015  16.584  0.6022 -0.3673 -0.3093
  142DOPC  H12R16829   1.656   5.984  16.636  0.2653  0.5544  0.8725
  142DOPC  H12S16830   1.570   6.125  16.570 -1.6104  0.1114  1.6700
  142DOPC  C21316831   1.560   5.939  16.444 -0.1428  0.1981 -0.7762
  142DOPC  H13R16832   1.535   5.833  16.464 -0.1871  0.3134 -0.1861
  142DOPC  H13S16833   1.667   5.936  16.414 -1.1365 -1.1926 -4.6986
  142DOPC  C21416834   1.478   6.001  16.332  0.0184  0.5358  0.3088
  142DOPC  H14R16835   1.520   6.102  16.313  1.8040  0.0645  1.5208
  142DOPC  H14S16836   1.370   6.007  16.359 -0.6996  2.0462 -2.4899
  142DOPC  C21516837   1.470   5.914  16.200  0.0878  0.5248 -0.0847
  142DOPC  H15R16838   1.428   5.816  16.230  0.7560  0.6177  1.2484
  142DOPC  H15S16839   1.576   5.912  16.167  0.1913 -1.0914  0.2698
  142DOPC  C21616840   1.386   5.982  16.089 -0.0524 -0.4990  0.6562
  142DOPC  H16R16841   1.443   6.064  16.041  1.2980 -3.2337 -2.7675
  142DOPC  H16S16842   1.295   6.020  16.142 -0.6155  0.5132 -0.9541
  142DOPC  C21716843   1.344   5.879  15.979  0.0075  0.2062 -0.1108
  142DOPC  H17R16844   1.290   5.801  16.038  0.4304 -0.0200 -0.0193
  142DOPC  H17S16845   1.431   5.828  15.932 -0.3499 -3.0401  2.3261
  142DOPC  C21816846   1.256   5.935  15.873  1.2578  0.1731  0.2866
  142DOPC  H18R16847   1.302   6.020  15.817 -0.7203  0.5389 -0.8962
  142DOPC  H18S16848   1.160   5.976  15.910  0.3489 -2.2088  0.7182
  142DOPC  H18T16849   1.229   5.856  15.799 -0.3426  1.4057 -0.5208
  142DOPC   C3316850   1.336   6.251  17.433 -0.7167 -0.6186 -0.5828
  142DOPC   H3X16851   1.307   6.144  17.437  0.7710 -1.0406 -0.5434
  142DOPC   H3Y16852   1.443   6.267  17.409 -0.9092  2.7051  0.2821
  142DOPC   C3416853   1.250   6.304  17.312 -0.0182  0.2010 -0.6848
  142DOPC   H4X16854   1.249   6.415  17.323  3.0054  0.2766 -0.1876
  142DOPC   H4Y16855   1.146   6.267  17.324  0.4716 -1.2653 -0.8547
  142DOPC   C3516856   1.310   6.278  17.179  0.6766  0.2068  0.9333
  142DOPC   H5X16857   1.310   6.168  17.160  0.4222  0.2825  0.4718
  142DOPC   H5Y16858   1.409   6.320  17.150  0.0810  2.0294  1.4133
  142DOPC   C3616859   1.216   6.331  17.064  0.6505  0.0145 -0.7037
  142DOPC   H6X16860   1.111   6.298  17.076  0.7126 -0.0116 -0.2127
  142DOPC   H6Y16861   1.223   6.441  17.051 -2.2812  0.2082 -1.1945
  142DOPC   C3716862   1.279   6.272  16.934 -0.6983 -0.2488  0.0893
  142DOPC   H7X16863   1.384   6.305  16.920 -0.4071 -1.6422 -1.3980
  142DOPC   H7Y16864   1.287   6.161  16.931 -1.3428 -0.2863 -2.1450
  142DOPC   C3816865   1.206   6.325  16.804  0.2570  1.2504 -0.1673
  142DOPC   H8X16866   1.275   6.302  16.720 -0.4312  1.7810 -0.8888
  142DOPC   H8Y16867   1.194   6.434  16.820  0.2917  1.4940 -1.6530
  142DOPC   C3916868   1.070   6.252  16.793 -0.5175 -0.8176  0.0334
  142DOPC   H9X16869   1.011   6.246  16.885  1.4605 -2.6085  1.2591
  142DOPC  C31016870   1.015   6.207  16.679 -0.1533 -0.1358 -0.6930
  142DOPC  H10X16871   0.912   6.168  16.690  0.3435 -0.7672  3.0721
  142DOPC  C31116872   1.069   6.222  16.542  0.7771  0.5250  0.1671
  142DOPC  H11X16873   1.169   6.176  16.538 -0.0196 -1.8911  3.5672
  142DOPC  H11Y16874   1.074   6.330  16.514  2.0677 -0.2188 -2.8790
  142DOPC  C31216875   0.975   6.156  16.437  0.5187 -0.1731 -0.3641
  142DOPC  H12X16876   0.878   6.208  16.422  0.3587 -0.9141 -2.1258
  142DOPC  H12Y16877   0.953   6.049  16.461  1.9577 -0.5713 -0.7158
  142DOPC  C31316878   1.038   6.149  16.297  0.5121 -0.1327  0.5665
  142DOPC  H13X16879   1.084   6.248  16.276  1.9846 -0.5320  1.6863
  142DOPC  H13Y16880   1.116   6.070  16.290  0.1248 -0.5395  0.8422
  142DOPC  C31416881   0.940   6.129  16.174  0.4169 -0.5926 -0.7526
  142DOPC  H14X16882   0.926   6.020  16.163 -1.1390 -0.5236  0.3034
  142DOPC  H14Y16883   0.838   6.167  16.196  0.1435 -2.0999  0.8108
  142DOPC  C31516884   0.981   6.183  16.041 -0.0063  0.4076  0.3088
  142DOPC  H15X16885   1.082   6.139  16.028  0.3573  0.7439  1.8117
  142DOPC  H15Y16886   0.987   6.294  16.053  1.4764  0.2390  1.3155
  142DOPC  C31616887   0.884   6.134  15.933 -0.6806  0.7032 -0.4679
  142DOPC  H16X16888   0.931   6.170  15.839  1.6680  1.1980  0.8312
  142DOPC  H16Y16889   0.888   6.023  15.938  0.1008  0.7723  0.7024
  142DOPC  C31716890   0.745   6.203  15.930 -1.0227 -0.1300 -0.4634
  142DOPC  H17X16891   0.697   6.183  16.029  1.7151 -0.4129  0.9079
  142DOPC  H17Y16892   0.767   6.310  15.917 -0.0365 -0.2017  0.4846
  142DOPC  C31816893   0.657   6.142  15.821 -0.3661  0.3096 -0.1877
  142DOPC  H18X16894   0.672   6.171  15.714 -1.4118 -1.5216 -0.8687
  142DOPC  H18Y16895   0.673   6.032  15.818  1.1163  0.0870  5.2172
  142DOPC  H18Z16896   0.552   6.159  15.852 -0.5995 -0.5266 -0.5015
  143DOPC     N16897   5.640   0.025  17.748 -0.6392 -0.9693  0.6029
  143DOPC   C1216898   5.786   0.024  17.786 -0.1834  0.0948 -0.9736
  143DOPC  H12A16899   5.828  -0.067  17.747  0.9540  0.3275 -0.3243
  143DOPC  H12B16900   5.785  -0.008  17.890 -2.5844 -2.8140 -1.7425
  143DOPC   C1316901   5.632  -0.012  17.606  0.1054  0.2340 -0.8094
  143DOPC  H13A16902   5.633   0.067  17.533 -2.3906 -0.9826 -2.2872
  143DOPC  H13B16903   5.701  -0.089  17.573  1.6631  1.4322 -0.4526
  143DOPC  H13C16904   5.531  -0.050  17.601 -1.1247  2.9861  0.7276
  143DOPC   C1416905   5.570   0.160  17.760  0.1443  0.2672  0.7763
  143DOPC  H14A16906   5.466   0.148  17.733 -0.0264  3.2438 -0.2812
  143DOPC  H14B16907   5.584   0.200  17.859  1.9800  1.1643  0.1891
  143DOPC  H14C16908   5.611   0.239  17.699 -0.1049  0.5627  0.9905
  143DOPC   C1516909   5.572  -0.073  17.833 -0.2694  0.0106  0.5997
  143DOPC  H15A16910   5.598  -0.170  17.795  1.5510  0.2882  1.0416
  143DOPC  H15B16911   5.465  -0.058  17.827 -0.0637  1.1006 -0.9500
  143DOPC  H15C16912   5.600  -0.069  17.938  0.5958 -1.8914  0.4681
  143DOPC   C1116913   5.868   0.141  17.745  0.3157 -1.4301 -0.6151
  143DOPC  H11A16914   5.975   0.112  17.742  0.9211  0.5890 -0.0046
  143DOPC  H11B16915   5.843   0.169  17.640  2.3156 -0.2450 -0.8048
  143DOPC     P16916   5.885   0.402  17.802 -0.2393  0.4199 -0.8122
  143DOPC   O1316917   6.018   0.441  17.855  0.1868  0.6663  0.0286
  143DOPC   O1416918   5.775   0.481  17.858  0.0719  0.0001 -0.1414
  143DOPC   O1216919   5.861   0.249  17.845  0.6236 -0.9538  0.5748
  143DOPC   O1116920   5.873   0.402  17.644  0.1672 -0.2660 -0.2812
  143DOPC    C116921   5.842   0.518  17.568  0.1959 -0.4207  0.2437
  143DOPC    HA16922   5.896   0.609  17.601 -1.9366  0.6562  0.9352
  143DOPC    HB16923   5.736   0.546  17.583  0.5924  0.4210  1.6986
  143DOPC    C216924   5.850   0.500  17.406  0.7635  0.7795 -0.5251
  143DOPC    HS16925   5.815   0.595  17.361  0.7466  0.2824 -1.5746
  143DOPC   O2116926   5.772   0.386  17.366 -0.1045  0.3541  0.2391
  143DOPC   C2116927   5.640   0.401  17.356 -0.2849 -0.3218 -0.0347
  143DOPC   O2216928   5.575   0.499  17.370  0.4105 -0.2355 -0.2773
  143DOPC   C2216929   5.595   0.265  17.325  0.6474 -0.5086  0.1310
  143DOPC   H2R16930   5.585   0.204  17.417  0.0569  0.8264  0.9855
  143DOPC   H2S16931   5.676   0.217  17.266  0.1775 -0.0517 -0.9254
  143DOPC    C316932   5.984   0.482  17.344  0.2136  0.3406  0.3520
  143DOPC    HX16933   6.044   0.407  17.400 -1.5853 -0.7743  0.8821
  143DOPC    HY16934   6.042   0.577  17.345 -0.4221  0.8159 -1.7196
  143DOPC   O3116935   5.981   0.436  17.207 -0.1059  0.2259  0.3958
  143DOPC   C3116936   5.963   0.532  17.118  0.1635 -0.4762  0.0025
  143DOPC   O3216937   5.948   0.652  17.141  0.1022  0.4138  0.9396
  143DOPC   C3216938   5.989   0.472  16.977  0.6558  0.4007 -0.1351
  143DOPC   H2X16939   6.082   0.412  16.978  0.0290 -0.6801  2.3566
  143DOPC   H2Y16940   5.902   0.403  16.976  1.8199 -1.3588  3.2961
  143DOPC   C2316941   5.459   0.255  17.239 -0.4641 -0.5072 -0.4764
  143DOPC   H3R16942   5.377   0.306  17.294  0.5295  0.3476  0.2534
  143DOPC   H3S16943   5.432   0.147  17.235 -1.7580 -0.4328  2.9241
  143DOPC   C2416944   5.485   0.310  17.102  0.3175  0.0960  0.0635
  143DOPC   H4R16945   5.540   0.406  17.106  0.0463  0.2194  0.8112
  143DOPC   H4S16946   5.391   0.343  17.052  0.4739 -0.3374 -0.5414
  143DOPC   C2516947   5.559   0.208  17.010 -0.2204  0.2782 -0.3401
  143DOPC   H5R16948   5.504   0.112  17.016  1.7493 -0.8759  0.1565
  143DOPC   H5S16949   5.664   0.187  17.041 -0.6833 -1.2933  0.2445
  143DOPC   C2616950   5.562   0.246  16.857  0.9669  0.3918 -0.3732
  143DOPC   H6R16951   5.458   0.281  16.839  1.1072  1.0067 -0.0110
  143DOPC   H6S16952   5.570   0.151  16.800  0.7445 -0.0187  0.2616
  143DOPC   C2716953   5.678   0.339  16.821 -0.5185 -0.0087 -0.1769
  143DOPC   H7R16954   5.772   0.281  16.836 -0.8313 -0.6684 -0.6956
  143DOPC   H7S16955   5.686   0.422  16.894  1.8768 -1.7322  1.7191
  143DOPC   C2816956   5.673   0.395  16.681 -0.0962 -0.2276 -0.4378
  143DOPC   H8R16957   5.672   0.308  16.612 -2.3394  0.5709 -1.5304
  143DOPC   H8S16958   5.767   0.450  16.663  0.4008 -0.2912  1.6967
  143DOPC   C2916959   5.552   0.491  16.666  0.3331 -0.6641  0.7252
  143DOPC   H9R16960   5.547   0.570  16.742  0.6155  1.9121 -1.7758
  143DOPC  C21016961   5.445   0.485  16.580  0.9046 -0.4249  0.4655
  143DOPC  H10R16962   5.367   0.563  16.581  0.5375 -0.7713 -0.2408
  143DOPC  C21116963   5.438   0.395  16.458  0.1300 -0.7192 -0.1186
  143DOPC  H11R16964   5.340   0.343  16.462  0.5092 -1.3627  1.8595
  143DOPC  H11S16965   5.525   0.326  16.453  0.8097  0.1686 -0.9650
  143DOPC  C21216966   5.451   0.479  16.325  0.1020 -0.0649  0.2472
  143DOPC  H12R16967   5.550   0.527  16.320  0.4514 -0.5616  1.9289
  143DOPC  H12S16968   5.374   0.559  16.318  1.5568  1.2642 -1.2081
  143DOPC  C21316969   5.433   0.396  16.204  0.0643  0.1409  0.8142
  143DOPC  H13R16970   5.332   0.350  16.211 -0.4580  1.1621  0.1988
  143DOPC  H13S16971   5.506   0.313  16.197 -1.4613 -1.1005 -2.8681
  143DOPC  C21416972   5.472   0.465  16.068 -0.3470  0.3204 -0.1861
  143DOPC  H14R16973   5.580   0.480  16.087 -0.0426 -2.1456  0.3984
  143DOPC  H14S16974   5.426   0.566  16.060 -0.8433  0.0280 -1.1795
  143DOPC  C21516975   5.448   0.376  15.952  0.4506 -1.2188  0.2985
  143DOPC  H15R16976   5.342   0.386  15.921  0.1148 -1.6064  1.2830
  143DOPC  H15S16977   5.457   0.268  15.975 -1.0495 -1.2952  0.6080
  143DOPC  C21616978   5.534   0.408  15.836 -0.2048 -0.3190  0.4897
  143DOPC  H16R16979   5.640   0.375  15.833  0.2690  1.1418  0.3296
  143DOPC  H16S16980   5.553   0.518  15.831  1.6750 -0.5642  1.4473
  143DOPC  C21716981   5.474   0.369  15.700  0.4172  0.7851 -0.4918
  143DOPC  H17R16982   5.372   0.414  15.697  0.7997  1.7364  0.2455
  143DOPC  H17S16983   5.456   0.260  15.696 -3.5828  1.2823 -0.6231
  143DOPC  C21816984   5.557   0.405  15.578  0.0971  0.0773  0.4900
  143DOPC  H18R16985   5.660   0.365  15.588  0.4855  0.9815  0.2350
  143DOPC  H18S16986   5.562   0.516  15.571  0.1310  0.0295 -0.2483
  143DOPC  H18T16987   5.505   0.380  15.483  0.9985  1.2773 -0.3576
  143DOPC   C3316988   5.992   0.566  16.855 -0.0555 -0.7333 -0.0779
  143DOPC   H3X16989   6.067   0.645  16.880  0.1399 -0.8234 -0.3744
  143DOPC   H3Y16990   5.891   0.606  16.835  0.7830  0.9702 -1.1902
  143DOPC   C3416991   6.053   0.510  16.723 -0.0899  0.3078  0.2650
  143DOPC   H4X16992   6.005   0.411  16.705  3.0200 -0.8979 -2.7379
  143DOPC   H4Y16993   6.163   0.495  16.721 -0.1890 -0.4302 -0.7520
  143DOPC   C3516994   6.009   0.597  16.598 -0.0235  0.0852 -0.2419
  143DOPC   H5X16995   6.067   0.692  16.600  1.2693 -0.6768 -0.1799
  143DOPC   H5Y16996   5.900   0.620  16.601 -0.0632 -0.1419  0.0993
  143DOPC   C3616997   6.033   0.543  16.459  0.2937 -0.4061 -0.0414
  143DOPC   H6X16998   6.136   0.503  16.453  0.3075 -0.2714 -0.8912
  143DOPC   H6Y16999   5.974   0.450  16.439  1.3132 -0.9388 -0.6554
  143DOPC   C3717000   6.016   0.640  16.341  0.0175 -0.1007 -0.3494
  143DOPC   H7X17001   5.910   0.644  16.309 -0.3154 -0.4910  0.6596
  143DOPC   H7Y17002   6.056   0.741  16.364  0.2641  0.0507 -1.4143
  143DOPC   C3817003   6.096   0.578  16.230  0.5083  0.6257  0.3747
  143DOPC   H8X17004   6.071   0.470  16.225 -0.8189  0.9228  0.0536
  143DOPC   H8Y17005   6.203   0.584  16.258  0.8770  1.9287 -1.1595
  143DOPC   C3917006   6.065   0.640  16.100 -0.4058  0.2657  0.0923
  143DOPC   H9X17007   6.067   0.750  16.087  0.1206  0.3106  0.5064
  143DOPC  C31017008   6.033   0.584  15.978 -0.1160  0.9949  0.0264
  143DOPC  H10X17009   6.001   0.636  15.886 -0.8579  0.6481  0.0802
  143DOPC  C31117010   6.024   0.434  15.956  0.0079  0.0319  0.5615
  143DOPC  H11X17011   5.921   0.395  15.974 -0.0990  0.2084  0.3359
  143DOPC  H11Y17012   6.093   0.381  16.026  0.6865  0.7669  0.4598
  143DOPC  C31217013   6.066   0.396  15.812 -0.4425 -0.6314 -0.3999
  143DOPC  H12X17014   6.115   0.297  15.807  1.6900  0.4573 -2.8580
  143DOPC  H12Y17015   6.149   0.463  15.783 -0.0874 -0.0020  1.8817
  143DOPC  C31317016   5.951   0.393  15.710  0.1644  0.1271  0.3564
  143DOPC  H13X17017   5.874   0.318  15.737 -0.0766 -0.5218 -1.9339
  143DOPC  H13Y17018   5.912   0.497  15.713 -1.1247 -0.3487  1.1922
  143DOPC  C31417019   6.009   0.356  15.573  0.3002 -0.2294  0.2831
  143DOPC  H14X17020   6.103   0.413  15.560  0.3316 -0.5801 -1.1708
  143DOPC  H14Y17021   6.048   0.252  15.570  2.0555  0.4136 -0.4683
  143DOPC  C31517022   5.925   0.387  15.452 -0.1762  0.9170 -0.0299
  143DOPC  H15X17023   5.891   0.493  15.454  0.0530  1.0340 -1.4677
  143DOPC  H15Y17024   5.838   0.322  15.431  0.1440  0.9515 -1.5689
  143DOPC  C31617025   6.019   0.375  15.331 -0.1850 -0.5061  0.3398
  143DOPC  H16X17026   6.062   0.473  15.301 -0.9865 -0.4930 -0.8454
  143DOPC  H16Y17027   6.112   0.317  15.349  1.0916  1.2565 -0.2806
  143DOPC  C31717028   5.959   0.336  15.198  0.6891  0.2392  0.2445
  143DOPC  H17X17029   5.892   0.405  15.144  1.0008 -0.4450 -1.0524
  143DOPC  H17Y17030   6.044   0.320  15.128  2.2518 -2.1825  2.4993
  143DOPC  C31817031   5.889   0.195  15.199 -0.4887 -0.3500  0.3691
  143DOPC  H18X17032   5.793   0.200  15.255 -1.2328  2.7019 -0.9561
  143DOPC  H18Y17033   5.857   0.152  15.101  1.9564 -0.2280 -0.5608
  143DOPC  H18Z17034   5.964   0.121  15.235  0.7852  0.6935 -0.0837
  144DOPC     N17035   6.464   3.518  17.715  0.1772 -0.3154 -0.8342
  144DOPC   C1217036   6.376   3.634  17.757  0.3351 -1.1950 -0.3494
  144DOPC  H12A17037   6.274   3.601  17.760  0.3911 -1.6542 -2.2271
  144DOPC  H12B17038   6.388   3.717  17.688  0.1126  1.4002  2.4977
  144DOPC   C1317039   6.601   3.566  17.683 -0.4201 -0.2455  0.3602
  144DOPC  H13A17040   6.653   3.591  17.774  0.1921 -0.9082  0.2018
  144DOPC  H13B17041   6.655   3.479  17.650  0.3713 -0.0750  1.1469
  144DOPC  H13C17042   6.611   3.638  17.602 -1.6629 -1.3297 -0.7967
  144DOPC   C1417043   6.409   3.442  17.597 -0.2784  0.2742  0.2851
  144DOPC  H14A17044   6.415   3.336  17.615 -0.3729 -0.2725 -2.4331
  144DOPC  H14B17045   6.302   3.452  17.586 -0.5280 -0.2575  1.9590
  144DOPC  H14C17046   6.466   3.459  17.506  0.3035  0.1831  0.6280
  144DOPC   C1517047   6.466   3.423  17.828 -0.1825 -0.2255 -0.5529
  144DOPC  H15A17048   6.530   3.459  17.907 -0.7657  1.0422 -0.6297
  144DOPC  H15B17049   6.498   3.327  17.790 -0.9124 -0.7086  0.0390
  144DOPC  H15C17050   6.366   3.410  17.867  0.8801 -3.7913  1.4585
  144DOPC   C1117051   6.418   3.709  17.896 -0.8414 -0.3474  0.4197
  144DOPC  H11A17052   6.353   3.798  17.906  0.1143  0.1701  2.5928
  144DOPC  H11B17053   6.393   3.645  17.984  1.0948  0.7152  1.8067
  144DOPC     P17054   6.626   3.823  18.025  0.0340 -0.1687 -0.0645
  144DOPC   O1317055   6.763   3.775  18.063 -0.0360  0.4228 -0.0446
  144DOPC   O1417056   6.529   3.837  18.134  0.4072 -0.0100 -0.2614
  144DOPC   O1217057   6.557   3.746  17.906  0.0807  0.1904  0.1696
  144DOPC   O1117058   6.650   3.972  17.967  0.0093  0.3701 -0.2443
  144DOPC    C117059   6.579   4.038  17.860  0.7518 -0.8690  0.0636
  144DOPC    HA17060   6.585   4.149  17.859 -1.7262 -0.6762  0.8742
  144DOPC    HB17061   6.472   4.011  17.873 -0.3197  1.5232 -2.6884
  144DOPC    C217062   6.616   3.981  17.715  0.2027 -0.1667 -0.0805
  144DOPC    HS17063   6.583   3.875  17.708  1.1990 -0.5211  0.3633
  144DOPC   O2117064   6.757   3.988  17.709 -0.0009 -0.4367  0.2107
  144DOPC   C2117065   6.816   3.913  17.621  0.0576 -0.5537 -0.9620
  144DOPC   O2217066   6.767   3.815  17.562 -0.0614 -0.5597 -0.4470
  144DOPC   C2217067   6.960   3.964  17.594  0.9287  0.1174 -0.0472
  144DOPC   H2R17068   7.029   3.883  17.559 -0.6959 -1.1087 -0.5425
  144DOPC   H2S17069   6.991   4.012  17.689  1.7212  1.1209 -0.7951
  144DOPC    C317070   6.536   4.054  17.608 -0.0768 -0.2307 -0.3701
  144DOPC    HX17071   6.582   4.156  17.607  0.0654 -0.2926 -0.8980
  144DOPC    HY17072   6.429   4.054  17.635 -0.2936  0.0877 -1.1981
  144DOPC   O3117073   6.550   3.992  17.479 -0.3250  0.1705  0.2142
  144DOPC   C3117074   6.482   3.874  17.450 -0.0516 -0.2994 -0.3967
  144DOPC   O3217075   6.399   3.822  17.521 -0.6257 -0.3733 -0.2086
  144DOPC   C3217076   6.518   3.810  17.317  0.0826 -0.4567  0.5243
  144DOPC   H2X17077   6.624   3.780  17.328  0.3051 -0.4425 -1.2547
  144DOPC   H2Y17078   6.451   3.722  17.308 -0.0245 -0.7046  3.1750
  144DOPC   C2317079   6.949   4.072  17.481 -0.5796  0.1601  0.2739
  144DOPC   H3R17080   7.040   4.134  17.492 -1.1395  1.1677 -0.5886
  144DOPC   H3S17081   6.868   4.146  17.496 -0.5678 -0.4151  4.0124
  144DOPC   C2417082   6.948   4.012  17.343 -0.6110  0.0831 -0.2274
  144DOPC   H4R17083   6.867   3.938  17.327  1.1946 -1.7993 -1.0838
  144DOPC   H4S17084   7.040   3.950  17.340 -1.3032 -0.9529 -0.6363
  144DOPC   C2517085   6.939   4.113  17.229 -0.2347 -0.3217  0.0573
  144DOPC   H5R17086   7.035   4.168  17.220 -0.3069 -0.1171  0.5158
  144DOPC   H5S17087   6.853   4.182  17.244  0.0811 -0.3833  2.6929
  144DOPC   C2617088   6.929   4.049  17.084  0.2413  0.1762 -0.5356
  144DOPC   H6R17089   6.852   3.969  17.087 -1.1561  1.5018 -0.0257
  144DOPC   H6S17090   7.027   4.006  17.054 -0.0409  1.0437 -2.8527
  144DOPC   C2717091   6.886   4.149  16.978  0.2169  0.3142 -0.1902
  144DOPC   H7R17092   6.965   4.227  16.978  1.9663 -1.3574 -1.5760
  144DOPC   H7S17093   6.786   4.189  17.006  0.9089  2.2213 -0.3248
  144DOPC   C2817094   6.869   4.093  16.830  0.3581  0.0498  0.0884
  144DOPC   H8R17095   6.798   4.008  16.825 -0.8788  1.0880 -0.6095
  144DOPC   H8S17096   6.962   4.056  16.783  0.4006 -1.3423  1.2002
  144DOPC   C2917097   6.802   4.201  16.733 -0.5426  0.4157 -0.1298
  144DOPC   H9R17098   6.739   4.282  16.772  0.4096  1.6952 -1.1475
  144DOPC  C21017099   6.846   4.219  16.607 -0.5221 -0.4588  0.2335
  144DOPC  H10R17100   6.805   4.306  16.553 -3.1158 -2.0703 -0.6287
  144DOPC  C21117101   6.948   4.142  16.529 -0.3381 -0.2785 -0.5339
  144DOPC  H11R17102   6.989   4.052  16.579  0.0366 -1.0150 -2.0981
  144DOPC  H11S17103   7.037   4.203  16.502  0.0256 -0.8899 -0.7373
  144DOPC  C21217104   6.898   4.095  16.391 -0.0158  0.2834  0.2590
  144DOPC  H12R17105   6.798   4.050  16.401 -0.7657  1.9240  0.4943
  144DOPC  H12S17106   6.959   4.008  16.358  1.2145  0.8676  0.8969
  144DOPC  C21317107   6.901   4.192  16.268 -0.0360  0.2801 -0.6475
  144DOPC  H13R17108   7.008   4.220  16.259  0.8188 -1.0002  3.3651
  144DOPC  H13S17109   6.838   4.277  16.302 -0.4103 -0.1014 -0.3825
  144DOPC  C21417110   6.855   4.137  16.128 -0.1940 -0.0284  0.0400
  144DOPC  H14R17111   6.747   4.151  16.107  0.1020  0.6752 -1.0682
  144DOPC  H14S17112   6.884   4.029  16.127 -0.1578 -0.0189  0.0822
  144DOPC  C21517113   6.924   4.199  16.002 -0.2711  0.3676 -0.7670
  144DOPC  H15R17114   7.032   4.201  16.028 -0.6524  0.9075  0.9190
  144DOPC  H15S17115   6.900   4.307  15.990  1.5291  0.6461 -2.4065
  144DOPC  C21617116   6.901   4.106  15.884  0.1047  0.5970  0.7702
  144DOPC  H16R17117   6.792   4.087  15.873 -0.0519  2.0635 -0.5961
  144DOPC  H16S17118   6.941   4.004  15.901  1.1322  0.3807 -2.3204
  144DOPC  C21717119   6.947   4.157  15.746 -0.0367  0.3607  0.1725
  144DOPC  H17R17120   7.051   4.194  15.758 -0.0643  0.9722 -1.2996
  144DOPC  H17S17121   6.898   4.251  15.714  3.0144  1.2798 -2.4354
  144DOPC  C21817122   6.939   4.058  15.636  0.3437 -0.1652  0.2218
  144DOPC  H18R17123   6.988   3.960  15.658  1.4102  0.0775 -0.9534
  144DOPC  H18S17124   6.977   4.105  15.543  0.2508 -0.0446  0.2454
  144DOPC  H18T17125   6.831   4.037  15.618  0.2232  0.8277 -0.2993
  144DOPC   C3317126   6.508   3.905  17.190  0.5344  0.2512 -0.5438
  144DOPC   H3X17127   6.600   3.966  17.203  0.5978  0.1763 -0.6445
  144DOPC   H3Y17128   6.414   3.963  17.200  1.0350  0.9873 -0.0801
  144DOPC   C3417129   6.522   3.820  17.062  0.0374  0.2019 -0.7227
  144DOPC   H4X17130   6.435   3.750  17.060  1.3876 -1.6050  0.6103
  144DOPC   H4Y17131   6.618   3.765  17.067 -1.2371 -2.0608  0.8111
  144DOPC   C3517132   6.512   3.910  16.938 -0.2333 -0.5344 -0.5805
  144DOPC   H5X17133   6.600   3.978  16.933  0.1169 -0.9236  0.1489
  144DOPC   H5Y17134   6.421   3.974  16.936 -0.0401 -0.2527 -0.4942
  144DOPC   C3617135   6.489   3.847  16.802  0.3597 -0.6009  0.4058
  144DOPC   H6X17136   6.567   3.775  16.771 -1.3753 -1.5241 -2.1102
  144DOPC   H6Y17137   6.391   3.797  16.794 -1.0615  1.9528  0.5569
  144DOPC   C3717138   6.485   3.955  16.685 -0.0163  0.3746  0.0621
  144DOPC   H7X17139   6.389   4.008  16.706 -1.1177 -0.9756 -1.3676
  144DOPC   H7Y17140   6.577   4.016  16.696 -1.1813  2.2014  0.1154
  144DOPC   C3817141   6.487   3.901  16.543  0.3650 -0.6223 -0.3298
  144DOPC   H8X17142   6.412   3.824  16.515 -0.3057  0.2496 -0.9818
  144DOPC   H8Y17143   6.591   3.863  16.535  0.7468  0.4700 -0.7898
  144DOPC   C3917144   6.464   4.030  16.457 -0.0797  0.4918  0.3898
  144DOPC   H9X17145   6.430   4.119  16.512 -0.8831  1.0043 -0.8910
  144DOPC  C31017146   6.492   4.037  16.325  0.5064 -0.4446 -0.4678
  144DOPC  H10X17147   6.472   4.130  16.270  0.1823 -0.2032  0.0451
  144DOPC  C31117148   6.540   3.918  16.240  0.0687  0.7923  0.8054
  144DOPC  H11X17149   6.524   3.818  16.286  0.4506 -0.6027 -1.9358
  144DOPC  H11Y17150   6.648   3.930  16.218  0.4690  1.5838  2.9164
  144DOPC  C31217151   6.464   3.922  16.099  0.1958 -0.7993 -0.9425
  144DOPC  H12X17152   6.465   4.028  16.064  0.3006  0.4226  2.4088
  144DOPC  H12Y17153   6.357   3.895  16.113  0.6593 -1.7831  1.0988
  144DOPC  C31317154   6.520   3.825  15.994 -0.4613 -0.3995  0.2155
  144DOPC  H13X17155   6.615   3.869  15.954 -1.6445 -0.7488 -3.3075
  144DOPC  H13Y17156   6.536   3.730  16.049 -0.6557  1.0183  2.8687
  144DOPC  C31417157   6.424   3.801  15.878  0.4501  0.8390  0.1842
  144DOPC  H14X17158   6.484   3.745  15.803 -1.1230 -0.8210  0.1024
  144DOPC  H14Y17159   6.350   3.726  15.914 -0.6899  1.3814 -0.9436
  144DOPC  C31517160   6.351   3.921  15.825 -0.2257  0.1129  0.4208
  144DOPC  H15X17161   6.287   3.969  15.902 -0.0412 -0.4504  0.9250
  144DOPC  H15Y17162   6.278   3.889  15.747  0.7919 -0.0329 -0.4959
  144DOPC  C31617163   6.447   4.030  15.769 -0.2469  0.1977  0.1164
  144DOPC  H16X17164   6.537   4.052  15.830 -0.0455 -0.0324 -0.0933
  144DOPC  H16Y17165   6.482   3.992  15.671 -0.4727  0.6493 -0.1431
  144DOPC  C31717166   6.364   4.156  15.742  0.1586  0.7512  0.7411
  144DOPC  H17X17167   6.279   4.118  15.681  3.3632 -0.5721 -3.4117
  144DOPC  H17Y17168   6.330   4.197  15.839 -0.7826 -0.8888  1.1400
  144DOPC  C31817169   6.446   4.254  15.653 -0.5680  0.5886 -0.4684
  144DOPC  H18X17170   6.477   4.195  15.565  0.3139  0.1557  0.1165
  144DOPC  H18Y17171   6.399   4.350  15.623 -2.6239 -0.2383 -0.0093
  144DOPC  H18Z17172   6.541   4.274  15.709 -0.9187 -2.1325  1.3149
  145DOPC     N17173   6.017   0.212  18.162  0.0913 -0.2038  0.1348
  145DOPC   C1217174   6.102   0.204  18.028 -0.1088 -0.2538 -0.0323
  145DOPC  H12A17175   6.185   0.272  18.039  0.3553 -0.9370  0.7397
  145DOPC  H12B17176   6.033   0.250  17.957 -1.3252 -1.7418  0.1422
  145DOPC   C1317177   5.903   0.116  18.145 -0.6942 -0.4440  0.0375
  145DOPC  H13A17178   5.830   0.151  18.073  0.0950 -0.1431 -0.6286
  145DOPC  H13B17179   5.935   0.017  18.115 -2.0943 -0.5605 -1.1690
  145DOPC  H13C17180   5.847   0.110  18.237 -0.7945  1.3022  0.1220
  145DOPC   C1417181   5.964   0.350  18.190  0.7179 -0.2001  0.0118
  145DOPC  H14A17182   6.046   0.415  18.218  0.2780  0.0029  0.8523
  145DOPC  H14B17183   5.920   0.394  18.101 -0.3391 -0.8240  0.2230
  145DOPC  H14C17184   5.891   0.352  18.269 -0.4942  0.8767 -1.0877
  145DOPC   C1517185   6.097   0.174  18.276 -0.6924 -0.2601 -0.2262
  145DOPC  H15A17186   6.165   0.256  18.292 -1.1836 -0.0883  1.1275
  145DOPC  H15B17187   6.147   0.080  18.260 -1.8661 -0.8516 -0.5417
  145DOPC  H15C17188   6.041   0.169  18.368  0.9074 -0.4418  0.7745
  145DOPC   C1117189   6.150   0.076  17.966  0.4918 -0.2310 -0.6340
  145DOPC  H11A17190   6.066   0.007  17.941 -0.9635  0.9100  0.8704
  145DOPC  H11B17191   6.196   0.103  17.869  1.7367  0.3175  0.0925
  145DOPC     P17192   6.400   0.032  18.043 -0.1614  0.0876  0.2022
  145DOPC   O1317193   6.475  -0.083  18.091  0.0412  0.0197 -0.0832
  145DOPC   O1417194   6.437   0.163  18.103 -0.4845 -0.3457  0.1154
  145DOPC   O1217195   6.240   0.011  18.053 -0.6172  0.0680  0.4605
  145DOPC   O1117196   6.428   0.048  17.884  0.6152  0.1643 -0.0632
  145DOPC    C117197   6.443  -0.057  17.794 -0.3728  0.2482 -0.1856
  145DOPC    HA17198   6.396  -0.027  17.697 -3.2016 -0.9200  0.7140
  145DOPC    HB17199   6.396  -0.149  17.835 -0.4720  0.6283  0.5554
  145DOPC    C217200   6.594  -0.102  17.775 -0.0868  0.4909  0.3671
  145DOPC    HS17201   6.635  -0.119  17.877  1.4401  2.1397  0.0655
  145DOPC   O2117202   6.663   0.003  17.700  0.5755  0.0300 -0.3569
  145DOPC   C2117203   6.798  -0.016  17.696 -0.5767 -0.2424  0.3883
  145DOPC   O2217204   6.861  -0.105  17.751  0.8064 -0.1364 -0.2142
  145DOPC   C2217205   6.863   0.093  17.610 -0.1649 -0.4526  0.1421
  145DOPC   H2R17206   6.933   0.040  17.542 -1.3812 -1.9901  0.0175
  145DOPC   H2S17207   6.928   0.151  17.678 -2.4951  3.5404 -0.6790
  145DOPC    C317208   6.602  -0.241  17.699  0.3116 -0.3270 -0.1905
  145DOPC    HX17209   6.524  -0.314  17.729  0.8614 -0.3876  1.1397
  145DOPC    HY17210   6.701  -0.288  17.716 -0.6320 -2.4247 -0.1767
  145DOPC   O3117211   6.589  -0.216  17.566  0.1025 -0.0007  0.0388
  145DOPC   C3117212   6.473  -0.228  17.508 -0.1436  0.2921 -0.4428
  145DOPC   O3217213   6.362  -0.246  17.554  0.5603 -0.2478 -0.3120
  145DOPC   C3217214   6.500  -0.233  17.359 -0.2702  0.5918  0.1861
  145DOPC   H2X17215   6.547  -0.138  17.328 -1.3883  0.6337 -1.5552
  145DOPC   H2Y17216   6.564  -0.323  17.346 -2.2943 -0.8581 -0.3783
  145DOPC   C2317217   6.772   0.198  17.539 -0.6174  0.8307  1.0310
  145DOPC   H3R17218   6.854   0.268  17.512  0.1766 -0.2043  0.6677
  145DOPC   H3S17219   6.700   0.240  17.612 -0.7858 -1.1188  2.0491
  145DOPC   C2417220   6.717   0.133  17.418  0.2166 -0.2609  0.1088
  145DOPC   H4R17221   6.639   0.058  17.443 -0.7243 -0.6982 -3.5897
  145DOPC   H4S17222   6.795   0.072  17.368 -0.8296  0.8330 -3.0791
  145DOPC   C2517223   6.650   0.228  17.315 -0.8232 -0.2388  0.1882
  145DOPC   H5R17224   6.733   0.290  17.275 -0.3774 -1.2220 -0.4409
  145DOPC   H5S17225   6.570   0.293  17.356 -0.3872 -0.0629  0.7731
  145DOPC   C2617226   6.576   0.146  17.209 -0.4740 -0.1525 -0.2056
  145DOPC   H6R17227   6.501   0.083  17.261 -1.1830 -0.1034 -1.1409
  145DOPC   H6S17228   6.647   0.076  17.160  1.5509  0.1878  2.0503
  145DOPC   C2717229   6.486   0.225  17.115  0.2923  0.1800  0.6563
  145DOPC   H7R17230   6.547   0.293  17.051 -0.1907 -0.9058 -1.0265
  145DOPC   H7S17231   6.418   0.290  17.175  0.9746  0.7468  0.8333
  145DOPC   C2817232   6.411   0.132  17.025 -0.1129  0.5165  0.4939
  145DOPC   H8R17233   6.346   0.062  17.081 -1.0347  2.0299  1.3869
  145DOPC   H8S17234   6.490   0.078  16.968  0.7640 -1.0369  3.0326
  145DOPC   C2917235   6.319   0.212  16.930 -1.0004 -0.4606 -0.5468
  145DOPC   H9R17236   6.223   0.250  16.967 -0.6616  1.1072 -1.1680
  145DOPC  C21017237   6.336   0.229  16.801 -0.6649  0.1484 -0.0307
  145DOPC  H10R17238   6.261   0.280  16.738 -0.4506  0.6743  0.1392
  145DOPC  C21117239   6.454   0.179  16.725  0.2812  0.5286 -0.6532
  145DOPC  H11R17240   6.442   0.070  16.706 -1.0457  0.0006  2.5484
  145DOPC  H11S17241   6.546   0.197  16.784 -0.4536  3.5942 -0.2711
  145DOPC  C21217242   6.470   0.255  16.593  0.8175  0.1692  0.4977
  145DOPC  H12R17243   6.569   0.233  16.546  0.6867 -0.0517  0.3245
  145DOPC  H12S17244   6.483   0.364  16.611  0.8670  0.3422 -0.5172
  145DOPC  C21317245   6.366   0.222  16.483  0.3383  0.4765 -1.5834
  145DOPC  H13R17246   6.269   0.244  16.531  1.7412  1.5506  0.9735
  145DOPC  H13S17247   6.373   0.112  16.474  0.5203  0.0130  2.4766
  145DOPC  C21417248   6.393   0.291  16.352 -0.4116 -0.2432  0.3046
  145DOPC  H14R17249   6.502   0.278  16.336 -0.4399 -0.6279  0.4349
  145DOPC  H14S17250   6.368   0.399  16.338 -0.4877 -0.6337 -3.6193
  145DOPC  C21517251   6.319   0.229  16.233  0.2210  0.1414  0.4984
  145DOPC  H15R17252   6.220   0.278  16.232 -0.4171 -1.0849  0.9810
  145DOPC  H15S17253   6.292   0.122  16.246  0.4498 -0.4256 -2.8453
  145DOPC  C21617254   6.381   0.251  16.089  0.5659  0.8629  0.1714
  145DOPC  H16R17255   6.487   0.219  16.096  0.2499 -1.0952 -2.2481
  145DOPC  H16S17256   6.370   0.359  16.068 -2.8055  0.5428 -0.3513
  145DOPC  C21717257   6.306   0.152  15.989 -0.5626 -0.6347  0.0966
  145DOPC  H17R17258   6.199   0.183  15.993 -0.0930  1.4674 -1.6153
  145DOPC  H17S17259   6.308   0.044  16.014  0.4111 -0.5637  0.3504
  145DOPC  C21817260   6.366   0.180  15.847 -0.4050  0.6824 -0.4208
  145DOPC  H18R17261   6.460   0.121  15.840 -1.4504 -1.0586 -0.5860
  145DOPC  H18S17262   6.387   0.288  15.839 -2.1263  1.0066 -0.9902
  145DOPC  H18T17263   6.297   0.134  15.773  0.1759  1.3467 -1.3948
  145DOPC   C3317264   6.369  -0.247  17.271  0.1086  0.2448 -0.1667
  145DOPC   H3X17265   6.319  -0.149  17.288  0.1318  0.3745 -0.8021
  145DOPC   H3Y17266   6.305  -0.333  17.296  1.7558 -0.6505  1.2331
  145DOPC   C3417267   6.413  -0.237  17.128 -0.4070  0.2659  0.4300
  145DOPC   H4X17268   6.489  -0.319  17.122  1.7161  2.1530  0.2097
  145DOPC   H4Y17269   6.473  -0.147  17.105  0.3849  0.8210  4.1226
  145DOPC   C3517270   6.301  -0.284  17.032  0.7429 -0.9030  0.7369
  145DOPC   H5X17271   6.236  -0.195  17.018  0.3723 -1.0746  1.3112
  145DOPC   H5Y17272   6.239  -0.365  17.075 -0.2699 -1.8220 -2.2708
  145DOPC   C3617273   6.348  -0.326  16.892 -0.6305  0.3225 -0.0634
  145DOPC   H6X17274   6.401  -0.424  16.896 -1.1100 -0.0918 -2.2781
  145DOPC   H6Y17275   6.254  -0.344  16.836 -0.7534 -0.8798  0.5088
  145DOPC   C3717276   6.424  -0.208  16.821  0.3472  0.3284  0.4885
  145DOPC   H7X17277   6.358  -0.120  16.837  0.4287  0.8014 -1.4737
  145DOPC   H7Y17278   6.524  -0.192  16.866  0.3259  0.7271  0.3982
  145DOPC   C3817279   6.448  -0.233  16.669 -0.5620 -0.0830 -0.9117
  145DOPC   H8X17280   6.487  -0.337  16.657  3.2592  1.0343  0.2240
  145DOPC   H8Y17281   6.512  -0.151  16.630 -2.2407 -0.3305 -4.5949
  145DOPC   C3917282   6.320  -0.205  16.603 -0.1399 -0.5598 -0.0035
  145DOPC   H9X17283   6.279  -0.105  16.620 -1.2439 -0.3322 -3.2706
  145DOPC  C31017284   6.249  -0.274  16.517 -0.6203  0.1607 -0.5586
  145DOPC  H10X17285   6.152  -0.239  16.479 -1.7286 -2.7522 -0.6526
  145DOPC  C31117286   6.292  -0.405  16.456  0.2504 -0.2360  0.9639
  145DOPC  H11X17287   6.202  -0.469  16.451 -0.1328  0.3356  0.3805
  145DOPC  H11Y17288   6.379  -0.458  16.502  1.7984  1.5076  0.1877
  145DOPC  C31217289   6.336  -0.387  16.303  0.5050  0.3545  0.4059
  145DOPC  H12X17290   6.386  -0.479  16.263  0.2483  0.1062  0.6487
  145DOPC  H12Y17291   6.419  -0.314  16.295 -1.3843  2.8370  2.0732
  145DOPC  C31317292   6.215  -0.359  16.215 -0.4536 -0.4562  0.2789
  145DOPC  H13X17293   6.144  -0.444  16.218  1.7608 -2.4143 -0.2508
  145DOPC  H13Y17294   6.163  -0.263  16.240 -1.1526 -0.3877 -1.3021
  145DOPC  C31417295   6.247  -0.344  16.063  0.1633  0.1383  0.2165
  145DOPC  H14X17296   6.330  -0.271  16.047  1.1351 -1.2231 -1.3499
  145DOPC  H14Y17297   6.285  -0.439  16.019 -1.1870 -0.3538  0.0813
  145DOPC  C31517298   6.121  -0.294  15.976 -0.7971 -0.4313 -0.1473
  145DOPC  H15X17299   6.070  -0.216  16.036 -0.0277  0.5576 -0.7594
  145DOPC  H15Y17300   6.056  -0.384  15.965 -0.2613 -0.8475  0.0165
  145DOPC  C31617301   6.160  -0.239  15.840 -0.3585 -0.2812 -0.1507
  145DOPC  H16X17302   6.067  -0.202  15.791 -0.8641 -0.7256  0.4609
  145DOPC  H16Y17303   6.238  -0.162  15.857 -0.5717 -0.0631 -0.1577
  145DOPC  C31717304   6.228  -0.343  15.747  0.6638  0.2479  0.8748
  145DOPC  H17X17305   6.229  -0.292  15.649 -1.1410 -1.5204 -0.1427
  145DOPC  H17Y17306   6.333  -0.366  15.774  0.3546 -1.5388  0.7001
  145DOPC  C31817307   6.147  -0.473  15.716  0.1850  0.3636  0.5192
  145DOPC  H18X17308   6.104  -0.528  15.802 -1.9220  1.0166 -0.0575
  145DOPC  H18Y17309   6.049  -0.446  15.670  0.6468 -1.1609 -1.5097
  145DOPC  H18Z17310   6.203  -0.548  15.656 -2.8071 -0.7737 -1.1068
  146DOPC     N17311   1.167   5.324  18.491  0.3086  0.3483 -0.3871
  146DOPC   C1217312   1.200   5.331  18.345  0.5144 -0.4185 -0.1285
  146DOPC  H12A17313   1.303   5.360  18.326  0.4901 -1.4126 -2.0291
  146DOPC  H12B17314   1.141   5.411  18.303  0.1670  0.4056  1.8154
  146DOPC   C1317315   1.217   5.451  18.561  0.4842 -0.6442 -0.0699
  146DOPC  H13A17316   1.212   5.450  18.669  2.2318  0.2836  0.0569
  146DOPC  H13B17317   1.324   5.465  18.549  0.3260  1.5260  0.6923
  146DOPC  H13C17318   1.168   5.539  18.523  1.4432 -0.3122 -0.5533
  146DOPC   C1417319   1.242   5.213  18.555  0.6391  0.1240 -0.3879
  146DOPC  H14A17320   1.349   5.225  18.555  0.5991  0.6875 -1.4629
  146DOPC  H14B17321   1.220   5.209  18.660 -1.9435  1.9108 -0.7640
  146DOPC  H14C17322   1.222   5.114  18.518 -0.8162  0.2863 -0.1025
  146DOPC   C1517323   1.026   5.299  18.517  0.4474  0.1918  0.2988
  146DOPC  H15A17324   0.975   5.385  18.478  0.4914 -0.3432 -0.9864
  146DOPC  H15B17325   1.010   5.281  18.622  0.9343  2.1309  0.7312
  146DOPC  H15C17326   0.990   5.223  18.449 -0.6635  1.0540 -0.1044
  146DOPC   C1117327   1.164   5.200  18.263 -0.4385  0.1857  0.3760
  146DOPC  H11A17328   1.191   5.216  18.157 -2.2477  0.5488 -0.0618
  146DOPC  H11B17329   1.236   5.125  18.302  1.8640  0.9730 -2.0539
  146DOPC     P17330   0.932   5.196  18.156  0.1314 -0.2995  0.1294
  146DOPC   O1317331   0.952   5.339  18.150 -0.2112  0.1459  0.3792
  146DOPC   O1417332   0.799   5.144  18.195  0.1207  0.2740 -0.2626
  146DOPC   O1217333   1.031   5.154  18.274  0.3713 -0.4842  0.7578
  146DOPC   O1117334   0.990   5.142  18.021  0.3402  0.7251  0.2365
  146DOPC    C117335   0.966   4.998  17.993 -0.5441  0.7991 -0.0505
  146DOPC    HA17336   0.920   4.938  18.074  1.9690 -2.0873 -0.5970
  146DOPC    HB17337   1.059   4.942  17.971 -0.6791  0.1207  1.0377
  146DOPC    C217338   0.869   4.986  17.868 -0.3147  0.0696  0.0226
  146DOPC    HS17339   0.879   4.881  17.833 -0.3808  0.1639 -0.2819
  146DOPC   O2117340   0.905   5.064  17.751  0.1178  0.1084 -0.2262
  146DOPC   C2117341   1.018   5.043  17.686  0.3046  0.5657 -0.1936
  146DOPC   O2217342   1.097   4.953  17.715  0.6906  0.3938 -0.8520
  146DOPC   C2217343   1.026   5.117  17.558  0.2286  0.0533  0.7241
  146DOPC   H2R17344   1.000   5.221  17.587 -0.5095 -0.0467  0.4365
  146DOPC   H2S17345   0.947   5.085  17.487 -0.2840  0.6575  1.0094
  146DOPC    C317346   0.723   5.003  17.911  0.0362  0.2159 -0.0167
  146DOPC    HX17347   0.713   5.110  17.940 -2.3924 -0.2911  1.3291
  146DOPC    HY17348   0.691   4.938  17.995 -1.3506 -0.7784 -1.2618
  146DOPC   O3117349   0.634   4.978  17.803  0.0577  0.6413 -0.5711
  146DOPC   C3117350   0.606   4.843  17.788 -0.4686 -0.6686 -0.1045
  146DOPC   O3217351   0.646   4.754  17.860 -0.1650  0.0890  0.1558
  146DOPC   C3217352   0.534   4.824  17.654  0.1595 -0.1148 -0.0686
  146DOPC   H2X17353   0.463   4.909  17.660 -0.1227 -0.4169  1.4891
  146DOPC   H2Y17354   0.615   4.823  17.579  0.7915  1.8793  0.5346
  146DOPC   C2317355   1.157   5.115  17.491  0.6379 -0.2254  0.7796
  146DOPC   H3R17356   1.198   5.014  17.470  0.4500 -0.2553  0.5473
  146DOPC   H3S17357   1.231   5.167  17.554  2.1968  0.9399 -1.8259
  146DOPC   C2417358   1.154   5.203  17.364 -0.6815  0.1251 -0.1790
  146DOPC   H4R17359   1.256   5.187  17.323 -1.0963 -1.6853 -0.5674
  146DOPC   H4S17360   1.141   5.310  17.391  1.3083  0.1556  0.8079
  146DOPC   C2517361   1.058   5.153  17.248 -0.1275  1.2205  0.7077
  146DOPC   H5R17362   0.955   5.177  17.283 -0.1468 -0.8337  2.3302
  146DOPC   H5S17363   1.077   5.046  17.226 -2.0227  1.0717 -0.4124
  146DOPC   C2617364   1.078   5.227  17.118 -0.4775 -0.3089  0.8965
  146DOPC   H6R17365   1.170   5.189  17.069  0.9484  2.1117  1.5515
  146DOPC   H6S17366   1.088   5.337  17.129  2.5661 -0.0301 -2.7932
  146DOPC   C2717367   0.960   5.207  17.020  0.4078  0.5390  0.5298
  146DOPC   H7R17368   0.873   5.265  17.059 -0.0627  0.9925 -1.1095
  146DOPC   H7S17369   0.929   5.100  17.020 -4.2971  1.6178  2.2125
  146DOPC   C2817370   0.985   5.268  16.876 -0.0815  0.0504  0.9064
  146DOPC   H8R17371   1.086   5.265  16.830 -0.4566 -0.0890  0.0899
  146DOPC   H8S17372   0.962   5.376  16.882 -2.5019 -0.0672 -3.0427
  146DOPC   C2917373   0.884   5.214  16.775  0.4901 -0.0469  0.0261
  146DOPC   H9R17374   0.781   5.218  16.815  1.2252 -0.8712  2.1257
  146DOPC  C21017375   0.897   5.169  16.650  0.1174  0.2601 -0.9631
  146DOPC  H10R17376   0.815   5.109  16.608 -0.9505  0.8282  0.2527
  146DOPC  C21117377   1.022   5.181  16.558 -0.2184 -0.1261 -0.0376
  146DOPC  H11R17378   1.100   5.105  16.577 -0.1096 -0.9140 -3.0529
  146DOPC  H11S17379   1.064   5.281  16.583  0.6059 -0.0796 -1.4919
  146DOPC  C21217380   0.991   5.184  16.408  0.5291 -0.4246  0.6611
  146DOPC  H12R17381   0.901   5.247  16.388  1.4468  0.3502 -1.3198
  146DOPC  H12S17382   0.968   5.084  16.365  2.3629 -1.6619  2.3787
  146DOPC  C21317383   1.107   5.255  16.329  0.3124 -0.1215  0.3022
  146DOPC  H13R17384   1.196   5.188  16.332  0.6195  0.1146 -1.9281
  146DOPC  H13S17385   1.141   5.347  16.381 -0.9108 -1.2538  3.3070
  146DOPC  C21417386   1.070   5.292  16.180 -0.8966 -0.1441  0.1600
  146DOPC  H14R17387   1.162   5.305  16.120  0.7211 -2.3246  1.9735
  146DOPC  H14S17388   1.004   5.381  16.174 -1.9624 -0.6335  3.0560
  146DOPC  C21517389   0.994   5.184  16.101  0.4498 -0.4261 -0.1877
  146DOPC  H15R17390   0.894   5.169  16.147 -0.4695  1.9426 -1.2678
  146DOPC  H15S17391   1.038   5.084  16.120 -0.8341 -1.0771 -0.5089
  146DOPC  C21617392   0.990   5.205  15.949 -0.0490 -0.2756 -0.2938
  146DOPC  H16R17393   0.952   5.108  15.911 -1.6746  0.6441 -1.1485
  146DOPC  H16S17394   1.086   5.234  15.901 -0.5648  2.7262  0.2493
  146DOPC  C21717395   0.882   5.304  15.901 -0.4606  0.1319 -0.0753
  146DOPC  H17R17396   0.899   5.401  15.952 -3.2426  1.6789 -1.8951
  146DOPC  H17S17397   0.786   5.261  15.937  0.5041 -0.4087  2.0173
  146DOPC  C21817398   0.885   5.322  15.750 -0.4715  0.0724  0.0816
  146DOPC  H18R17399   0.977   5.379  15.725  0.2940 -1.1530 -0.0005
  146DOPC  H18S17400   0.797   5.373  15.706  0.3793  2.1182  0.6399
  146DOPC  H18T17401   0.887   5.224  15.697 -0.1085 -0.2177  0.6238
  146DOPC   C3317402   0.447   4.694  17.651  0.1619  1.0441  1.1132
  146DOPC   H3X17403   0.367   4.705  17.727 -0.3056  1.1784  0.6019
  146DOPC   H3Y17404   0.509   4.616  17.701  1.4631  1.4685  0.1993
  146DOPC   C3417405   0.412   4.651  17.504  0.2073 -0.6789 -1.0968
  146DOPC   H4X17406   0.503   4.627  17.445  1.1830 -2.0342  0.8530
  146DOPC   H4Y17407   0.353   4.730  17.453  0.9300 -0.8554 -2.2275
  146DOPC   C3517408   0.316   4.524  17.497 -0.3184  0.1476 -0.3791
  146DOPC   H5X17409   0.235   4.537  17.572 -1.8327 -1.2565 -1.6882
  146DOPC   H5Y17410   0.386   4.442  17.523  0.5087  0.5556 -1.2711
  146DOPC   C3617411   0.253   4.504  17.359 -0.0345  0.2372  1.1831
  146DOPC   H6X17412   0.199   4.406  17.358 -2.5954  1.5511 -0.0101
  146DOPC   H6Y17413   0.182   4.589  17.353  0.6143  0.6891 -1.3058
  146DOPC   C3717414   0.348   4.527  17.234 -0.9346 -0.3619 -0.2236
  146DOPC   H7X17415   0.383   4.632  17.233 -0.6595 -0.4193  1.1305
  146DOPC   H7Y17416   0.437   4.464  17.254 -0.5569  0.5507  1.1106
  146DOPC   C3817417   0.297   4.490  17.097 -0.5488  0.5734  0.3686
  146DOPC   H8X17418   0.207   4.550  17.073 -0.2640  1.1771  0.7810
  146DOPC   H8Y17419   0.269   4.384  17.115 -0.1493  0.4581  0.3162
  146DOPC   C3917420   0.399   4.502  16.986 -0.8738  0.2458 -0.2549
  146DOPC   H9X17421   0.498   4.455  16.994 -0.9497 -0.0844 -1.0953
  146DOPC  C31017422   0.380   4.548  16.860 -0.9693 -0.1895 -0.5715
  146DOPC  H10X17423   0.470   4.549  16.797 -0.0993  0.9775  0.6278
  146DOPC  C31117424   0.256   4.615  16.808  0.5130 -0.0997  0.3023
  146DOPC  H11X17425   0.261   4.726  16.808  0.7519 -0.0577 -2.2888
  146DOPC  H11Y17426   0.172   4.579  16.870  0.9236 -0.4835  0.6413
  146DOPC  C31217427   0.248   4.591  16.653  1.0213  0.7672 -0.4106
  146DOPC  H12X17428   0.145   4.627  16.628  0.5995  1.9210  2.5604
  146DOPC  H12Y17429   0.253   4.482  16.631 -1.5028  0.6701 -0.8604
  146DOPC  C31317430   0.342   4.669  16.562  0.3048  0.4272 -0.3950
  146DOPC  H13X17431   0.314   4.777  16.567 -1.1915  0.0445  0.0827
  146DOPC  H13Y17432   0.447   4.645  16.590  0.0195 -1.3406 -0.7112
  146DOPC  C31417433   0.336   4.633  16.415  0.6200  0.0509  0.5369
  146DOPC  H14X17434   0.428   4.669  16.364  0.2203 -3.0369 -2.7367
  146DOPC  H14Y17435   0.336   4.524  16.392 -1.6899  0.2263 -0.4970
  146DOPC  C31517436   0.218   4.694  16.336 -0.1718 -0.1039  0.0677
  146DOPC  H15X17437   0.232   4.804  16.322  0.9749  0.0936  2.2458
  146DOPC  H15Y17438   0.128   4.680  16.399 -0.4016 -0.7884 -0.4048
  146DOPC  C31617439   0.209   4.631  16.194  0.8804  1.0130  0.2574
  146DOPC  H16X17440   0.307   4.631  16.141 -0.5269 -0.6997 -2.5959
  146DOPC  H16Y17441   0.190   4.523  16.208  0.0515  0.7816 -2.1356
  146DOPC  C31717442   0.102   4.685  16.093  0.3611 -0.3404 -0.2989
  146DOPC  H17X17443   0.110   4.794  16.073 -2.3025 -0.0719 -0.2556
  146DOPC  H17Y17444   0.130   4.627  16.001 -0.3456 -0.5357 -0.4012
  146DOPC  C31817445  -0.038   4.640  16.126 -0.1213  0.2274  0.1647
  146DOPC  H18X17446  -0.094   4.690  16.208 -0.0952 -0.4782  0.6181
  146DOPC  H18Y17447  -0.097   4.644  16.032 -1.2611  0.8106  0.8761
  146DOPC  H18Z17448  -0.026   4.535  16.159  0.6184  0.1135 -0.4376
  147DOPC     N17449   4.931   5.135  18.071  1.0004 -0.1700  0.0146
  147DOPC   C1217450   5.032   5.063  17.990 -0.0929 -0.1043  0.3246
  147DOPC  H12A17451   5.094   4.995  18.047 -2.6881 -2.7566  0.1926
  147DOPC  H12B17452   5.089   5.146  17.949 -0.5861  1.3075  2.3355
  147DOPC   C1317453   4.829   5.039  18.116 -0.0806  0.7466  0.0173
  147DOPC  H13A17454   4.867   4.977  18.196  0.3330 -0.2613 -0.9225
  147DOPC  H13B17455   4.748   5.099  18.155  0.1609  1.1278 -0.0571
  147DOPC  H13C17456   4.797   4.974  18.036 -1.1427  0.7774  0.4059
  147DOPC   C1417457   4.855   5.244  17.997  0.5547 -0.3887 -0.6537
  147DOPC  H14A17458   4.804   5.214  17.907 -1.3470 -0.5938  0.4342
  147DOPC  H14B17459   4.776   5.285  18.058  0.1704 -0.7897 -0.8785
  147DOPC  H14C17460   4.917   5.328  17.970  0.0285  0.4123  0.5314
  147DOPC   C1517461   4.989   5.197  18.184 -0.2981 -0.4338 -0.6248
  147DOPC  H15A17462   5.014   5.128  18.263 -0.5324  1.4841  1.2028
  147DOPC  H15B17463   4.918   5.260  18.234 -0.7502 -1.7410  0.4587
  147DOPC  H15C17464   5.081   5.250  18.166  0.5997 -1.4433  0.7469
  147DOPC   C1117465   4.981   4.984  17.870 -1.0009  0.3614 -1.0305
  147DOPC  H11A17466   5.073   4.939  17.826 -1.2796  0.5698 -1.8486
  147DOPC  H11B17467   4.929   4.892  17.904  0.8506 -0.2889  0.1932
  147DOPC     P17468   4.981   5.151  17.683  0.0466 -0.0522  0.2743
  147DOPC   O1317469   5.110   5.202  17.743  0.3858  0.1453 -0.1964
  147DOPC   O1417470   4.877   5.246  17.633  0.2201 -0.0410 -0.5851
  147DOPC   O1217471   4.903   5.062  17.788  0.0534 -0.8617  0.0219
  147DOPC   O1117472   5.014   5.043  17.567  0.2896  0.5522  0.1736
  147DOPC    C117473   4.897   5.004  17.484 -0.6882  0.5686  0.4181
  147DOPC    HA17474   4.795   5.025  17.525 -2.2196 -0.4213 -2.5838
  147DOPC    HB17475   4.907   4.896  17.460 -1.7994  0.4558  0.3842
  147DOPC    C217476   4.905   5.076  17.342 -1.0650  0.7031 -0.3537
  147DOPC    HS17477   4.900   5.187  17.353  0.8152  0.9644 -1.6642
  147DOPC   O2117478   4.806   5.027  17.250  0.3023 -0.0240 -0.0683
  147DOPC   C2117479   4.682   5.054  17.277  0.2211  0.1022  0.5149
  147DOPC   O2217480   4.641   5.124  17.372 -0.0684  0.1448  0.1970
  147DOPC   C2217481   4.581   5.004  17.168  0.2653 -0.3022  0.7781
  147DOPC   H2R17482   4.636   5.018  17.072 -1.0118 -1.0209 -0.0966
  147DOPC   H2S17483   4.488   5.065  17.165  0.3540 -0.1852 -0.8629
  147DOPC    C317484   5.045   5.049  17.291  0.6202  0.3796  0.2142
  147DOPC    HX17485   5.075   4.945  17.314  3.1654  0.7687 -0.9801
  147DOPC    HY17486   5.105   5.113  17.359  2.2858 -0.5290 -0.3550
  147DOPC   O3117487   5.075   5.080  17.157 -0.1546 -0.0016 -0.1023
  147DOPC   C3117488   5.079   5.200  17.123 -0.3602 -0.1827  0.0601
  147DOPC   O3217489   5.043   5.299  17.186 -0.0227  0.4205 -0.6054
  147DOPC   C3217490   5.125   5.206  16.979 -0.6868  0.4539  0.2455
  147DOPC   H2X17491   5.233   5.180  16.973 -0.7001  0.5221 -0.3321
  147DOPC   H2Y17492   5.065   5.140  16.913  0.4016 -2.0560  1.6353
  147DOPC   C2317493   4.540   4.858  17.191 -0.6668 -0.8016  0.1343
  147DOPC   H3R17494   4.444   4.852  17.247 -0.9642  0.5349 -0.1978
  147DOPC   H3S17495   4.620   4.817  17.255  1.1317  1.4396 -0.5522
  147DOPC   C2417496   4.546   4.775  17.063  0.4768 -0.4145  0.2389
  147DOPC   H4R17497   4.554   4.665  17.078  0.1557 -0.2451  1.8409
  147DOPC   H4S17498   4.630   4.810  16.999 -0.3283 -1.3549 -1.4051
  147DOPC   C2517499   4.424   4.806  16.972  0.1094 -0.2969 -0.3321
  147DOPC   H5R17500   4.412   4.916  16.979  0.2407 -0.0982 -2.5976
  147DOPC   H5S17501   4.336   4.749  17.008  1.1987 -1.9527 -0.1827
  147DOPC   C2617502   4.440   4.767  16.827 -0.5198 -0.2708  0.5047
  147DOPC   H6R17503   4.431   4.657  16.812  3.5553 -0.5821 -0.9194
  147DOPC   H6S17504   4.537   4.797  16.782 -0.1042 -2.0353  0.1412
  147DOPC   C2717505   4.331   4.831  16.746  0.2085 -0.3525  0.5111
  147DOPC   H7R17506   4.345   4.941  16.757 -1.3930  0.2333 -2.3730
  147DOPC   H7S17507   4.227   4.809  16.779  0.1933 -0.7210  0.2176
  147DOPC   C2817508   4.343   4.794  16.595  0.5692  0.1015  0.3571
  147DOPC   H8R17509   4.451   4.798  16.570  0.4971 -0.9109 -0.1805
  147DOPC   H8S17510   4.303   4.886  16.547  1.3252 -0.5800 -1.7143
  147DOPC   C2917511   4.271   4.672  16.548  0.1914 -0.3042 -0.1842
  147DOPC   H9R17512   4.246   4.601  16.628 -0.8489  1.8990  1.5645
  147DOPC  C21017513   4.231   4.651  16.425  0.4062 -0.0414  0.9493
  147DOPC  H10R17514   4.151   4.578  16.408  0.9717 -0.1825 -1.4420
  147DOPC  C21117515   4.266   4.734  16.305  0.5540  0.2689 -0.7016
  147DOPC  H11R17516   4.370   4.772  16.314  1.1335 -1.5582  1.1480
  147DOPC  H11S17517   4.210   4.828  16.287  0.9643  0.2065 -2.5153
  147DOPC  C21217518   4.275   4.662  16.170 -0.1467  0.4062 -0.2310
  147DOPC  H12R17519   4.180   4.611  16.143  0.5744 -1.9159  1.2969
  147DOPC  H12S17520   4.332   4.569  16.191 -1.7744 -0.7442 -0.7057
  147DOPC  C21317521   4.333   4.752  16.064  0.2823 -0.0753  0.3239
  147DOPC  H13R17522   4.433   4.796  16.083 -0.5130  1.5776  0.9617
  147DOPC  H13S17523   4.267   4.841  16.053  1.9041  1.2030  0.5780
  147DOPC  C21417524   4.343   4.688  15.921  0.1294  0.5814  0.1630
  147DOPC  H14R17525   4.415   4.603  15.930  0.0847  0.6757  1.8273
  147DOPC  H14S17526   4.406   4.747  15.850  2.7922 -1.8588  0.2974
  147DOPC  C21517527   4.213   4.650  15.851 -0.4600 -0.6368 -0.1141
  147DOPC  H15R17528   4.147   4.738  15.838  0.1796 -0.0950  0.2250
  147DOPC  H15S17529   4.149   4.589  15.916 -1.2391  0.6588  0.3687
  147DOPC  C21617530   4.222   4.581  15.717 -0.6606  0.0260  0.7829
  147DOPC  H16R17531   4.283   4.490  15.739 -0.6277 -0.0703  0.3015
  147DOPC  H16S17532   4.287   4.648  15.656 -2.3866  1.8494  0.8728
  147DOPC  C21717533   4.088   4.552  15.646 -0.7561 -0.0372  0.3619
  147DOPC  H17R17534   4.068   4.653  15.606  4.1931  0.7050 -0.9507
  147DOPC  H17S17535   4.018   4.517  15.724 -0.3826  0.1409  0.7854
  147DOPC  C21817536   4.100   4.460  15.526  0.4305 -0.4059 -0.2284
  147DOPC  H18R17537   4.132   4.360  15.560  0.1780  0.5911  3.3582
  147DOPC  H18S17538   4.183   4.493  15.460 -0.5201  0.7113 -0.9053
  147DOPC  H18T17539   4.003   4.439  15.475  0.4097 -0.0309 -0.3500
  147DOPC   C3317540   5.118   5.351  16.910  0.2596  0.5466 -0.2288
  147DOPC   H3X17541   5.197   5.415  16.955 -1.1329  0.7653  2.1113
  147DOPC   H3Y17542   5.020   5.395  16.942  1.8968  2.0557  3.2675
  147DOPC   C3417543   5.138   5.364  16.756 -0.0598  0.0864  0.2005
  147DOPC   H4X17544   5.232   5.306  16.740  0.5534  0.7718  1.2131
  147DOPC   H4Y17545   5.158   5.469  16.727  0.2578 -0.3711 -1.3253
  147DOPC   C3517546   5.024   5.314  16.671  0.0672 -0.0893  0.5157
  147DOPC   H5X17547   4.935   5.374  16.698  0.6338  0.8721  0.2828
  147DOPC   H5Y17548   4.990   5.213  16.704 -0.0064  0.1440  1.1671
  147DOPC   C3617549   5.044   5.313  16.516  0.4389 -0.0918  0.2197
  147DOPC   H6X17550   4.946   5.299  16.466  0.0911  2.7178 -0.0336
  147DOPC   H6Y17551   5.083   5.412  16.485 -0.2228  0.5658  1.4342
  147DOPC   C3717552   5.147   5.212  16.464  0.1753  0.4700 -0.6381
  147DOPC   H7X17553   5.244   5.235  16.514  0.3722 -0.3914 -0.6086
  147DOPC   H7Y17554   5.117   5.113  16.505  0.9076  0.8669  0.9612
  147DOPC   C3817555   5.172   5.210  16.315 -0.9508 -0.3417 -0.3742
  147DOPC   H8X17556   5.272   5.163  16.299 -0.0762  1.2926 -0.0012
  147DOPC   H8Y17557   5.181   5.316  16.281  0.6070  0.2528  1.6593
  147DOPC   C3917558   5.069   5.134  16.229  0.1454  0.0822  0.6059
  147DOPC   H9X17559   4.969   5.150  16.272 -0.0304 -3.1627  1.6126
  147DOPC  C31017560   5.080   5.074  16.105 -1.1132 -0.6448  0.0385
  147DOPC  H10X17561   4.992   5.025  16.062 -0.6024 -1.2084 -0.3717
  147DOPC  C31117562   5.204   5.060  16.021  0.7505 -0.3189 -0.2527
  147DOPC  H11X17563   5.210   4.952  15.996  1.1405 -0.9161  2.1563
  147DOPC  H11Y17564   5.300   5.084  16.072  1.1340 -0.2838 -0.9793
  147DOPC  C31217565   5.196   5.147  15.895  0.0162  0.2286  0.5786
  147DOPC  H12X17566   5.206   5.252  15.930  0.5923  0.4488 -0.2269
  147DOPC  H12Y17567   5.095   5.132  15.851  0.3279  2.5869 -1.0763
  147DOPC  C31317568   5.300   5.118  15.785 -0.3774  0.1667  0.5645
  147DOPC  H13X17569   5.410   5.120  15.805  0.1696  1.1923 -2.1463
  147DOPC  H13Y17570   5.281   5.010  15.764  1.9453 -0.5198  1.6365
  147DOPC  C31417571   5.268   5.197  15.665 -0.8903 -0.3341  0.0136
  147DOPC  H14X17572   5.163   5.173  15.636 -0.1340 -0.2893 -3.1007
  147DOPC  H14Y17573   5.277   5.307  15.677 -0.4361 -0.4226  0.5084
  147DOPC  C31517574   5.364   5.155  15.553  0.0182  0.6068  0.3052
  147DOPC  H15X17575   5.357   5.045  15.537  1.2627  0.6439 -0.6980
  147DOPC  H15Y17576   5.462   5.202  15.575 -0.5897  0.7882  2.9018
  147DOPC  C31617577   5.332   5.202  15.404  0.1298 -0.4614  0.2222
  147DOPC  H16X17578   5.262   5.137  15.346 -1.9995  0.6050  1.4859
  147DOPC  H16Y17579   5.286   5.303  15.408  1.5889  0.2406 -0.1598
  147DOPC  C31717580   5.466   5.214  15.325  0.5367  0.0860 -0.0946
  147DOPC  H17X17581   5.442   5.232  15.218 -0.7910 -1.4149 -0.0847
  147DOPC  H17Y17582   5.506   5.310  15.363  0.7041  1.2923 -3.0052
  147DOPC  C31817583   5.565   5.099  15.332 -0.0684 -0.0726  0.6414
  147DOPC  H18X17584   5.661   5.135  15.289 -0.6804  1.3791  0.4548
  147DOPC  H18Y17585   5.586   5.081  15.440 -1.0744 -0.0269  0.8553
  147DOPC  H18Z17586   5.536   5.004  15.282 -1.5198  1.3807 -1.4119
  148DOPC     N17587   4.213   1.870  17.466 -0.3023 -0.0347 -0.4703
  148DOPC   C1217588   4.144   1.858  17.329 -0.0824 -0.4313 -1.1660
  148DOPC  H12A17589   4.210   1.800  17.267  1.3000  1.8762 -2.0146
  148DOPC  H12B17590   4.133   1.958  17.289  2.7171  0.6281  0.3521
  148DOPC   C1317591   4.128   1.950  17.561 -0.4120  0.4090 -0.3950
  148DOPC  H13A17592   4.041   1.885  17.566 -1.1916  1.3917 -0.8571
  148DOPC  H13B17593   4.172   1.962  17.659 -0.7287  1.7095 -0.3992
  148DOPC  H13C17594   4.105   2.047  17.519 -0.1004 -0.4800 -2.7763
  148DOPC   C1417595   4.344   1.939  17.450  0.3983 -0.6946 -0.6709
  148DOPC  H14A17596   4.405   1.886  17.379 -1.1533 -1.6999 -1.3187
  148DOPC  H14B17597   4.328   2.038  17.409 -1.6224 -0.8693 -0.4363
  148DOPC  H14C17598   4.407   1.954  17.536  2.4030 -1.4336 -1.9373
  148DOPC   C1517599   4.239   1.739  17.530  0.0151 -0.2717  1.2502
  148DOPC  H15A17600   4.318   1.689  17.476  0.6780  2.3099 -0.3309
  148DOPC  H15B17601   4.149   1.679  17.535 -0.1754 -0.0080  1.0341
  148DOPC  H15C17602   4.273   1.755  17.631  0.5942  1.5594  0.8111
  148DOPC   C1117603   3.998   1.803  17.329  0.0671  0.2112  0.9991
  148DOPC  H11A17604   3.969   1.802  17.222 -1.4776 -0.0362  1.3872
  148DOPC  H11B17605   4.002   1.709  17.387 -2.5341  0.4508  1.6745
  148DOPC     P17606   3.760   1.859  17.432 -0.0352 -0.1321 -0.0217
  148DOPC   O1317607   3.697   1.989  17.466  0.2498 -0.0674 -0.9347
  148DOPC   O1417608   3.766   1.759  17.542 -0.4308  0.1404 -0.3085
  148DOPC   O1217609   3.909   1.895  17.385  0.0461  0.4529 -0.3959
  148DOPC   O1117610   3.687   1.799  17.305  0.7599  0.0602 -0.0864
  148DOPC    C117611   3.619   1.900  17.223  0.2759  0.0819  0.0535
  148DOPC    HA17612   3.695   1.978  17.198  1.1967  0.2510  2.9231
  148DOPC    HB17613   3.538   1.948  17.283 -1.3411 -1.8331 -0.5041
  148DOPC    C217614   3.569   1.845  17.088  0.3038 -0.1274  0.2554
  148DOPC    HS17615   3.517   1.746  17.089 -1.0676  0.5787  0.2739
  148DOPC   O2117616   3.683   1.829  17.012 -0.4589  0.1762 -0.0550
  148DOPC   C2117617   3.738   1.708  17.011 -0.1727 -0.3693  0.1708
  148DOPC   O2217618   3.695   1.607  17.064 -0.1668  0.0703  0.4628
  148DOPC   C2217619   3.870   1.727  16.938  0.2365  0.1662 -0.9032
  148DOPC   H2R17620   3.940   1.657  16.988 -1.3775 -0.3532  0.7603
  148DOPC   H2S17621   3.917   1.827  16.955 -0.6439  0.8392 -2.2518
  148DOPC    C317622   3.474   1.944  17.014  0.4068  0.5478 -0.7568
  148DOPC    HX17623   3.512   2.047  17.033 -0.2795  0.5677  0.6072
  148DOPC    HY17624   3.374   1.945  17.063 -0.8777 -0.8591 -3.1709
  148DOPC   O3117625   3.454   1.920  16.869 -0.2858  0.0516  0.1464
  148DOPC   C3117626   3.378   1.812  16.844 -0.5434 -0.2560 -0.8889
  148DOPC   O3217627   3.323   1.747  16.930 -0.5246 -0.5312 -0.8899
  148DOPC   C3217628   3.385   1.774  16.696 -0.0453 -0.3879  0.0930
  148DOPC   H2X17629   3.394   1.867  16.637  0.9904 -1.2156 -1.1112
  148DOPC   H2Y17630   3.479   1.719  16.671 -0.8860 -1.8802  0.0731
  148DOPC   C2317631   3.884   1.679  16.794 -0.3678  0.2316 -0.4260
  148DOPC   H3R17632   3.843   1.576  16.787 -0.0934  0.1062 -0.2252
  148DOPC   H3S17633   3.992   1.678  16.766 -0.5519 -0.1969 -1.1565
  148DOPC   C2417634   3.826   1.766  16.684 -0.0480 -0.4331 -0.1005
  148DOPC   H4R17635   3.873   1.865  16.669  1.8009 -1.3609 -0.6857
  148DOPC   H4S17636   3.720   1.790  16.708 -0.3563 -1.9826  0.1912
  148DOPC   C2517637   3.836   1.689  16.552 -0.6402  0.0599 -0.3378
  148DOPC   H5R17638   3.812   1.581  16.555  2.6083 -0.7634 -0.0146
  148DOPC   H5S17639   3.942   1.681  16.521 -1.2880 -1.2446 -2.4234
  148DOPC   C2617640   3.755   1.742  16.435  0.6262 -0.4615  0.7923
  148DOPC   H6R17641   3.763   1.853  16.439  0.1827 -0.4427  1.3551
  148DOPC   H6S17642   3.648   1.714  16.442  0.4318 -0.4289 -1.4383
  148DOPC   C2717643   3.786   1.670  16.306  0.1364 -0.0709 -0.3022
  148DOPC   H7R17644   3.703   1.669  16.232  1.6600 -0.6285 -2.0994
  148DOPC   H7S17645   3.804   1.563  16.328 -0.2218  0.0806  0.7703
  148DOPC   C2817646   3.907   1.727  16.225 -0.0255 -0.2507 -0.2818
  148DOPC   H8R17647   3.930   1.649  16.149 -0.2942 -0.7894  0.1860
  148DOPC   H8S17648   3.986   1.742  16.301 -0.3895  2.7659 -0.3488
  148DOPC   C2917649   3.868   1.863  16.165 -0.2044 -0.0359 -0.1584
  148DOPC   H9R17650   3.853   1.932  16.249 -1.5221 -2.9945  2.2238
  148DOPC  C21017651   3.865   1.906  16.035 -0.5387 -0.6721  0.5241
  148DOPC  H10R17652   3.861   2.015  16.021  3.6623 -0.5510 -0.9677
  148DOPC  C21117653   3.884   1.825  15.912 -0.1717 -0.6758  0.0896
  148DOPC  H11R17654   3.925   1.728  15.944 -2.6884 -1.2284  1.9329
  148DOPC  H11S17655   3.956   1.875  15.843  0.9802  0.0234  1.7450
  148DOPC  C21217656   3.766   1.769  15.831  0.0921  0.3824  0.0537
  148DOPC  H12R17657   3.693   1.720  15.900  0.1099  0.6775  0.2834
  148DOPC  H12S17658   3.802   1.680  15.775  0.7987 -0.8536  2.3389
  148DOPC  C21317659   3.704   1.877  15.740 -0.0482  0.3221  0.2344
  148DOPC  H13R17660   3.784   1.920  15.676 -2.2875  2.3565 -1.3801
  148DOPC  H13S17661   3.676   1.959  15.810 -0.9751  0.0446  0.2013
  148DOPC  C21417662   3.581   1.831  15.660 -0.4560  0.3045  1.0851
  148DOPC  H14R17663   3.508   1.780  15.726 -0.5381  0.5253  1.1655
  148DOPC  H14S17664   3.620   1.756  15.587  1.4984  3.5642 -1.5424
  148DOPC  C21517665   3.523   1.942  15.574 -0.3386 -0.2278 -0.0904
  148DOPC  H15R17666   3.522   2.030  15.641  2.2142 -1.2465  1.4400
  148DOPC  H15S17667   3.415   1.931  15.550 -0.3565  0.7927 -0.5070
  148DOPC  C21617668   3.596   1.969  15.438 -0.4430 -0.4611  0.0147
  148DOPC  H16R17669   3.706   1.983  15.438 -0.6840  2.1364 -1.8387
  148DOPC  H16S17670   3.574   2.075  15.414  2.9784  0.6165  1.0472
  148DOPC  C21717671   3.558   1.878  15.329 -0.0792 -0.2118  0.1093
  148DOPC  H17R17672   3.448   1.866  15.325 -0.0596 -0.1914 -0.6790
  148DOPC  H17S17673   3.595   1.774  15.339  0.2842 -0.2989 -1.7308
  148DOPC  C21817674   3.603   1.922  15.186  0.5550  0.1396  0.6167
  148DOPC  H18R17675   3.699   1.977  15.182 -0.0268  1.0951 -0.8943
  148DOPC  H18S17676   3.525   1.984  15.136  0.9133  0.7678  0.8212
  148DOPC  H18T17677   3.623   1.831  15.127 -0.9630 -0.3718  0.8404
  148DOPC   C3317678   3.267   1.683  16.651  0.1523  0.1682 -0.1913
  148DOPC   H3X17679   3.182   1.745  16.686  1.1605  1.9678 -0.7993
  148DOPC   H3Y17680   3.263   1.590  16.711  0.4204 -0.2819 -0.8634
  148DOPC   C3417681   3.265   1.660  16.503  0.2796  0.0181 -0.3279
  148DOPC   H4X17682   3.195   1.575  16.486 -1.7642  1.2455  1.4586
  148DOPC   H4Y17683   3.354   1.621  16.450 -0.8866 -0.2573 -2.1549
  148DOPC   C3517684   3.210   1.778  16.426  0.1910 -0.4088 -0.4040
  148DOPC   H5X17685   3.212   1.874  16.481  0.0399  0.1000 -1.2621
  148DOPC   H5Y17686   3.103   1.751  16.412  0.4943 -2.0751  0.1542
  148DOPC   C3617687   3.275   1.797  16.282  0.3872 -0.0388  0.2358
  148DOPC   H6X17688   3.376   1.842  16.281 -0.4375  1.9042 -0.7237
  148DOPC   H6Y17689   3.266   1.694  16.242  1.6820 -0.4003  0.8360
  148DOPC   C3717690   3.190   1.897  16.196  0.1192  0.1529 -0.2811
  148DOPC   H7X17691   3.081   1.875  16.202  0.0493  0.2748 -1.0272
  148DOPC   H7Y17692   3.221   1.999  16.227  2.1051 -0.3594 -0.4833
  148DOPC   C3817693   3.219   1.879  16.039 -0.1123  0.3992 -0.3816
  148DOPC   H8X17694   3.151   1.796  16.010 -0.1870 -0.0215  0.9100
  148DOPC   H8Y17695   3.321   1.837  16.025 -0.6511 -1.0612 -0.1308
  148DOPC   C3917696   3.215   2.005  15.953 -0.2778 -0.2813  0.2265
  148DOPC   H9X17697   3.277   2.082  16.001 -0.5447  1.0575 -1.4804
  148DOPC  C31017698   3.148   2.040  15.838  0.5757  0.8698 -0.4703
  148DOPC  H10X17699   3.146   2.146  15.808 -0.8910  1.6692  2.0894
  148DOPC  C31117700   3.040   1.958  15.776  0.0383  0.4963 -0.2206
  148DOPC  H11X17701   2.948   2.019  15.763 -0.6898 -1.0658 -3.6505
  148DOPC  H11Y17702   3.011   1.865  15.830  0.3171  0.3363 -0.3420
  148DOPC  C31217703   3.062   1.904  15.637 -0.0844 -0.0666  0.1090
  148DOPC  H12X17704   3.112   1.982  15.577 -1.0734  0.3286 -0.2202
  148DOPC  H12Y17705   2.962   1.891  15.590  0.5287 -0.6046 -1.0628
  148DOPC  C31317706   3.134   1.761  15.627 -0.2567  0.2936  0.2878
  148DOPC  H13X17707   3.240   1.788  15.646 -0.8877  2.6645  0.8283
  148DOPC  H13Y17708   3.094   1.695  15.706  0.6154 -1.1307 -0.4291
  148DOPC  C31417709   3.120   1.709  15.483  0.6009  0.6189 -0.0164
  148DOPC  H14X17710   3.021   1.673  15.447  1.7085 -2.5752 -0.1506
  148DOPC  H14Y17711   3.140   1.789  15.408  0.5594 -0.5688 -1.3359
  148DOPC  C31517712   3.216   1.588  15.466  0.3437  0.5461 -0.1256
  148DOPC  H15X17713   3.174   1.507  15.528 -0.6567  0.2956 -1.0959
  148DOPC  H15Y17714   3.316   1.618  15.504 -0.2911  0.7694  1.4451
  148DOPC  C31617715   3.231   1.535  15.325  0.1485 -0.0641  0.1141
  148DOPC  H16X17716   3.129   1.511  15.290  0.5328 -1.0327 -0.3672
  148DOPC  H16Y17717   3.280   1.613  15.263  0.5983 -0.0232  0.5112
  148DOPC  C31717718   3.314   1.414  15.339  0.0149  0.0754  0.3164
  148DOPC  H17X17719   3.408   1.445  15.388  0.6569  0.4180 -1.0764
  148DOPC  H17Y17720   3.261   1.339  15.401 -0.4998 -0.7709 -1.0837
  148DOPC  C31817721   3.347   1.336  15.212  0.4063  0.3686 -0.3615
  148DOPC  H18X17722   3.414   1.251  15.237 -1.4943 -1.4013 -1.0407
  148DOPC  H18Y17723   3.256   1.302  15.159  0.6881  0.6555 -1.0355
  148DOPC  H18Z17724   3.399   1.403  15.140  2.0838 -1.1195 -0.6050
  149DOPC     N17725   6.181   4.736  17.960  0.3954 -0.7566 -0.5396
  149DOPC   C1217726   6.150   4.668  18.088  0.0164 -0.2558  0.7175
  149DOPC  H12A17727   6.213   4.707  18.167  1.1053  0.4008 -0.4305
  149DOPC  H12B17728   6.179   4.565  18.081 -1.5683 -0.7406  0.9029
  149DOPC   C1317729   6.081   4.701  17.851 -0.2401  0.4207  0.0824
  149DOPC  H13A17730   6.067   4.596  17.830 -1.3130  0.7234 -0.8279
  149DOPC  H13B17731   5.987   4.732  17.896  0.5249  0.5001  1.7160
  149DOPC  H13C17732   6.095   4.750  17.756 -1.3520 -0.8202 -0.7518
  149DOPC   C1417733   6.321   4.710  17.908  0.1347  0.1153 -0.1321
  149DOPC  H14A17734   6.339   4.761  17.814 -1.4836  0.0696 -0.5027
  149DOPC  H14B17735   6.386   4.745  17.986 -2.9368  0.0960  2.6118
  149DOPC  H14C17736   6.335   4.603  17.898  1.7724  0.2525  0.4625
  149DOPC   C1517737   6.178   4.880  17.979 -0.3517 -0.1916 -0.0154
  149DOPC  H15A17738   6.086   4.912  18.025 -0.6169 -1.6677  0.5572
  149DOPC  H15B17739   6.180   4.936  17.887 -1.1590  1.3175  0.8634
  149DOPC  H15C17740   6.263   4.923  18.031 -2.3730  0.4341  3.0389
  149DOPC   C1117741   6.002   4.664  18.140 -0.2529  0.1876  0.2280
  149DOPC  H11A17742   5.945   4.612  18.060  1.5922 -1.6801  0.0475
  149DOPC  H11B17743   6.001   4.597  18.229  2.1839  0.2785  0.4082
  149DOPC     P17744   5.794   4.820  18.142  0.1120 -0.0271 -0.3029
  149DOPC   O1317745   5.750   4.963  18.161  0.1189 -0.6305 -0.4127
  149DOPC   O1417746   5.719   4.715  18.220 -0.2217  0.4797 -0.0254
  149DOPC   O1217747   5.950   4.797  18.168  0.3250  0.1409 -0.1150
  149DOPC   O1117748   5.781   4.790  17.990 -0.0742  0.1223  0.4726
  149DOPC    C117749   5.651   4.803  17.925  0.3496 -0.5396 -0.0390
  149DOPC    HA17750   5.607   4.905  17.934 -0.8650 -0.9073 -1.4402
  149DOPC    HB17751   5.579   4.729  17.967 -0.5033  1.4113  2.1876
  149DOPC    C217752   5.659   4.778  17.769  0.0062 -0.1782 -0.9783
  149DOPC    HS17753   5.563   4.746  17.724 -0.9297  0.6463  0.3563
  149DOPC   O2117754   5.765   4.687  17.739  1.1844  0.7438  0.1145
  149DOPC   C2117755   5.736   4.566  17.783  0.7322 -0.2654 -0.2264
  149DOPC   O2217756   5.622   4.530  17.815  0.3569 -0.1526 -0.6606
  149DOPC   C2217757   5.854   4.467  17.789 -0.2382 -0.3611 -0.5667
  149DOPC   H2R17758   5.800   4.374  17.816 -2.6798  1.1829  0.2096
  149DOPC   H2S17759   5.922   4.493  17.873  1.1810 -1.0375 -1.4676
  149DOPC    C317760   5.699   4.916  17.696  0.0067  0.5194  0.3562
  149DOPC    HX17761   5.806   4.925  17.721 -0.6656  1.8653  3.1477
  149DOPC    HY17762   5.650   5.004  17.743 -0.1523 -0.4232  2.0394
  149DOPC   O3117763   5.682   4.911  17.548  0.5594 -0.0470  0.7650
  149DOPC   C3117764   5.568   4.963  17.517  0.3152  0.6740  0.2482
  149DOPC   O3217765   5.478   5.007  17.588  0.5602 -0.0209 -0.1884
  149DOPC   C3217766   5.558   4.957  17.370  0.1052 -0.3809  0.1679
  149DOPC   H2X17767   5.584   5.060  17.337  0.0833 -0.9996 -1.9492
  149DOPC   H2Y17768   5.647   4.906  17.329 -0.6861 -1.0228 -0.8094
  149DOPC   C2317769   5.928   4.449  17.653  0.6900  0.3184  0.1030
  149DOPC   H3R17770   6.013   4.377  17.650  1.3025  1.0611 -1.9158
  149DOPC   H3S17771   5.963   4.547  17.615  0.1406  0.0074 -1.2781
  149DOPC   C2417772   5.822   4.385  17.557 -0.8177  0.2466  0.2144
  149DOPC   H4R17773   5.736   4.349  17.618  0.2910 -2.3579  0.4093
  149DOPC   H4S17774   5.885   4.304  17.515  0.4263  0.4511  1.6265
  149DOPC   C2517775   5.765   4.471  17.451 -0.3980  0.3141 -0.2316
  149DOPC   H5R17776   5.849   4.486  17.380 -0.5661 -0.5208 -0.6177
  149DOPC   H5S17777   5.721   4.569  17.480 -0.2798  0.7611 -1.5313
  149DOPC   C2617778   5.666   4.398  17.364  0.0487  0.2125  0.4593
  149DOPC   H6R17779   5.581   4.362  17.426  0.2985 -0.7941  0.2234
  149DOPC   H6S17780   5.710   4.308  17.318 -1.5837 -0.8083  0.8019
  149DOPC   C2717781   5.616   4.489  17.249 -0.1218 -0.1259 -0.2231
  149DOPC   H7R17782   5.583   4.586  17.292 -1.2614 -0.4362 -0.3682
  149DOPC   H7S17783   5.530   4.440  17.198  0.8885 -0.8451 -1.2868
  149DOPC   C2817784   5.717   4.518  17.131 -0.0694  0.1420  0.1171
  149DOPC   H8R17785   5.795   4.583  17.176 -0.0312  1.8336 -2.2093
  149DOPC   H8S17786   5.664   4.587  17.062  2.3515  1.7103 -0.2904
  149DOPC   C2917787   5.775   4.402  17.055 -0.3890  0.8143  0.2393
  149DOPC   H9R17788   5.835   4.343  17.125  1.2064  2.5407  0.3857
  149DOPC  C21017789   5.775   4.386  16.920 -0.4050  0.0757  0.1870
  149DOPC  H10R17790   5.837   4.306  16.876  1.2534 -0.3888  3.0967
  149DOPC  C21117791   5.698   4.474  16.819  0.0025  0.8802 -0.0555
  149DOPC  H11R17792   5.764   4.503  16.734 -0.2553 -1.0324 -0.9670
  149DOPC  H11S17793   5.660   4.573  16.853 -0.6749  0.7625 -0.4422
  149DOPC  C21217794   5.578   4.403  16.767  0.2324 -0.2209  0.1411
  149DOPC  H12R17795   5.504   4.482  16.743  1.0657  0.4561 -0.2415
  149DOPC  H12S17796   5.533   4.354  16.856 -1.0700  4.0502  2.1151
  149DOPC  C21317797   5.595   4.315  16.643 -0.0007  0.1905 -0.7339
  149DOPC  H13R17798   5.511   4.243  16.630 -1.0859  1.4197 -0.6390
  149DOPC  H13S17799   5.693   4.264  16.655  0.0638  0.5181  0.2379
  149DOPC  C21417800   5.613   4.388  16.507  0.7866  0.0424  0.3358
  149DOPC  H14R17801   5.543   4.474  16.508  0.8486  0.0889  1.1490
  149DOPC  H14S17802   5.588   4.322  16.421  0.1701 -1.1104  1.3747
  149DOPC  C21517803   5.753   4.450  16.472 -0.4923 -0.0074 -0.1468
  149DOPC  H15R17804   5.827   4.379  16.514  1.7294  1.7548 -0.9091
  149DOPC  H15S17805   5.765   4.549  16.521 -0.2539  1.0966 -2.3113
  149DOPC  C21617806   5.781   4.457  16.325 -0.3583 -0.2511 -0.1616
  149DOPC  H16R17807   5.753   4.355  16.293 -1.1116 -0.3608  0.7872
  149DOPC  H16S17808   5.889   4.481  16.321 -0.4685  0.3087  0.0065
  149DOPC  C21717809   5.702   4.561  16.256 -0.3898 -0.1640  0.6156
  149DOPC  H17R17810   5.747   4.656  16.291 -3.9397  2.2626 -0.7602
  149DOPC  H17S17811   5.596   4.547  16.284 -1.5868  0.5662 -3.0176
  149DOPC  C21817812   5.699   4.548  16.106 -0.2659 -0.3667  0.4564
  149DOPC  H18R17813   5.797   4.581  16.066 -0.4723  1.0241  1.0473
  149DOPC  H18S17814   5.619   4.613  16.065 -2.5837 -2.4957  1.3237
  149DOPC  H18T17815   5.680   4.443  16.075 -0.1988 -0.7357  1.6261
  149DOPC   C3317816   5.420   4.915  17.320 -0.7903 -0.6182  0.1783
  149DOPC   H3X17817   5.358   5.005  17.338 -4.0154 -2.3239 -1.5464
  149DOPC   H3Y17818   5.386   4.824  17.374  0.5885 -1.4520 -0.3022
  149DOPC   C3417819   5.424   4.885  17.169  0.0160  0.3174  0.0299
  149DOPC   H4X17820   5.522   4.842  17.141 -0.3506  0.3348 -1.3750
  149DOPC   H4Y17821   5.422   4.982  17.115  1.6833 -0.2980 -1.2258
  149DOPC   C3517822   5.329   4.776  17.116 -0.0111  0.3469  0.1190
  149DOPC   H5X17823   5.231   4.826  17.129 -0.5092 -0.0268 -1.8902
  149DOPC   H5Y17824   5.349   4.687  17.179  0.1106  0.6605  0.5242
  149DOPC   C3617825   5.355   4.734  16.972  0.0260  0.0730 -0.3815
  149DOPC   H6X17826   5.448   4.675  16.965  1.0597  1.6498 -0.5322
  149DOPC   H6Y17827   5.270   4.668  16.944 -0.2956  0.1731  0.3130
  149DOPC   C3717828   5.365   4.853  16.881  0.1395 -0.8020  0.8687
  149DOPC   H7X17829   5.285   4.930  16.890  1.0553  0.4864 -1.1125
  149DOPC   H7Y17830   5.464   4.897  16.904 -0.3402  0.6795  0.2658
  149DOPC   C3817831   5.377   4.805  16.735  0.8097 -0.4949  0.1073
  149DOPC   H8X17832   5.277   4.764  16.710  0.9929 -0.5353 -0.5645
  149DOPC   H8Y17833   5.444   4.716  16.733  3.6804  1.5481 -0.6494
  149DOPC   C3917834   5.418   4.909  16.636  0.8074 -0.1370 -0.2988
  149DOPC   H9X17835   5.452   5.004  16.679 -1.1291  1.4968 -2.1768
  149DOPC  C31017836   5.410   4.900  16.502 -0.2374  0.1907  0.5901
  149DOPC  H10X17837   5.420   4.990  16.439 -0.1610 -1.5505 -2.0549
  149DOPC  C31117838   5.350   4.782  16.423  0.6269 -0.1654 -0.0818
  149DOPC  H11X17839   5.347   4.689  16.483  1.7553  1.1600  2.1883
  149DOPC  H11Y17840   5.419   4.753  16.341  1.2616 -3.9354  1.5877
  149DOPC  C31217841   5.208   4.816  16.378 -0.3855 -0.3446  0.5610
  149DOPC  H12X17842   5.178   4.737  16.305  1.1537  0.0496 -0.5521
  149DOPC  H12Y17843   5.192   4.919  16.340  0.9428  0.3636  1.8521
  149DOPC  C31317844   5.111   4.796  16.493  0.9620 -0.1016 -0.7559
  149DOPC  H13X17845   5.122   4.696  16.540  3.6548 -1.4387 -3.8319
  149DOPC  H13Y17846   5.130   4.872  16.572  1.1757 -0.6698 -0.2562
  149DOPC  C31417847   4.959   4.821  16.455  0.0226  0.2765  0.0946
  149DOPC  H14X17848   4.938   4.930  16.461 -1.9108 -0.1282  2.0816
  149DOPC  H14Y17849   4.946   4.780  16.353  2.3184 -0.6730  0.1128
  149DOPC  C31517850   4.869   4.742  16.547  0.4717  1.1040  0.2453
  149DOPC  H15X17851   4.894   4.634  16.558  1.5830  1.2784 -0.3608
  149DOPC  H15Y17852   4.774   4.733  16.491  0.5484  2.1185 -0.0617
  149DOPC  C31617853   4.835   4.804  16.688 -0.2238 -0.3696 -0.5735
  149DOPC  H16X17854   4.777   4.895  16.661  0.6522 -0.1734 -1.8756
  149DOPC  H16Y17855   4.769   4.735  16.746  1.3259 -1.0384  0.4601
  149DOPC  C31717856   4.956   4.842  16.780  0.1401  0.3475 -0.1093
  149DOPC  H17X17857   5.034   4.763  16.784  2.7078  2.6762 -0.9327
  149DOPC  H17Y17858   4.997   4.942  16.755 -1.3383  0.6702 -1.4753
  149DOPC  C31817859   4.904   4.855  16.923  0.1182 -0.4259 -0.4703
  149DOPC  H18X17860   4.984   4.894  16.990 -1.0147 -0.1047  0.7343
  149DOPC  H18Y17861   4.821   4.928  16.936  1.0703  0.5716  0.1967
  149DOPC  H18Z17862   4.876   4.753  16.957 -2.1260 -0.0476 -1.0011
  150DOPC     N17863   2.757   0.320  17.909  0.1739 -0.2950  1.1362
  150DOPC   C1217864   2.665   0.207  17.857 -0.6496 -0.1541  0.2295
  150DOPC  H12A17865   2.676   0.130  17.931  1.1194  1.7343  2.0713
  150DOPC  H12B17866   2.698   0.165  17.763 -1.4477 -0.2781 -0.0064
  150DOPC   C1317867   2.779   0.430  17.808  0.2780  0.5498  0.6831
  150DOPC  H13A17868   2.810   0.404  17.708 -2.1100 -0.4432  0.1419
  150DOPC  H13B17869   2.687   0.486  17.794 -0.1431 -0.3310 -0.1982
  150DOPC  H13C17870   2.850   0.502  17.847  1.7026 -0.9884  1.0443
  150DOPC   C1417871   2.899   0.262  17.934  0.6839  0.8468 -0.0822
  150DOPC  H14A17872   2.961   0.331  17.991  1.3115 -0.4181  0.8050
  150DOPC  H14B17873   2.899   0.179  18.002  0.2006  0.0697 -1.0172
  150DOPC  H14C17874   2.948   0.240  17.841  0.3369 -0.3535  0.0105
  150DOPC   C1517875   2.701   0.377  18.035  0.0974 -0.0476 -0.3558
  150DOPC  H15A17876   2.602   0.411  18.011 -0.4030  0.5555  2.2638
  150DOPC  H15B17877   2.769   0.453  18.072  2.9033 -2.0465 -1.0389
  150DOPC  H15C17878   2.691   0.308  18.117 -2.0257 -0.0513 -0.5684
  150DOPC   C1117879   2.513   0.236  17.858 -0.5059  0.0875 -0.3971
  150DOPC  H11A17880   2.457   0.153  17.810  0.2841 -0.1438 -0.9285
  150DOPC  H11B17881   2.485   0.242  17.966  2.8786 -1.6935  0.7131
  150DOPC     P17882   2.364   0.436  17.824  0.6494  0.2545 -0.3945
  150DOPC   O1317883   2.412   0.534  17.925 -0.1744 -0.4723  0.2692
  150DOPC   O1417884   2.252   0.343  17.853 -0.0821  0.3642 -0.2558
  150DOPC   O1217885   2.490   0.357  17.785 -0.0617  0.9450 -0.4254
  150DOPC   O1117886   2.323   0.519  17.698  0.1128  0.1303  0.4346
  150DOPC    C117887   2.192   0.522  17.646 -1.0064  0.0268  0.3343
  150DOPC    HA17888   2.176   0.628  17.616  1.0179  0.0271 -0.9446
  150DOPC    HB17889   2.114   0.500  17.722 -0.0922 -1.7826  0.7857
  150DOPC    C217890   2.164   0.421  17.536 -0.4163 -0.2070 -0.0132
  150DOPC    HS17891   2.204   0.328  17.580  2.5344  1.3313  0.8067
  150DOPC   O2117892   2.238   0.453  17.417 -0.5288  0.2507 -0.5434
  150DOPC   C2117893   2.273   0.353  17.342 -0.2406  0.6302  0.5584
  150DOPC   O2217894   2.250   0.232  17.361 -0.5392 -0.5106  0.8585
  150DOPC   C2217895   2.359   0.406  17.230  0.4256  0.3824 -0.0232
  150DOPC   H2R17896   2.460   0.422  17.273  0.0089 -1.6701  1.9098
  150DOPC   H2S17897   2.302   0.499  17.211 -1.4482 -0.3031  1.7664
  150DOPC    C317898   2.011   0.413  17.515 -0.4868 -0.7026  0.2906
  150DOPC    HX17899   1.964   0.514  17.516 -0.0648 -0.5054  0.1508
  150DOPC    HY17900   1.976   0.358  17.605 -2.8140  0.0178 -0.0941
  150DOPC   O3117901   1.964   0.342  17.399 -0.4422  0.0676  0.1629
  150DOPC   C3117902   1.903   0.406  17.303  0.3531 -0.7367  0.2758
  150DOPC   O3217903   1.885   0.529  17.301 -0.2265  0.5073 -0.3790
  150DOPC   C3217904   1.874   0.314  17.191  0.0642 -0.6714  0.4824
  150DOPC   H2X17905   1.967   0.291  17.134  0.0419  1.4593 -0.5143
  150DOPC   H2Y17906   1.793   0.241  17.212 -1.2814  0.5001 -0.3968
  150DOPC   C2317907   2.375   0.316  17.107  0.1466 -0.1613  0.5961
  150DOPC   H3R17908   2.406   0.214  17.137  0.6511 -0.4456 -0.8261
  150DOPC   H3S17909   2.467   0.351  17.056 -0.5732  0.9849  0.0313
  150DOPC   C2417910   2.253   0.306  17.011  0.5535  0.0698  0.0731
  150DOPC   H4R17911   2.174   0.245  17.060 -1.7439  2.8290  0.1355
  150DOPC   H4S17912   2.274   0.251  16.917 -0.5202  0.4953 -0.4339
  150DOPC   C2517913   2.191   0.446  16.969  0.8272 -0.8216  0.2570
  150DOPC   H5R17914   2.274   0.520  16.963 -0.0096  0.1354  0.2804
  150DOPC   H5S17915   2.126   0.474  17.054  1.1806 -0.9369  0.5674
  150DOPC   C2617916   2.108   0.448  16.842 -1.0426 -0.5365  0.2678
  150DOPC   H6R17917   2.025   0.376  16.859 -2.2994  0.8864  0.3044
  150DOPC   H6S17918   2.181   0.412  16.767  1.0755  1.3316  1.3202
  150DOPC   C2717919   2.051   0.588  16.804  0.1416 -0.1214  0.1534
  150DOPC   H7R17920   2.128   0.668  16.813 -1.9069  2.3518 -2.3615
  150DOPC   H7S17921   1.973   0.606  16.880  0.1810  1.0204 -0.0542
  150DOPC   C2817922   1.987   0.592  16.666 -0.4986  0.8290 -0.0995
  150DOPC   H8R17923   1.919   0.505  16.664  0.5323  0.0257 -1.2365
  150DOPC   H8S17924   2.066   0.572  16.591  1.2402 -0.9112  2.0528
  150DOPC   C2917925   1.921   0.723  16.641 -0.2261 -0.1204  0.8059
  150DOPC   H9R17926   1.855   0.762  16.720 -1.5209  0.3691 -0.4830
  150DOPC  C21017927   1.929   0.793  16.528  0.0245  0.2078 -0.9415
  150DOPC  H10R17928   1.863   0.880  16.517 -0.0622 -0.0643 -2.9177
  150DOPC  C21117929   2.007   0.758  16.407 -0.3517  0.2015 -0.1094
  150DOPC  H11R17930   2.108   0.716  16.426 -0.2779  0.1943 -0.5111
  150DOPC  H11S17931   2.021   0.854  16.352  0.7831 -0.4699 -1.0322
  150DOPC  C21217932   1.937   0.664  16.310 -0.4500  0.4589  0.0586
  150DOPC  H12R17933   1.906   0.569  16.359 -0.7772  1.1794  1.2780
  150DOPC  H12S17934   2.015   0.636  16.236  0.8287 -0.5023  1.7086
  150DOPC  C21317935   1.809   0.719  16.247  0.5451  0.2885  0.0983
  150DOPC  H13R17936   1.837   0.817  16.204  0.0314  0.7995  0.9100
  150DOPC  H13S17937   1.734   0.716  16.328 -0.7700 -1.0902 -1.1148
  150DOPC  C21417938   1.764   0.618  16.139 -0.3539  0.7654 -0.6678
  150DOPC  H14R17939   1.722   0.527  16.186  2.2146 -0.6367 -0.9084
  150DOPC  H14S17940   1.840   0.581  16.067 -1.4278 -1.4157 -0.7523
  150DOPC  C21517941   1.647   0.670  16.048 -0.2656  0.2236 -0.1573
  150DOPC  H15R17942   1.682   0.765  16.004 -1.0377  0.1085 -1.0477
  150DOPC  H15S17943   1.563   0.686  16.118 -0.0434 -3.0185  1.0675
  150DOPC  C21617944   1.608   0.584  15.920  0.1331 -0.0012  0.3721
  150DOPC  H16R17945   1.558   0.492  15.955 -0.0333  0.8721  2.5453
  150DOPC  H16S17946   1.707   0.565  15.873 -0.1406  1.7419 -0.9906
  150DOPC  C21717947   1.522   0.661  15.815  0.2284 -0.1112  0.1051
  150DOPC  H17R17948   1.420   0.673  15.858  0.1918 -1.3888  0.4156
  150DOPC  H17S17949   1.509   0.588  15.733  1.2379 -1.1845  0.8720
  150DOPC  C21817950   1.576   0.793  15.765  0.2403 -0.2069 -0.0300
  150DOPC  H18R17951   1.682   0.788  15.734 -0.3451  1.1289 -2.4518
  150DOPC  H18S17952   1.559   0.871  15.842 -1.9781 -1.6625  1.0772
  150DOPC  H18T17953   1.518   0.833  15.679 -2.0304 -3.0582  0.0214
  150DOPC   C3317954   1.796   0.402  17.083 -0.1340  0.4314  0.1621
  150DOPC   H3X17955   1.865   0.483  17.048  1.8683 -1.1679  0.2045
  150DOPC   H3Y17956   1.709   0.454  17.129 -0.7324  0.5651 -1.0668
  150DOPC   C3417957   1.745   0.320  16.955  0.1810  0.4684 -0.7437
  150DOPC   H4X17958   1.688   0.230  16.988  1.3074 -0.6163 -1.6833
  150DOPC   H4Y17959   1.831   0.284  16.896 -0.0402 -0.9700 -0.2406
  150DOPC   C3517960   1.648   0.400  16.864 -0.5390  0.6053 -0.0144
  150DOPC   H5X17961   1.706   0.483  16.819 -3.2450  2.4059 -0.4393
  150DOPC   H5Y17962   1.560   0.444  16.917 -1.3441  0.3323 -1.0883
  150DOPC   C3617963   1.593   0.321  16.757  0.6972 -0.0985  0.8929
  150DOPC   H6X17964   1.668   0.262  16.701 -1.2233  0.7190 -2.9120
  150DOPC   H6Y17965   1.509   0.258  16.797 -0.2977  0.4260 -0.3057
  150DOPC   C3717966   1.535   0.406  16.640 -0.7103 -0.2186 -0.2925
  150DOPC   H7X17967   1.481   0.487  16.693  1.1443  1.5025 -0.9303
  150DOPC   H7Y17968   1.617   0.443  16.576 -0.8808  0.4582 -0.1206
  150DOPC   C3817969   1.442   0.326  16.554  0.1687  0.7628  0.3515
  150DOPC   H8X17970   1.343   0.315  16.603  0.2789  0.8224  0.5929
  150DOPC   H8Y17971   1.474   0.223  16.528  1.5810  1.4628 -0.8511
  150DOPC   C3917972   1.413   0.409  16.425  0.5673 -1.0343  0.0273
  150DOPC   H9X17973   1.343   0.491  16.443 -2.4307 -3.0659 -1.5641
  150DOPC  C31017974   1.451   0.367  16.302 -0.2354 -0.4650  0.0528
  150DOPC  H10X17975   1.429   0.432  16.217  3.1324  1.3254  0.3713
  150DOPC  C31117976   1.523   0.245  16.260 -0.3956  0.6317 -0.6709
  150DOPC  H11X17977   1.549   0.169  16.335  0.0486  0.6743 -0.7804
  150DOPC  H11Y17978   1.616   0.271  16.206  0.5637 -0.0518  0.6117
  150DOPC  C31217979   1.438   0.153  16.160  0.6537 -0.3383  0.0778
  150DOPC  H12X17980   1.339   0.146  16.210  0.8747 -0.4345  0.5046
  150DOPC  H12Y17981   1.490   0.056  16.148  0.6563 -0.8896  3.5604
  150DOPC  C31317982   1.415   0.232  16.026  0.8960  0.4697  0.1142
  150DOPC  H13X17983   1.349   0.318  16.050 -0.5659 -0.0272 -1.8111
  150DOPC  H13Y17984   1.508   0.285  15.998  1.0599  1.5094  2.4241
  150DOPC  C31417985   1.346   0.148  15.919  0.4810 -0.3444 -0.1301
  150DOPC  H14X17986   1.389   0.047  15.905 -1.7249 -1.5260  1.1357
  150DOPC  H14Y17987   1.249   0.131  15.970  2.5209 -2.9894  3.3519
  150DOPC  C31517988   1.310   0.225  15.793 -0.0577  0.3610 -0.4610
  150DOPC  H15X17989   1.409   0.242  15.746  1.8761  2.2734  3.6846
  150DOPC  H15Y17990   1.290   0.332  15.815  2.9793  1.0563 -0.7224
  150DOPC  C31617991   1.205   0.152  15.703 -0.6401  0.1354 -0.4564
  150DOPC  H16X17992   1.151   0.070  15.756 -2.9245  0.8835 -1.4874
  150DOPC  H16Y17993   1.120   0.220  15.681 -0.9432 -0.4707 -1.1852
  150DOPC  C31717994   1.265   0.112  15.569  0.6564 -0.6543 -0.4097
  150DOPC  H17X17995   1.179   0.085  15.505 -1.6469  2.4154  1.0929
  150DOPC  H17Y17996   1.315   0.202  15.527  1.1436 -0.3083  0.8540
  150DOPC  C31817997   1.372   0.008  15.573 -0.3132 -0.5537 -0.0214
  150DOPC  H18X17998   1.365  -0.046  15.670  2.0464  0.3371  0.7025
  150DOPC  H18Y17999   1.383  -0.065  15.489  1.6792 -1.1942  0.7399
  150DOPC  H18Z18000   1.469   0.060  15.588 -0.5670  1.2901 -3.6015
  151DOPC     N18001   4.242   3.852  18.053  0.1950  0.2141 -0.0006
  151DOPC   C1218002   4.117   3.904  18.133 -0.1271  0.1194 -0.0196
  151DOPC  H12A18003   4.146   3.968  18.215  1.7213 -1.0381  0.2790
  151DOPC  H12B18004   4.069   3.815  18.170  0.3433 -0.2388 -0.2689
  151DOPC   C1318005   4.200   3.793  17.918  0.5543 -0.2215  0.1196
  151DOPC  H13A18006   4.277   3.737  17.866 -0.0684 -1.5774  0.5982
  151DOPC  H13B18007   4.114   3.728  17.925  0.0639  0.4722  0.6545
  151DOPC  H13C18008   4.161   3.871  17.854 -1.9197 -3.0150 -2.1327
  151DOPC   C1418009   4.307   3.755  18.141 -0.3994  0.1128  0.2213
  151DOPC  H14A18010   4.369   3.796  18.218 -0.7480  0.9902  0.0427
  151DOPC  H14B18011   4.239   3.686  18.189 -0.3911  0.6380  0.9990
  151DOPC  H14C18012   4.381   3.697  18.088  0.2112  1.0034  0.0813
  151DOPC   C1518013   4.337   3.966  18.023 -0.7964 -0.0817 -0.1521
  151DOPC  H15A18014   4.279   4.043  17.976  0.2557  1.5644  1.1490
  151DOPC  H15B18015   4.412   3.936  17.951 -0.1394 -0.8986  0.8414
  151DOPC  H15C18016   4.393   4.008  18.105  0.3983 -2.5830  0.4081
  151DOPC   C1118017   4.019   3.995  18.052  0.0525  0.2853  0.1299
  151DOPC  H11A18018   3.967   3.944  17.969  0.0028 -0.4981  0.6264
  151DOPC  H11B18019   3.936   4.016  18.123  0.4849  0.2431  0.6578
  151DOPC     P18020   4.004   4.232  17.941  0.0259 -0.0757 -0.2435
  151DOPC   O1318021   4.097   4.342  17.913 -0.2264 -0.1298 -0.4633
  151DOPC   O1418022   3.891   4.265  18.026 -0.1739 -0.6520 -0.0913
  151DOPC   O1218023   4.084   4.117  18.006  0.4553  0.2422 -0.6637
  151DOPC   O1118024   3.958   4.163  17.807  0.4854  0.1291  0.0625
  151DOPC    C118025   4.043   4.096  17.717  0.0340  0.3749 -1.0317
  151DOPC    HA18026   4.001   3.997  17.686 -1.1273 -0.3626  2.4147
  151DOPC    HB18027   4.136   4.082  17.775 -0.5927  2.6796  0.6526
  151DOPC    C218028   4.074   4.180  17.592  0.0209 -0.2070 -0.1193
  151DOPC    HS18029   4.092   4.286  17.620  1.7046 -0.4540 -0.1511
  151DOPC   O2118030   3.967   4.170  17.493  0.0878  0.0875  0.5377
  151DOPC   C2118031   3.945   4.274  17.421 -0.2944  0.0553  0.4899
  151DOPC   O2218032   4.010   4.380  17.432 -0.1103  0.3019  0.8448
  151DOPC   C2218033   3.854   4.237  17.308  0.1338 -0.3073 -0.2120
  151DOPC   H2R18034   3.799   4.332  17.291  0.7127  0.5409  2.2023
  151DOPC   H2S18035   3.791   4.151  17.341  0.2416 -0.6474 -0.8673
  151DOPC    C318036   4.207   4.127  17.532  0.1110 -0.0391  0.2591
  151DOPC    HX18037   4.182   4.021  17.510  0.2233 -0.2747  1.2304
  151DOPC    HY18038   4.286   4.131  17.609 -0.7273  1.0812  1.0911
  151DOPC   O3118039   4.247   4.183  17.408  0.4561  0.0215  0.0688
  151DOPC   C3118040   4.302   4.299  17.414  0.6272  0.4075 -0.3975
  151DOPC   O3218041   4.311   4.362  17.521  0.6538 -0.2565  0.4874
  151DOPC   C3218042   4.348   4.350  17.279  1.1147 -0.2745 -0.1599
  151DOPC   H2X18043   4.302   4.283  17.204  0.9990 -0.0519 -0.2861
  151DOPC   H2Y18044   4.314   4.454  17.261 -0.7382 -0.5597  1.3722
  151DOPC   C2318045   3.935   4.191  17.182 -0.2246 -0.5829 -0.5028
  151DOPC   H3R18046   3.858   4.146  17.116 -1.0397 -0.2493  0.2030
  151DOPC   H3S18047   3.991   4.100  17.213 -3.2098 -2.0286  1.0285
  151DOPC   C2418048   4.006   4.301  17.117  0.5284 -0.0895  0.9004
  151DOPC   H4R18049   4.075   4.342  17.195  0.5344  1.9026 -0.0846
  151DOPC   H4S18050   3.942   4.386  17.085 -0.5788 -1.2553 -0.0822
  151DOPC   C2518051   4.085   4.265  16.994 -0.0619  0.0885  0.1471
  151DOPC   H5R18052   4.018   4.227  16.914 -0.2703  0.4386  0.1563
  151DOPC   H5S18053   4.152   4.180  17.022 -0.3374  0.1768  1.0811
  151DOPC   C2618054   4.148   4.394  16.934 -0.3130  0.2382  0.2491
  151DOPC   H6R18055   4.188   4.457  17.016 -1.3860  1.2277  0.0301
  151DOPC   H6S18056   4.070   4.460  16.892  0.6339  0.6342 -0.9499
  151DOPC   C2718057   4.257   4.376  16.826  0.0518 -0.2600  0.5196
  151DOPC   H7R18058   4.343   4.323  16.872  1.0145 -0.2232 -1.1716
  151DOPC   H7S18059   4.298   4.476  16.800  1.0558  0.4154  4.1300
  151DOPC   C2818060   4.198   4.291  16.707 -0.4233 -0.2689  0.1862
  151DOPC   H8R18061   4.095   4.330  16.693  0.2140  1.1455 -0.7493
  151DOPC   H8S18062   4.190   4.186  16.741  1.9304 -0.1695  1.2887
  151DOPC   C2918063   4.270   4.318  16.577  0.8324  0.6014 -0.1434
  151DOPC   H9R18064   4.372   4.359  16.574  1.1049 -0.0704 -0.2661
  151DOPC  C21018065   4.211   4.295  16.456 -0.8978 -1.0482 -0.2328
  151DOPC  H10R18066   4.265   4.316  16.363 -0.6586  1.4327  0.3851
  151DOPC  C21118067   4.069   4.256  16.423  0.2535  0.1443 -0.0471
  151DOPC  H11R18068   3.997   4.339  16.412 -0.0915 -0.3179 -1.4437
  151DOPC  H11S18069   4.024   4.194  16.504 -0.0812  0.3240 -0.0951
  151DOPC  C21218070   4.042   4.164  16.303  0.3266  0.2542 -0.1552
  151DOPC  H12R18071   3.935   4.135  16.308  0.6754 -1.1632 -0.6638
  151DOPC  H12S18072   4.101   4.071  16.317  1.2365  0.7032 -0.9138
  151DOPC  C21318073   4.066   4.229  16.167  0.3296 -0.4235  0.0561
  151DOPC  H13R18074   4.171   4.264  16.169  0.6296 -1.0208 -2.3013
  151DOPC  H13S18075   4.005   4.319  16.145  0.4193 -0.5668 -0.8054
  151DOPC  C21418076   4.041   4.141  16.042 -0.2637  0.3112  0.0971
  151DOPC  H14R18077   3.940   4.096  16.047 -0.7388  1.0507 -1.9201
  151DOPC  H14S18078   4.114   4.058  16.045 -2.4432 -1.7034 -0.0242
  151DOPC  C21518079   4.051   4.220  15.911  0.0426  0.2953 -0.0261
  151DOPC  H15R18080   4.109   4.314  15.899 -2.5709  2.1171  0.7070
  151DOPC  H15S18081   3.953   4.267  15.889  0.7347  0.5762 -3.0053
  151DOPC  C21618082   4.056   4.130  15.786  0.4892  0.2825  0.6091
  151DOPC  H16R18083   4.045   4.196  15.697 -2.0730 -0.5034  0.2580
  151DOPC  H16S18084   3.974   4.057  15.768  3.0167 -3.3372  2.4800
  151DOPC  C21718085   4.205   4.082  15.756 -0.5976  0.4687  0.4376
  151DOPC  H17R18086   4.222   3.995  15.823  2.0979  1.1499  0.7627
  151DOPC  H17S18087   4.286   4.153  15.785 -0.3267  0.9385 -1.3467
  151DOPC  C21818088   4.234   4.042  15.606  0.2258 -0.7972 -0.6368
  151DOPC  H18R18089   4.252   4.138  15.553 -1.3196 -0.6611 -0.9565
  151DOPC  H18S18090   4.140   4.002  15.563 -0.8808 -0.2101  1.1059
  151DOPC  H18T18091   4.318   3.972  15.584  1.7400  1.5235 -2.7669
  151DOPC   C3318092   4.500   4.337  17.268  0.3982 -0.6406  0.0494
  151DOPC   H3X18093   4.547   4.240  17.298  1.9023 -0.3735 -1.3121
  151DOPC   H3Y18094   4.548   4.424  17.318  0.9856 -0.7891 -0.2389
  151DOPC   C3418095   4.530   4.353  17.122 -0.8957 -0.6125  0.1312
  151DOPC   H4X18096   4.490   4.447  17.078  2.8275  0.1745 -2.0350
  151DOPC   H4Y18097   4.485   4.270  17.063  0.1366  0.0701 -1.7166
  151DOPC   C3518098   4.683   4.354  17.094 -0.2067  0.2052  0.6905
  151DOPC   H5X18099   4.735   4.264  17.133 -1.1177 -1.0201 -0.7997
  151DOPC   H5Y18100   4.738   4.443  17.131  0.9543  0.2737 -1.0702
  151DOPC   C3618101   4.714   4.348  16.944  0.0421  0.5887  0.1605
  151DOPC   H6X18102   4.818   4.368  16.912  0.7448 -3.5661 -0.6529
  151DOPC   H6Y18103   4.698   4.247  16.900  3.3335 -0.0626  0.1986
  151DOPC   C3718104   4.628   4.443  16.857 -1.0237  0.3428  0.3294
  151DOPC   H7X18105   4.520   4.418  16.862 -1.5685  2.4876  0.3418
  151DOPC   H7Y18106   4.634   4.543  16.905  1.8801  0.1508  0.5882
  151DOPC   C3818107   4.667   4.464  16.712 -0.3929  0.1572 -0.0046
  151DOPC   H8X18108   4.767   4.513  16.708 -0.2546 -0.1791 -1.1988
  151DOPC   H8Y18109   4.586   4.527  16.668  0.0341 -0.0212 -1.0832
  151DOPC   C3918110   4.671   4.336  16.629  0.7671  0.4670 -0.0677
  151DOPC   H9X18111   4.703   4.247  16.686  0.8663  0.3307 -0.3350
  151DOPC  C31018112   4.655   4.329  16.497 -0.0138 -0.1502 -0.4530
  151DOPC  H10X18113   4.658   4.234  16.441  0.5857  0.3555 -1.3070
  151DOPC  C31118114   4.623   4.449  16.410 -0.2453 -0.9874  0.3381
  151DOPC  H11X18115   4.634   4.540  16.473  0.6874  0.6961 -2.0945
  151DOPC  H11Y18116   4.516   4.443  16.379 -0.3620 -2.9996  0.9739
  151DOPC  C31218117   4.714   4.452  16.292 -0.3531 -0.0235 -0.4084
  151DOPC  H12X18118   4.687   4.365  16.228 -0.3659 -0.4629  0.1747
  151DOPC  H12Y18119   4.824   4.448  16.308 -0.3340  2.8198  0.7690
  151DOPC  C31318120   4.674   4.572  16.203  0.0856  0.1674  0.1758
  151DOPC  H13X18121   4.564   4.566  16.191  0.1273 -0.4943  0.0804
  151DOPC  H13Y18122   4.696   4.667  16.255  0.7803  0.2982 -0.3399
  151DOPC  C31418123   4.736   4.571  16.066 -0.1369  0.0374 -0.1269
  151DOPC  H14X18124   4.731   4.468  16.023 -1.8918  0.4968 -1.1160
  151DOPC  H14Y18125   4.676   4.646  16.010 -0.9565  1.0254  1.9615
  151DOPC  C31518126   4.882   4.606  16.064  0.4241 -0.3331 -0.0642
  151DOPC  H15X18127   4.925   4.534  16.137 -0.2371 -0.0458  0.6219
  151DOPC  H15Y18128   4.912   4.707  16.100  0.4029 -0.9224  1.6996
  151DOPC  C31618129   4.942   4.578  15.924  0.2990 -0.8073  0.3272
  151DOPC  H16X18130   5.044   4.538  15.942  0.1777 -0.3144  2.2993
  151DOPC  H16Y18131   4.883   4.499  15.872 -1.8549  1.0535 -0.2395
  151DOPC  C31718132   4.942   4.697  15.829 -0.4457 -0.6332 -0.0543
  151DOPC  H17X18133   4.837   4.732  15.841 -0.8100 -1.9625  0.8749
  151DOPC  H17Y18134   5.018   4.773  15.860 -0.2039 -0.2512 -1.5210
  151DOPC  C31818135   4.965   4.658  15.682  0.1696 -0.0801  0.1541
  151DOPC  H18X18136   4.958   4.749  15.618 -0.9002 -0.7050 -0.6543
  151DOPC  H18Y18137   5.053   4.593  15.663  1.4627  1.6757 -0.0612
  151DOPC  H18Z18138   4.879   4.595  15.650  1.3267 -0.7577 -1.8346
  152DOPC     N18139   0.053   2.686  17.526 -0.3395 -0.3417  0.7569
  152DOPC   C1218140   0.074   2.779  17.642  0.3937 -0.8404 -0.8104
  152DOPC  H12A18141   0.174   2.819  17.632  0.3406 -0.4283  0.1925
  152DOPC  H12B18142   0.065   2.721  17.732  1.1483 -1.2324 -0.9786
  152DOPC   C1318143  -0.092   2.656  17.516  0.8572  0.0763  0.4054
  152DOPC  H13A18144  -0.151   2.743  17.489  0.4377 -0.1772  0.4873
  152DOPC  H13B18145  -0.098   2.583  17.436  1.4562 -0.1220  0.5350
  152DOPC  H13C18146  -0.127   2.610  17.607  1.2526 -0.1831  0.4265
  152DOPC   C1418147   0.121   2.558  17.540  0.2951  0.4280 -0.3339
  152DOPC  H14A18148   0.083   2.489  17.466 -1.4482 -0.9651  1.7104
  152DOPC  H14B18149   0.224   2.563  17.509  0.5273 -3.5791 -0.7321
  152DOPC  H14C18150   0.124   2.506  17.635 -1.7653 -0.8071 -0.8703
  152DOPC   C1518151   0.088   2.745  17.399 -0.5629  0.0591  0.3179
  152DOPC  H15A18152   0.024   2.831  17.384  1.1737  1.2400 -0.7135
  152DOPC  H15B18153   0.084   2.676  17.316 -0.0112 -0.0869  0.4073
  152DOPC  H15C18154   0.187   2.786  17.382 -0.9220  0.2556 -1.5732
  152DOPC   C1118155  -0.027   2.896  17.661 -0.0930 -0.1597  0.1198
  152DOPC  H11A18156  -0.127   2.855  17.685 -0.0878  0.2887  0.9369
  152DOPC  H11B18157   0.017   2.947  17.749 -2.6897  3.9384 -0.6520
  152DOPC     P18158  -0.098   3.115  17.536 -0.0029  0.2597 -0.1085
  152DOPC   O1318159  -0.040   3.209  17.442 -0.2553  0.3887  0.1866
  152DOPC   O1418160  -0.102   3.168  17.669  0.0175 -0.4942  0.4141
  152DOPC   O1218161  -0.028   2.977  17.545  0.2545 -0.1558  0.8933
  152DOPC   O1118162  -0.246   3.079  17.489  0.0746  0.0443 -0.1757
  152DOPC    C118163  -0.270   2.967  17.396  0.2987 -0.1796 -0.0816
  152DOPC    HA18164  -0.363   2.916  17.430 -0.0205  0.3885 -0.0956
  152DOPC    HB18165  -0.192   2.887  17.388 -0.3485 -0.6532 -2.3773
  152DOPC    C218166  -0.308   3.020  17.255 -0.4102  0.7465 -0.3131
  152DOPC    HS18167  -0.348   2.941  17.189 -0.9709  1.6425 -1.0795
  152DOPC   O2118168  -0.203   3.097  17.192  0.4014 -0.5364  0.2575
  152DOPC   C2118169  -0.107   3.017  17.150  0.2460 -0.2826  0.6587
  152DOPC   O2218170  -0.106   2.892  17.159 -0.1860  0.0396 -0.1662
  152DOPC   C2218171   0.008   3.097  17.081  0.2018  0.9945  0.1003
  152DOPC   H2R18172   0.075   3.021  17.035 -0.7927  1.4457 -2.2199
  152DOPC   H2S18173   0.068   3.141  17.163  0.7953 -1.3443  1.0074
  152DOPC    C318174  -0.427   3.126  17.273 -0.1958  0.1774 -0.6661
  152DOPC    HX18175  -0.373   3.219  17.302  0.1679  0.1792 -1.3407
  152DOPC    HY18176  -0.501   3.100  17.352  0.6462  1.4129  0.5891
  152DOPC   O3118177  -0.488   3.156  17.147 -0.3607  0.2497  0.0958
  152DOPC   C3118178  -0.595   3.083  17.122  0.5411  0.5664 -0.0531
  152DOPC   O3218179  -0.644   2.993  17.194 -0.0014 -0.0449 -0.1072
  152DOPC   C3218180  -0.661   3.132  16.993  0.0036 -0.1941  0.2715
  152DOPC   H2X18181  -0.759   3.080  16.994 -0.3429  0.4079  2.5582
  152DOPC   H2Y18182  -0.671   3.243  16.992 -2.3049 -0.3424 -1.0738
  152DOPC   C2318183  -0.044   3.209  16.980 -0.0464 -0.0122 -0.1095
  152DOPC   H3R18184   0.047   3.259  16.940 -0.4327  0.4227 -0.4473
  152DOPC   H3S18185  -0.114   3.286  17.018  0.9468  1.7449 -1.6596
  152DOPC   C2418186  -0.111   3.151  16.853 -0.1556  0.1798  0.7446
  152DOPC   H4R18187  -0.214   3.123  16.885 -0.2859 -0.9703 -0.6109
  152DOPC   H4S18188  -0.073   3.053  16.816 -1.1409  1.0774 -3.1853
  152DOPC   C2518189  -0.113   3.245  16.732  0.4269  0.0891 -0.2288
  152DOPC   H5R18190  -0.124   3.351  16.762 -2.8560 -1.1663  4.0146
  152DOPC   H5S18191  -0.198   3.222  16.665 -0.2916 -1.1589  1.0392
  152DOPC   C2618192   0.010   3.226  16.635  0.3188 -0.0017 -0.3954
  152DOPC   H6R18193   0.009   3.125  16.588  0.4791 -1.1870  1.9707
  152DOPC   H6S18194   0.106   3.234  16.691  0.3699 -2.4987 -0.0268
  152DOPC   C2718195   0.008   3.323  16.517 -0.4998 -0.1243  0.7053
  152DOPC   H7R18196   0.106   3.318  16.465 -1.6880 -1.5843 -1.5214
  152DOPC   H7S18197  -0.022   3.427  16.543 -1.0414  0.1163 -0.8054
  152DOPC   C2818198  -0.071   3.268  16.389  0.1423  0.0893  0.2775
  152DOPC   H8R18199  -0.179   3.254  16.408  0.1567  1.5625  1.6858
  152DOPC   H8S18200  -0.035   3.166  16.366 -1.3802 -0.7670  1.4967
  152DOPC   C2918201  -0.052   3.361  16.270  0.4406  0.0704  0.6042
  152DOPC   H9R18202  -0.069   3.466  16.296 -2.9527 -0.3393  0.4556
  152DOPC  C21018203  -0.036   3.324  16.143  0.5396 -0.2940  0.5681
  152DOPC  H10R18204  -0.046   3.396  16.061  1.7043 -0.8715 -0.1147
  152DOPC  C21118205  -0.036   3.179  16.094  0.2949  0.7572  0.2759
  152DOPC  H11R18206  -0.098   3.107  16.152  0.5927 -1.8077 -2.3594
  152DOPC  H11S18207   0.062   3.127  16.090 -1.0247 -2.0367  1.2977
  152DOPC  C21218208  -0.099   3.173  15.954  0.1563 -0.0671  0.3620
  152DOPC  H12R18209  -0.203   3.213  15.950  0.0279 -0.4749 -1.0961
  152DOPC  H12S18210  -0.120   3.068  15.925 -1.1252  0.4372 -0.6711
  152DOPC  C21318211  -0.011   3.230  15.843  0.2382  0.3513 -0.2150
  152DOPC  H13R18212   0.054   3.148  15.806  0.5790  0.2457  0.6111
  152DOPC  H13S18213   0.052   3.310  15.887  1.2309 -0.1966 -0.6027
  152DOPC  C21418214  -0.097   3.282  15.723  0.1881 -0.3652  0.0608
  152DOPC  H14R18215  -0.104   3.392  15.736  1.0230 -0.3117  0.1195
  152DOPC  H14S18216  -0.203   3.248  15.723 -0.5152  1.6491  0.7151
  152DOPC  C21518217  -0.035   3.264  15.586 -0.5775  0.0517 -0.0958
  152DOPC  H15R18218  -0.015   3.156  15.570 -1.7831 -0.2643  0.4193
  152DOPC  H15S18219   0.058   3.322  15.567 -0.7495 -0.2073 -1.9443
  152DOPC  C21618220  -0.122   3.325  15.474 -1.2024 -0.1537  0.3552
  152DOPC  H16R18221  -0.142   3.432  15.499  1.8434  0.0867  2.3182
  152DOPC  H16S18222  -0.227   3.289  15.479 -1.3294 -0.3224 -2.3569
  152DOPC  C21718223  -0.071   3.318  15.332 -0.2183  0.2557 -0.4882
  152DOPC  H17R18224   0.016   3.384  15.313 -0.7785  0.3699 -3.0230
  152DOPC  H17S18225  -0.146   3.369  15.269 -0.7773 -0.1716 -0.1760
  152DOPC  C21818226  -0.039   3.178  15.272 -0.3716 -0.6012 -0.5996
  152DOPC  H18R18227  -0.122   3.109  15.299 -0.7144  0.9712  2.9050
  152DOPC  H18S18228   0.054   3.140  15.318 -0.4794  1.6806  1.7523
  152DOPC  H18T18229  -0.030   3.182  15.161 -0.9436 -0.4476 -0.6433
  152DOPC   C3318230  -0.589   3.082  16.860 -0.0214 -0.1792 -0.1000
  152DOPC   H3X18231  -0.582   2.972  16.847 -1.4365 -0.3256  0.1886
  152DOPC   H3Y18232  -0.484   3.118  16.869  0.1422 -1.0720  2.7251
  152DOPC   C3418233  -0.659   3.135  16.734  0.4809 -0.2343 -0.3483
  152DOPC   H4X18234  -0.684   3.244  16.732 -0.1272 -0.3661 -0.0230
  152DOPC   H4Y18235  -0.760   3.090  16.725 -0.7564  1.8750  1.8576
  152DOPC   C3518236  -0.587   3.112  16.601 -0.2666  0.3293 -0.3880
  152DOPC   H5X18237  -0.542   3.010  16.601 -0.4443  0.2433 -1.3335
  152DOPC   H5Y18238  -0.513   3.194  16.591 -2.4346  2.2188 -2.1695
  152DOPC   C3618239  -0.687   3.144  16.484 -0.6347 -0.5243 -0.2438
  152DOPC   H6X18240  -0.778   3.081  16.497 -1.6574  0.7588 -1.0017
  152DOPC   H6Y18241  -0.699   3.254  16.481  1.6559 -0.2406 -2.0248
  152DOPC   C3718242  -0.623   3.117  16.346 -0.2979  0.2903 -0.4068
  152DOPC   H7X18243  -0.533   3.181  16.339 -0.0802  0.1875  1.0084
  152DOPC   H7Y18244  -0.605   3.009  16.330  2.5536  0.2929  2.0318
  152DOPC   C3818245  -0.708   3.158  16.224  0.1568  0.2655  0.3284
  152DOPC   H8X18246  -0.651   3.160  16.129 -0.3667  3.0969 -0.0353
  152DOPC   H8Y18247  -0.724   3.267  16.235 -1.3948  0.2779 -1.4247
  152DOPC   C3918248  -0.828   3.068  16.201  0.2877  0.4216  0.4572
  152DOPC   H9X18249  -0.916   3.086  16.264 -1.5409  1.4031 -2.1964
  152DOPC  C31018250  -0.842   2.986  16.100 -0.1596  0.2770 -0.2284
  152DOPC  H10X18251  -0.925   2.916  16.119  0.0906  0.1266  0.3481
  152DOPC  C31118252  -0.756   2.958  15.982  0.0213  0.1424  0.4170
  152DOPC  H11X18253  -0.653   2.998  15.987  0.0229  0.1051  0.6768
  152DOPC  H11Y18254  -0.794   3.012  15.893  1.4329 -2.3823 -1.8859
  152DOPC  C31218255  -0.747   2.816  15.930 -0.0893  0.0276 -0.2774
  152DOPC  H12X18256  -0.683   2.757  16.000  0.9059  0.5089 -0.7573
  152DOPC  H12Y18257  -0.679   2.817  15.842  1.0126  2.1108  0.5136
  152DOPC  C31318258  -0.883   2.766  15.895 -0.6691  0.0692  0.0912
  152DOPC  H13X18259  -0.928   2.707  15.978  0.6424  1.3403  1.7739
  152DOPC  H13Y18260  -0.944   2.853  15.861 -1.6029 -0.1516  1.1396
  152DOPC  C31418261  -0.884   2.679  15.768  0.7398 -0.0455  0.3569
  152DOPC  H14X18262  -0.850   2.736  15.678 -2.3542 -0.8561 -1.4619
  152DOPC  H14Y18263  -0.807   2.599  15.766  1.3260  0.4140 -3.3271
  152DOPC  C31518264  -1.023   2.616  15.738  0.1588 -0.4698  0.3891
  152DOPC  H15X18265  -1.043   2.588  15.632  0.1368 -1.5597  0.6683
  152DOPC  H15Y18266  -1.099   2.695  15.757  0.3466  0.0645 -0.9331
  152DOPC  C31618267  -1.052   2.491  15.822 -0.1083 -0.3653 -0.2701
  152DOPC  H16X18268  -0.968   2.420  15.810  0.7331 -0.3207  3.8538
  152DOPC  H16Y18269  -1.074   2.519  15.927 -0.0844 -1.3882  0.0138
  152DOPC  C31718270  -1.180   2.414  15.767 -0.1004  0.0417 -0.5151
  152DOPC  H17X18271  -1.217   2.339  15.840 -1.7286  0.0306 -1.2956
  152DOPC  H17Y18272  -1.255   2.496  15.765 -1.2276 -0.8428  1.5819
  152DOPC  C31818273  -1.167   2.344  15.642  0.7887 -0.5087 -0.4993
  152DOPC  H18X18274  -1.090   2.269  15.671 -0.4133 -1.6304 -0.1552
  152DOPC  H18Y18275  -1.264   2.298  15.614  0.5058 -0.4798  0.3940
  152DOPC  H18Z18276  -1.130   2.411  15.561  2.5112 -2.0047 -1.0364
  153DOPC     N18277   1.373   2.547  17.902 -0.3942 -0.1735 -0.1973
  153DOPC   C1218278   1.316   2.572  17.766  0.5153  0.6697  0.0387
  153DOPC  H12A18279   1.208   2.567  17.771  0.5686 -0.3591  0.2084
  153DOPC  H12B18280   1.335   2.483  17.708  2.3514 -0.5276  2.3167
  153DOPC   C1318281   1.354   2.674  17.986  0.6140  0.5755 -0.3498
  153DOPC  H13A18282   1.249   2.680  18.008  0.3194  3.2548 -2.0944
  153DOPC  H13B18283   1.425   2.670  18.068  0.8595 -0.6847 -0.5996
  153DOPC  H13C18284   1.374   2.763  17.928  0.7819 -0.1404 -1.4156
  153DOPC   C1418285   1.515   2.518  17.889  0.0092 -0.2954  0.2683
  153DOPC  H14A18286   1.574   2.512  17.979  0.6207  1.3324  0.0286
  153DOPC  H14B18287   1.529   2.427  17.833 -0.3850 -0.0279 -0.2845
  153DOPC  H14C18288   1.559   2.592  17.823  2.0241 -2.2372 -0.6823
  153DOPC   C1518289   1.305   2.436  17.967  0.2473  0.4109 -0.2248
  153DOPC  H15A18290   1.309   2.354  17.897 -0.3895  0.1377  0.0528
  153DOPC  H15B18291   1.200   2.453  17.987  0.1613 -0.4152  0.0238
  153DOPC  H15C18292   1.350   2.387  18.051  0.5979 -2.0128 -1.7318
  153DOPC   C1118293   1.358   2.701  17.682 -0.0156 -0.9282  0.7060
  153DOPC  H11A18294   1.306   2.704  17.584  0.2479 -2.1745  0.5121
  153DOPC  H11B18295   1.314   2.790  17.732 -0.9691  0.2655 -2.0953
  153DOPC     P18296   1.576   2.840  17.676  0.1124 -0.4741  0.1642
  153DOPC   O1318297   1.717   2.811  17.699  0.1642  0.1747  0.4239
  153DOPC   O1418298   1.510   2.946  17.751  0.1925  0.0423  0.0586
  153DOPC   O1218299   1.501   2.700  17.672 -0.2331 -0.0133 -0.4401
  153DOPC   O1118300   1.563   2.888  17.525 -0.2255 -0.0380  0.1924
  153DOPC    C118301   1.578   2.792  17.423  0.6121 -0.1132  0.1935
  153DOPC    HA18302   1.490   2.724  17.416  0.0297  0.6285  0.2296
  153DOPC    HB18303   1.674   2.737  17.432  1.8065  1.5309 -1.7702
  153DOPC    C218304   1.580   2.865  17.285  0.0843 -0.0193  0.5072
  153DOPC    HS18305   1.581   2.786  17.207  1.2715 -0.5552  1.0524
  153DOPC   O2118306   1.697   2.960  17.276  0.3363 -0.2930  0.2248
  153DOPC   C2118307   1.808   2.897  17.237  0.8150  0.0777 -0.3802
  153DOPC   O2218308   1.822   2.778  17.211 -0.3608  0.1136  0.3435
  153DOPC   C2218309   1.919   3.000  17.225  0.0903 -0.5669  0.2316
  153DOPC   H2R18310   2.008   2.939  17.195  1.9311  1.7674  0.6763
  153DOPC   H2S18311   1.949   3.029  17.328 -0.3843  1.4633 -0.1657
  153DOPC    C318312   1.460   2.956  17.270  0.5547 -0.1186 -0.0765
  153DOPC    HX18313   1.478   3.036  17.345  3.1378 -0.6551 -0.0175
  153DOPC    HY18314   1.369   2.902  17.301 -0.9609  2.0451 -0.5384
  153DOPC   O3118315   1.439   3.009  17.139 -0.3119 -0.2719  0.5078
  153DOPC   C3118316   1.413   2.941  17.031  0.8911  0.1739  0.1257
  153DOPC   O3218317   1.394   2.819  17.024  0.2427  0.3118 -0.6683
  153DOPC   C3218318   1.407   3.035  16.911  0.3195  0.6322 -0.2116
  153DOPC   H2X18319   1.306   3.083  16.911  0.2850  0.5603 -0.3902
  153DOPC   H2Y18320   1.492   3.107  16.908 -0.3285  1.3692 -2.1571
  153DOPC   C2318321   1.901   3.115  17.125 -0.6253  0.8354 -0.0786
  153DOPC   H3R18322   1.992   3.176  17.139  0.5906 -1.2743  2.1248
  153DOPC   H3S18323   1.808   3.166  17.158 -0.7599  1.5416 -1.5037
  153DOPC   C2418324   1.886   3.062  16.984 -0.0352 -0.3183  0.0325
  153DOPC   H4R18325   1.784   3.019  16.984 -1.6517  3.2197  0.5184
  153DOPC   H4S18326   1.965   2.989  16.956 -1.7217 -1.1283 -3.0590
  153DOPC   C2518327   1.899   3.179  16.887  0.1581  0.3079  0.1726
  153DOPC   H5R18328   2.001   3.223  16.897 -0.5907  1.7642  1.9834
  153DOPC   H5S18329   1.828   3.259  16.918  0.0207 -0.0474  0.7829
  153DOPC   C2618330   1.892   3.127  16.743 -1.0416 -0.1794  0.5755
  153DOPC   H6R18331   1.784   3.142  16.725 -0.7454  1.2253 -0.1547
  153DOPC   H6S18332   1.923   3.021  16.733  1.8656  0.4911  1.4283
  153DOPC   C2718333   1.967   3.195  16.634 -0.1309 -0.0867  0.3654
  153DOPC   H7R18334   2.070   3.204  16.676 -0.8883  0.7880  2.1253
  153DOPC   H7S18335   1.931   3.300  16.621  0.4285  0.0786  0.0975
  153DOPC   C2818336   1.968   3.119  16.503 -0.0990 -0.2111  0.1638
  153DOPC   H8R18337   1.863   3.101  16.469  0.0002 -3.6244  1.2200
  153DOPC   H8S18338   2.015   3.019  16.516  0.3402  0.1566  1.5255
  153DOPC   C2918339   2.047   3.192  16.404  0.0206  0.6109  0.5703
  153DOPC   H9R18340   2.151   3.221  16.427 -0.4345  2.3662  0.5600
  153DOPC  C21018341   2.006   3.232  16.282 -0.0697  0.0349  0.9240
  153DOPC  H10R18342   2.071   3.300  16.225 -0.4416 -0.0792  0.3527
  153DOPC  C21118343   1.880   3.204  16.207 -0.2223  0.3297 -0.4867
  153DOPC  H11R18344   1.801   3.248  16.272 -0.3687 -1.9230  0.9694
  153DOPC  H11S18345   1.867   3.094  16.204  2.1594 -0.1111  1.9208
  153DOPC  C21218346   1.869   3.261  16.069  0.7161  0.1065  0.0227
  153DOPC  H12R18347   1.898   3.368  16.075 -0.3047  0.4425 -0.8342
  153DOPC  H12S18348   1.765   3.254  16.032  1.2617 -0.6809 -1.4523
  153DOPC  C21318349   1.962   3.199  15.962  0.0687  0.0367  0.6864
  153DOPC  H13R18350   2.063   3.185  16.005  1.3441  1.0795 -1.7274
  153DOPC  H13S18351   1.971   3.271  15.877 -3.2109  0.8760  0.9055
  153DOPC  C21418352   1.911   3.074  15.892 -0.9057  0.4703  0.3418
  153DOPC  H14R18353   1.886   2.999  15.971  0.7368 -0.1566  0.2978
  153DOPC  H14S18354   1.999   3.037  15.834 -0.6505 -1.8303  2.0250
  153DOPC  C21518355   1.791   3.094  15.796 -0.8133 -0.1105 -0.3564
  153DOPC  H15R18356   1.787   3.200  15.765  0.2430  0.8210  2.3592
  153DOPC  H15S18357   1.699   3.076  15.857 -0.2467  0.9695  0.8606
  153DOPC  C21618358   1.794   3.006  15.664  0.1508 -0.1255 -0.2633
  153DOPC  H16R18359   1.693   3.012  15.618  0.2733  2.8722 -0.3274
  153DOPC  H16S18360   1.811   2.903  15.700  2.7831 -0.1249 -1.2839
  153DOPC  C21718361   1.899   3.053  15.569  0.6806  0.1639 -0.4587
  153DOPC  H17R18362   1.997   3.072  15.617  0.4960  0.9653 -0.3756
  153DOPC  H17S18363   1.870   3.157  15.542 -0.8688 -0.4758 -1.4123
  153DOPC  C21818364   1.920   2.977  15.451  0.0338 -0.1780 -0.2481
  153DOPC  H18R18365   2.007   3.013  15.392  1.2512  1.9478  2.6193
  153DOPC  H18S18366   1.832   2.968  15.384 -0.7525  0.2346  0.6968
  153DOPC  H18T18367   1.932   2.870  15.477  0.4281 -0.1750 -0.4030
  153DOPC   C3318368   1.413   2.946  16.780  0.9467  0.3528 -0.1763
  153DOPC   H3X18369   1.317   2.891  16.779  2.5588 -2.7576 -2.4951
  153DOPC   H3Y18370   1.493   2.869  16.787 -0.1497 -0.6791  1.7167
  153DOPC   C3418371   1.426   3.021  16.646 -0.4791  0.4398 -0.5647
  153DOPC   H4X18372   1.523   3.076  16.647  0.1128 -0.5778 -0.3657
  153DOPC   H4Y18373   1.339   3.089  16.633 -0.1627  0.4530 -3.2564
  153DOPC   C3518374   1.422   2.918  16.531 -0.1738 -0.2601  0.5870
  153DOPC   H5X18375   1.341   2.842  16.539  1.0024 -2.0524 -2.6193
  153DOPC   H5Y18376   1.523   2.871  16.528  0.7260  1.5898 -1.1470
  153DOPC   C3618377   1.399   2.973  16.390 -0.3916  0.0277 -0.0499
  153DOPC   H6X18378   1.426   2.891  16.319 -0.0221 -1.0254  1.2791
  153DOPC   H6Y18379   1.293   2.999  16.370 -0.8474  0.5315  2.6418
  153DOPC   C3718380   1.491   3.085  16.362 -0.4722 -0.2922 -0.0682
  153DOPC   H7X18381   1.465   3.171  16.428 -0.3978 -1.0550  0.9839
  153DOPC   H7Y18382   1.587   3.064  16.414 -0.8550 -2.1198 -0.0356
  153DOPC   C3818383   1.496   3.117  16.211 -0.0634 -0.3381  0.0163
  153DOPC   H8X18384   1.545   3.216  16.195  0.3371 -0.4675  0.4218
  153DOPC   H8Y18385   1.393   3.151  16.191  0.4727  1.8799  0.7442
  153DOPC   C3918386   1.539   3.025  16.102  0.1693 -0.5937 -0.3396
  153DOPC   H9X18387   1.646   3.004  16.109 -0.0444 -1.1725  1.6362
  153DOPC  C31018388   1.447   2.967  16.015  0.3447  0.0077  0.1011
  153DOPC  H10X18389   1.501   2.928  15.927  0.3663 -0.9503  0.5174
  153DOPC  C31118390   1.298   2.978  16.009  0.5664 -0.3515  0.0111
  153DOPC  H11X18391   1.256   3.037  16.094 -0.4546 -0.7466 -0.1943
  153DOPC  H11Y18392   1.249   2.879  16.019  0.5126 -0.5775 -2.1798
  153DOPC  C31218393   1.256   3.033  15.868 -0.3683  0.7680 -0.3983
  153DOPC  H12X18394   1.292   3.137  15.858  2.9056 -0.4235 -3.0852
  153DOPC  H12Y18395   1.145   3.028  15.859 -0.3189 -1.4652 -0.3865
  153DOPC  C31318396   1.322   2.959  15.746 -0.8019  0.3249  0.0609
  153DOPC  H13X18397   1.415   3.007  15.709 -1.3189 -0.7075 -2.8193
  153DOPC  H13Y18398   1.322   2.853  15.778 -2.7172  0.5554  0.9591
  153DOPC  C31418399   1.232   2.981  15.627  0.2386 -0.5345  0.4071
  153DOPC  H14X18400   1.249   2.883  15.579  1.0258 -0.0785 -0.2717
  153DOPC  H14Y18401   1.125   2.998  15.652  0.5631  0.1184  1.4187
  153DOPC  C31518402   1.286   3.087  15.535  0.5914 -0.8502  0.2965
  153DOPC  H15X18403   1.394   3.072  15.513  1.0806 -0.0020  1.9696
  153DOPC  H15Y18404   1.274   3.194  15.562  0.9878 -0.8406  0.4345
  153DOPC  C31618405   1.218   3.081  15.397 -0.2426  0.0645  0.5492
  153DOPC  H16X18406   1.221   2.974  15.368 -0.0336 -0.0937  1.1428
  153DOPC  H16Y18407   1.110   3.106  15.407 -0.9016 -2.4275  0.2430
  153DOPC  C31718408   1.287   3.164  15.281 -0.2474 -0.4694  0.0433
  153DOPC  H17X18409   1.298   3.271  15.309  2.0477 -0.6733  0.1205
  153DOPC  H17Y18410   1.392   3.128  15.274 -0.9081 -2.7417  0.7934
  153DOPC  C31818411   1.213   3.146  15.153  0.8861  0.2775  0.3787
  153DOPC  H18X18412   1.260   3.202  15.069 -0.9794 -0.7425 -1.4313
  153DOPC  H18Y18413   1.214   3.039  15.126  3.0947 -0.1164  1.7564
  153DOPC  H18Z18414   1.107   3.173  15.171  0.6489  0.7226 -1.4474
  154DOPC     N18415   3.178   5.373  17.730  0.2783 -0.2519 -0.0731
  154DOPC   C1218416   3.153   5.233  17.779 -0.4106  0.6650  0.0641
  154DOPC  H12A18417   3.235   5.224  17.848 -0.1434  1.5487 -0.1253
  154DOPC  H12B18418   3.176   5.157  17.705 -2.1779 -0.2590  0.3856
  154DOPC   C1318419   3.061   5.412  17.649 -0.0792 -0.1193 -0.0486
  154DOPC  H13A18420   3.024   5.338  17.580  0.1111  1.0459 -1.4482
  154DOPC  H13B18421   2.980   5.442  17.713  0.5913 -0.0737  0.8015
  154DOPC  H13C18422   3.083   5.502  17.593  3.3611  0.1888  1.5445
  154DOPC   C1418423   3.300   5.373  17.653  0.1256 -0.2912 -0.2274
  154DOPC  H14A18424   3.299   5.294  17.580  1.5346 -0.7860  0.2663
  154DOPC  H14B18425   3.311   5.466  17.598  0.1176  0.8593  1.6412
  154DOPC  H14C18426   3.384   5.359  17.718  0.0282 -3.0246 -0.5819
  154DOPC   C1518427   3.186   5.472  17.839  0.5440 -0.2054  0.0725
  154DOPC  H15A18428   3.206   5.572  17.804 -3.4656  0.0944 -2.0360
  154DOPC  H15B18429   3.263   5.454  17.912  0.5044 -2.8401 -0.4274
  154DOPC  H15C18430   3.093   5.478  17.894 -1.1876  0.3439 -2.7003
  154DOPC   C1118431   3.015   5.192  17.851 -0.0543  0.1038  0.9024
  154DOPC  H11A18432   2.936   5.189  17.774 -1.2784  0.3769  2.1123
  154DOPC  H11B18433   3.019   5.089  17.894  1.1225 -0.4750 -0.5140
  154DOPC     P18434   2.859   5.359  17.975 -0.1187  0.1265  0.0782
  154DOPC   O1318435   2.887   5.449  18.090 -0.3832  0.4791  0.2323
  154DOPC   O1418436   2.748   5.266  17.981 -0.3545 -0.4468  0.1322
  154DOPC   O1218437   2.992   5.286  17.954 -0.8759  0.5490  0.4346
  154DOPC   O1118438   2.831   5.454  17.852 -0.9511 -0.2892  0.0778
  154DOPC    C118439   2.704   5.491  17.810  0.9976 -0.3005  0.4336
  154DOPC    HA18440   2.635   5.535  17.885 -1.6296  1.0737 -2.5312
  154DOPC    HB18441   2.659   5.401  17.762  1.3749 -0.4806  0.4157
  154DOPC    C218442   2.712   5.602  17.698  0.5393 -0.5630 -0.7346
  154DOPC    HS18443   2.606   5.632  17.680  0.1461 -2.5282 -2.1475
  154DOPC   O2118444   2.762   5.566  17.573  0.0529  0.2505  0.2365
  154DOPC   C2118445   2.679   5.494  17.504  0.4644  1.0106  0.4542
  154DOPC   O2218446   2.572   5.448  17.548  0.0417 -0.3696  0.0984
  154DOPC   C2218447   2.740   5.454  17.372 -0.1983  0.1349 -0.1779
  154DOPC   H2R18448   2.713   5.348  17.350  0.7054 -0.0210 -0.5438
  154DOPC   H2S18449   2.851   5.453  17.382 -0.1363  2.0981 -0.2798
  154DOPC    C318450   2.792   5.731  17.748 -0.2089 -0.1334 -0.4708
  154DOPC    HX18451   2.887   5.700  17.795 -0.7967 -0.1481  0.7556
  154DOPC    HY18452   2.723   5.771  17.826  1.2951  2.9451 -0.5349
  154DOPC   O3118453   2.804   5.834  17.649 -0.3832 -0.2273 -0.0017
  154DOPC   C3118454   2.910   5.817  17.570  0.1776 -0.2263  0.9574
  154DOPC   O3218455   2.993   5.729  17.578  0.3881  0.1832 -0.3494
  154DOPC   C3218456   2.912   5.936  17.469 -0.2600 -0.5273  0.8489
  154DOPC   H2X18457   2.813   5.987  17.464 -1.7334 -3.2922 -0.3509
  154DOPC   H2Y18458   2.995   6.004  17.496  0.1689 -0.9971  0.7154
  154DOPC   C2318459   2.704   5.536  17.245  0.7180 -0.3938 -0.2729
  154DOPC   H3R18460   2.744   5.638  17.260 -0.4521 -0.2706  2.7498
  154DOPC   H3S18461   2.595   5.558  17.235  0.7261  0.6641  1.5866
  154DOPC   C2418462   2.773   5.478  17.116 -0.4414 -0.2178  0.7063
  154DOPC   H4R18463   2.765   5.369  17.101 -3.1120  0.0595 -0.6236
  154DOPC   H4S18464   2.877   5.515  17.126 -1.0977  2.0981 -0.2490
  154DOPC   C2518465   2.724   5.550  16.991  0.2116 -0.1409 -0.2098
  154DOPC   H5R18466   2.744   5.657  17.015 -2.4707  0.2593  0.5702
  154DOPC   H5S18467   2.613   5.550  16.982 -0.0087  1.0392  2.0005
  154DOPC   C2618468   2.777   5.510  16.853  0.0329 -0.3457  0.8723
  154DOPC   H6R18469   2.762   5.402  16.833  2.1025 -0.1076 -2.7772
  154DOPC   H6S18470   2.886   5.519  16.869  0.0832 -2.0456  1.7800
  154DOPC   C2718471   2.722   5.597  16.737 -0.5800 -0.0683 -0.4270
  154DOPC   H7R18472   2.717   5.707  16.756 -0.2661 -0.0131 -0.6546
  154DOPC   H7S18473   2.621   5.557  16.714  0.3078 -2.1690 -0.8306
  154DOPC   C2818474   2.798   5.564  16.612  0.2348 -0.1229  0.2703
  154DOPC   H8R18475   2.775   5.461  16.576  1.0334  0.0390 -0.7438
  154DOPC   H8S18476   2.905   5.568  16.642  0.0974  1.5350  0.6538
  154DOPC   C2918477   2.746   5.670  16.522 -0.3742 -0.1250 -0.2830
  154DOPC   H9R18478   2.754   5.774  16.557 -0.7954  0.2235 -1.1976
  154DOPC  C21018479   2.702   5.649  16.394 -0.2023  0.3637  0.3720
  154DOPC  H10R18480   2.655   5.732  16.340 -1.8453 -0.0312  1.1312
  154DOPC  C21118481   2.687   5.512  16.322 -0.4784 -0.8963  0.1483
  154DOPC  H11R18482   2.591   5.518  16.267  0.0863  1.5575 -0.7023
  154DOPC  H11S18483   2.673   5.433  16.399 -0.7370  0.3281  1.3839
  154DOPC  C21218484   2.801   5.476  16.227 -0.2447  0.3066  0.1864
  154DOPC  H12R18485   2.901   5.466  16.274 -0.0005  1.1661 -0.1177
  154DOPC  H12S18486   2.811   5.565  16.161 -0.1326 -0.8695 -1.4506
  154DOPC  C21318487   2.767   5.347  16.148 -0.2447  0.1740 -0.1713
  154DOPC  H13R18488   2.666   5.361  16.103 -0.0362 -0.0093 -0.7064
  154DOPC  H13S18489   2.755   5.266  16.223  0.6701  0.7357  0.5930
  154DOPC  C21418490   2.875   5.308  16.045 -0.1578  0.0574  0.0656
  154DOPC  H14R18491   2.887   5.199  16.059 -1.6793  0.1713  2.9584
  154DOPC  H14S18492   2.970   5.356  16.076  0.5775 -2.0415  1.2548
  154DOPC  C21518493   2.836   5.344  15.896  0.3791 -0.3965  0.1131
  154DOPC  H15R18494   2.800   5.449  15.895 -0.1492 -0.4617 -3.6978
  154DOPC  H15S18495   2.749   5.281  15.865 -0.6662  0.1564  1.7619
  154DOPC  C21618496   2.952   5.325  15.803 -0.0634  0.4553  0.7907
  154DOPC  H16R18497   3.049   5.363  15.843 -0.3338  3.2035 -0.8599
  154DOPC  H16S18498   2.931   5.384  15.712 -0.5800 -0.0665  0.5714
  154DOPC  C21718499   2.973   5.177  15.767  0.9728 -0.7336 -0.3453
  154DOPC  H17R18500   2.882   5.128  15.726 -0.5016  0.6493  1.1633
  154DOPC  H17S18501   2.993   5.126  15.863  0.8300  0.1866  0.1833
  154DOPC  C21818502   3.087   5.144  15.677 -0.0522 -0.3018  0.6150
  154DOPC  H18R18503   3.056   5.172  15.574  0.0759  0.9031  0.8933
  154DOPC  H18S18504   3.117   5.037  15.673  1.2282  0.0652 -1.9548
  154DOPC  H18T18505   3.180   5.189  15.716 -0.4278  0.9072  0.1701
  154DOPC   C3318506   2.932   5.894  17.324  0.0634  0.3131  0.2066
  154DOPC   H3X18507   2.870   5.806  17.297  0.9633 -1.0197  2.2814
  154DOPC   H3Y18508   3.031   5.846  17.311  0.3628  0.9521  0.0555
  154DOPC   C3418509   2.917   6.008  17.225  0.2205 -0.2778  0.2562
  154DOPC   H4X18510   3.003   6.073  17.255  0.1656 -0.0128 -0.1463
  154DOPC   H4Y18511   2.823   6.067  17.231  2.1575  4.3928 -5.0910
  154DOPC   C3518512   2.933   5.960  17.075  0.2823  0.3294  0.3136
  154DOPC   H5X18513   2.854   5.890  17.040  0.7320  1.0887 -2.4716
  154DOPC   H5Y18514   3.018   5.889  17.087 -0.4600 -0.4968  0.8011
  154DOPC   C3618515   2.957   6.068  16.973  0.0356 -0.1270  0.3612
  154DOPC   H6X18516   2.862   6.118  16.947  1.0454  1.1714 -0.9493
  154DOPC   H6Y18517   3.017   6.148  17.021 -2.0716  1.2489  0.8166
  154DOPC   C3718518   3.019   6.008  16.847 -0.4707 -0.4020  0.2522
  154DOPC   H7X18519   3.065   6.089  16.786  0.5959 -2.2550 -1.5143
  154DOPC   H7Y18520   3.104   5.947  16.884  1.1760  1.3876 -0.3707
  154DOPC   C3818521   2.923   5.941  16.751  0.1498  0.1345  0.3819
  154DOPC   H8X18522   2.855   6.019  16.710  2.8967  1.1470 -2.6761
  154DOPC   H8Y18523   2.862   5.859  16.794  0.8656 -0.8081 -0.3429
  154DOPC   C3918524   2.998   5.886  16.634  0.2390  0.4396 -0.8561
  154DOPC   H9X18525   3.069   5.806  16.660 -1.2177 -0.0790  1.8596
  154DOPC  C31018526   2.982   5.927  16.507  0.2797 -0.6806 -0.0695
  154DOPC  H10X18527   3.037   5.870  16.432 -0.9388 -3.0251  0.7135
  154DOPC  C31118528   2.873   6.019  16.458  0.3144  0.2584 -0.1665
  154DOPC  H11X18529   2.879   6.105  16.528  1.6884 -1.3178  1.7750
  154DOPC  H11Y18530   2.775   5.969  16.472  0.1671  0.8475  0.9915
  154DOPC  C31218531   2.886   6.066  16.306 -0.1566 -0.5842 -0.2847
  154DOPC  H12X18532   2.983   6.118  16.289  0.0666 -0.6506  0.7250
  154DOPC  H12Y18533   2.811   6.143  16.281  0.8534  0.2635 -0.7778
  154DOPC  C31318534   2.880   5.954  16.208 -0.3350 -0.9568  0.2664
  154DOPC  H13X18535   2.964   5.886  16.234 -0.6401 -1.6831 -0.6126
  154DOPC  H13Y18536   2.784   5.899  16.214 -0.3536 -1.0246 -0.5002
  154DOPC  C31418537   2.871   6.005  16.063  0.0971 -0.2138  0.7501
  154DOPC  H14X18538   2.779   6.064  16.047  1.0949  1.2113  0.0154
  154DOPC  H14Y18539   2.955   6.069  16.030 -1.7290  1.7053 -0.3573
  154DOPC  C31518540   2.854   5.877  15.967  0.1813  0.2903  0.5479
  154DOPC  H15X18541   2.764   5.831  16.013  0.4373  0.4988  1.2761
  154DOPC  H15Y18542   2.947   5.820  15.991  0.4104  0.7126  0.6895
  154DOPC  C31618543   2.811   5.900  15.825  0.0545  0.2086 -0.5524
  154DOPC  H16X18544   2.721   5.966  15.830  0.1225  0.3093 -0.6372
  154DOPC  H16Y18545   2.892   5.948  15.765 -1.5737 -0.6357 -3.6643
  154DOPC  C31718546   2.773   5.772  15.755 -0.0111 -0.7188 -0.6286
  154DOPC  H17X18547   2.691   5.725  15.813 -3.0324  0.9704 -3.1708
  154DOPC  H17Y18548   2.734   5.806  15.656  1.6373  0.2059 -1.0019
  154DOPC  C31818549   2.878   5.670  15.719  0.5092  0.2322  0.0425
  154DOPC  H18X18550   2.952   5.695  15.640 -1.7360  1.0408 -1.9080
  154DOPC  H18Y18551   2.921   5.628  15.813  0.7159 -0.7836 -0.4999
  154DOPC  H18Z18552   2.836   5.582  15.668  0.4677  0.9811 -1.2577
  155DOPC     N18553   4.946   4.430  17.912  0.3493  0.0051  0.4550
  155DOPC   C1218554   5.058   4.391  18.004  0.0321  0.4371 -0.4721
  155DOPC  H12A18555   5.027   4.443  18.094  0.0180 -0.0899 -0.1708
  155DOPC  H12B18556   5.146   4.451  17.986  0.2217 -0.2274 -1.7874
  155DOPC   C1318557   4.958   4.364  17.777 -0.2447  0.3656  0.5785
  155DOPC  H13A18558   4.895   4.403  17.698  0.5821  0.0489 -0.2576
  155DOPC  H13B18559   5.057   4.392  17.746 -0.8723  2.4203  0.2931
  155DOPC  H13C18560   4.949   4.257  17.776 -0.7329  0.4095 -0.0761
  155DOPC   C1418561   4.952   4.585  17.887 -0.7535 -0.5023  0.3889
  155DOPC  H14A18562   4.869   4.610  17.823 -0.3467 -0.5415 -0.1583
  155DOPC  H14B18563   4.935   4.635  17.982 -1.1719 -1.3884  0.7959
  155DOPC  H14C18564   5.041   4.621  17.839 -1.5594  0.1011 -0.6920
  155DOPC   C1518565   4.816   4.391  17.966  0.1831 -0.3002  0.2659
  155DOPC  H15A18566   4.821   4.285  17.986  0.2882 -0.4375 -0.4567
  155DOPC  H15B18567   4.741   4.417  17.892  0.3691  0.8845  0.4772
  155DOPC  H15C18568   4.798   4.452  18.053  0.5357 -0.0109  0.1405
  155DOPC   C1118569   5.086   4.236  18.026  0.5356  0.8277  0.2237
  155DOPC  H11A18570   5.127   4.203  17.928  0.3294  2.8000 -0.5678
  155DOPC  H11B18571   5.164   4.226  18.105 -1.5483 -2.7073  2.1398
  155DOPC     P18572   4.954   4.022  17.992  0.0747 -0.1773 -0.3801
  155DOPC   O1318573   4.823   3.963  18.033 -0.1233 -0.3855  0.4572
  155DOPC   O1418574   5.075   3.942  18.004 -0.5661  0.2834 -0.3621
  155DOPC   O1218575   4.975   4.157  18.074 -0.5807  0.4790  0.3688
  155DOPC   O1118576   4.934   4.069  17.843 -0.3752 -0.2942  0.5165
  155DOPC    C118577   4.961   3.984  17.727 -0.3598  0.1532 -0.0865
  155DOPC    HA18578   4.890   4.016  17.648 -4.4911 -0.7915  2.9357
  155DOPC    HB18579   4.938   3.881  17.762  0.2749  0.4178  1.1805
  155DOPC    C218580   5.108   3.983  17.681 -0.3266  0.0677  0.8615
  155DOPC    HS18581   5.169   3.953  17.769 -0.3261 -0.9007  0.5461
  155DOPC   O2118582   5.141   4.112  17.640 -0.2732 -0.2934  0.9366
  155DOPC   C2118583   5.274   4.138  17.634  0.4880  0.3325 -0.1991
  155DOPC   O2218584   5.360   4.058  17.651  0.0951 -0.6966  0.6471
  155DOPC   C2218585   5.292   4.289  17.606  0.3612  0.5939  0.1130
  155DOPC   H2R18586   5.398   4.314  17.586  0.1034  0.7206 -1.2465
  155DOPC   H2S18587   5.253   4.327  17.703 -2.4589  1.1717 -1.1314
  155DOPC    C318588   5.117   3.878  17.569 -0.4626 -0.1464  0.2326
  155DOPC    HX18589   5.096   3.777  17.611  1.1021 -0.6545 -0.1730
  155DOPC    HY18590   5.217   3.866  17.524 -0.4361  2.6145 -0.6223
  155DOPC   O3118591   5.028   3.911  17.461  0.3841  0.1174 -0.3816
  155DOPC   C3118592   5.082   3.989  17.367  0.3826 -0.2333 -0.5371
  155DOPC   O3218593   5.205   4.008  17.358  0.7329  0.4443  0.0757
  155DOPC   C3218594   4.974   4.038  17.280 -0.2678 -0.0102 -0.1677
  155DOPC   H2X18595   4.872   4.029  17.325 -0.0187  1.1270  0.6735
  155DOPC   H2Y18596   4.987   4.148  17.275 -0.7500  0.1367  1.1741
  155DOPC   C2318597   5.198   4.345  17.497  0.2081  0.0013  0.0431
  155DOPC   H3R18598   5.180   4.454  17.509  0.0931  0.0418 -0.4753
  155DOPC   H3S18599   5.102   4.289  17.497  0.9802 -1.4026 -1.7080
  155DOPC   C2418600   5.252   4.337  17.350 -0.1071  0.2309  0.3711
  155DOPC   H4R18601   5.270   4.231  17.324 -0.8415 -0.0089  0.8324
  155DOPC   H4S18602   5.342   4.403  17.350 -0.1140  0.2772 -1.3187
  155DOPC   C2518603   5.158   4.401  17.246  0.4785 -0.1542 -0.6838
  155DOPC   H5R18604   5.133   4.507  17.267  1.5360 -0.1069  0.4420
  155DOPC   H5S18605   5.065   4.341  17.254  1.2047 -1.2378 -0.1108
  155DOPC   C2618606   5.203   4.383  17.106  0.5204  0.2953 -0.1709
  155DOPC   H6R18607   5.240   4.278  17.097 -1.6304 -0.3280 -2.9086
  155DOPC   H6S18608   5.292   4.444  17.082  0.8745  0.1653  0.7485
  155DOPC   C2718609   5.087   4.410  17.001 -0.6300  0.1370 -0.8952
  155DOPC   H7R18610   5.080   4.516  16.969  0.0412 -0.3477 -2.7702
  155DOPC   H7S18611   4.998   4.373  17.057  0.4803 -0.1127  0.7752
  155DOPC   C2818612   5.100   4.327  16.875 -0.8354 -0.6843 -0.4770
  155DOPC   H8R18613   5.021   4.368  16.808 -0.3314  0.5559 -0.3244
  155DOPC   H8S18614   5.081   4.220  16.898  0.8167 -0.5655  1.7391
  155DOPC   C2918615   5.227   4.340  16.790 -0.5603 -0.1959 -0.0971
  155DOPC   H9R18616   5.322   4.340  16.846  0.1504  0.2925 -1.2887
  155DOPC  C21018617   5.240   4.332  16.655 -0.0080 -0.7886 -0.3229
  155DOPC  H10R18618   5.341   4.355  16.616 -0.1167  1.2249  0.4795
  155DOPC  C21118619   5.133   4.321  16.546 -0.5630 -0.1902 -0.6768
  155DOPC  H11R18620   5.035   4.365  16.575 -0.9320 -1.8790  0.7544
  155DOPC  H11S18621   5.112   4.215  16.523 -0.8100 -0.7962  2.0304
  155DOPC  C21218622   5.157   4.379  16.409 -0.6349 -0.0978  0.6060
  155DOPC  H12R18623   5.189   4.485  16.417  2.6823 -0.5265 -3.4619
  155DOPC  H12S18624   5.064   4.390  16.350  0.3340  1.4844 -0.7197
  155DOPC  C21318625   5.254   4.293  16.334 -0.3590 -0.0060  0.5487
  155DOPC  H13R18626   5.231   4.185  16.333 -0.2630 -0.0420 -1.0416
  155DOPC  H13S18627   5.357   4.306  16.376  0.0875  1.0309 -0.7938
  155DOPC  C21418628   5.252   4.334  16.184 -0.1482 -0.0994  0.3285
  155DOPC  H14R18629   5.158   4.318  16.129 -0.5542 -2.9221  1.6546
  155DOPC  H14S18630   5.340   4.286  16.136  0.3413 -0.8428  1.8829
  155DOPC  C21518631   5.280   4.486  16.172  0.2506  0.1058 -0.5920
  155DOPC  H15R18632   5.343   4.523  16.256 -0.6729  0.4234 -0.0258
  155DOPC  H15S18633   5.179   4.531  16.183  0.1042 -0.5545  1.0806
  155DOPC  C21618634   5.330   4.525  16.036  0.5038  0.2848 -0.3129
  155DOPC  H16R18635   5.259   4.487  15.959  1.1851  1.6664 -1.6844
  155DOPC  H16S18636   5.425   4.474  16.011  1.7351  2.6839 -0.8146
  155DOPC  C21718637   5.344   4.675  16.015 -0.3667  0.1505  0.9882
  155DOPC  H17R18638   5.411   4.703  16.099 -0.3117  0.7316  0.7477
  155DOPC  H17S18639   5.244   4.721  16.030 -0.2488  1.4453 -1.6413
  155DOPC  C21818640   5.396   4.728  15.882 -0.2928  0.2097 -0.1995
  155DOPC  H18R18641   5.329   4.700  15.798 -1.8557  1.2655  0.6706
  155DOPC  H18S18642   5.495   4.678  15.868 -0.3241  0.0816  0.0290
  155DOPC  H18T18643   5.419   4.836  15.878  0.9554 -0.0730 -2.6191
  155DOPC   C3318644   4.980   3.983  17.135 -0.1815 -0.3143 -0.5976
  155DOPC   H3X18645   4.989   3.873  17.132  0.4010 -0.2551 -1.4780
  155DOPC   H3Y18646   5.073   4.022  17.088  1.6012 -2.7231  0.6894
  155DOPC   C3418647   4.854   4.016  17.053  0.3450 -0.0196  0.2976
  155DOPC   H4X18648   4.853   4.119  17.012  0.6086 -0.4223 -0.7317
  155DOPC   H4Y18649   4.765   4.012  17.120  0.4106  2.0230  0.5652
  155DOPC   C3518650   4.825   3.918  16.943 -0.3816 -0.5161  0.0966
  155DOPC   H5X18651   4.737   3.958  16.888 -0.4135  0.4806  0.8513
  155DOPC   H5Y18652   4.817   3.814  16.981  2.5484  0.0899  2.7542
  155DOPC   C3618653   4.941   3.909  16.842  0.1475 -0.0623 -0.7122
  155DOPC   H6X18654   4.956   4.008  16.794  0.1204  1.1171  1.5574
  155DOPC   H6Y18655   5.033   3.900  16.904 -0.5579  0.3726  0.4271
  155DOPC   C3718656   4.926   3.806  16.732  0.2263 -0.4200  0.2862
  155DOPC   H7X18657   4.911   3.707  16.780  0.0319 -1.4216 -1.7155
  155DOPC   H7Y18658   4.831   3.835  16.683 -0.1905  0.3409  1.5094
  155DOPC   C3818659   5.046   3.821  16.633  0.4336  0.0193 -0.3983
  155DOPC   H8X18660   5.137   3.786  16.687 -1.5325 -1.5091  2.1901
  155DOPC   H8Y18661   5.056   3.929  16.613 -0.7972 -0.0496 -1.5040
  155DOPC   C3918662   5.032   3.743  16.503  0.2095  0.3679  0.4108
  155DOPC   H9X18663   5.047   3.635  16.517 -0.2648  0.0056 -1.6080
  155DOPC  C31018664   4.992   3.782  16.385  0.0864  0.1325  0.2393
  155DOPC  H10X18665   5.018   3.717  16.300  1.8240  2.8688 -1.4679
  155DOPC  C31118666   4.945   3.923  16.340  0.4810  0.0565 -0.8890
  155DOPC  H11X18667   4.950   4.000  16.420  0.2939 -2.1587  1.3817
  155DOPC  H11Y18668   4.839   3.924  16.305  0.0892  2.5900  0.1072
  155DOPC  C31218669   5.021   3.945  16.212 -0.9730  0.0582  0.1204
  155DOPC  H12X18670   5.011   3.857  16.145 -0.9890 -1.2001  1.7015
  155DOPC  H12Y18671   5.126   3.960  16.248 -1.0694 -0.3456  0.5839
  155DOPC  C31318672   4.993   4.064  16.116 -0.0060  0.0931 -0.3020
  155DOPC  H13X18673   4.891   4.051  16.073 -0.7560  1.4686  0.9491
  155DOPC  H13Y18674   4.976   4.161  16.168 -0.0748 -0.3358  0.4839
  155DOPC  C31418675   5.090   4.064  15.997  0.0964  0.0455 -0.3583
  155DOPC  H14X18676   5.188   4.097  16.036 -0.2526  1.3532 -0.5489
  155DOPC  H14Y18677   5.097   3.966  15.946 -1.3762  1.3766 -3.4009
  155DOPC  C31518678   5.040   4.169  15.895 -0.1966 -0.2389 -0.7029
  155DOPC  H15X18679   5.016   4.265  15.946  0.0988 -0.1115 -0.7996
  155DOPC  H15Y18680   4.944   4.135  15.852 -1.4610  1.6465  0.4747
  155DOPC  C31618681   5.139   4.205  15.784 -0.7992 -0.1889  0.2857
  155DOPC  H16X18682   5.222   4.263  15.829  1.3000 -2.0089 -1.0548
  155DOPC  H16Y18683   5.185   4.112  15.747 -0.3950  0.4628 -0.8904
  155DOPC  C31718684   5.081   4.292  15.668 -0.6661  0.3387 -0.6590
  155DOPC  H17X18685   4.986   4.242  15.639 -0.4170 -2.7507  2.9913
  155DOPC  H17Y18686   5.058   4.394  15.707  0.4829  1.1001 -1.8699
  155DOPC  C31818687   5.175   4.298  15.545  0.2166 -0.3287  0.4671
  155DOPC  H18X18688   5.190   4.200  15.494  0.0188 -0.4739  0.6866
  155DOPC  H18Y18689   5.120   4.361  15.472  0.3750 -1.5758 -0.7721
  155DOPC  H18Z18690   5.267   4.355  15.569 -0.4818  0.4838  1.2716
  156DOPC     N18691   3.110   0.846  18.110  0.1409 -0.2996  0.1393
  156DOPC   C1218692   3.044   0.804  17.982  0.0418 -0.6638  1.0631
  156DOPC  H12A18693   3.110   0.813  17.896 -2.1564 -1.5618 -0.8349
  156DOPC  H12B18694   2.957   0.866  17.969  0.0956 -0.7502  0.2147
  156DOPC   C1318695   3.243   0.780  18.142 -0.0547 -0.6195  0.9356
  156DOPC  H13A18696   3.257   0.808  18.245  1.5348  2.0876  0.0731
  156DOPC  H13B18697   3.231   0.675  18.121 -0.7004 -0.1405 -1.4172
  156DOPC  H13C18698   3.323   0.824  18.085 -1.1603 -0.1985 -0.3440
  156DOPC   C1418699   3.018   0.816  18.222  0.2432  0.0409 -0.2941
  156DOPC  H14A18700   3.011   0.711  18.245  0.7408  0.5887  2.8019
  156DOPC  H14B18701   3.056   0.855  18.316  1.0681  2.8694 -1.6841
  156DOPC  H14C18702   2.917   0.852  18.212  1.0645  3.0644  1.0711
  156DOPC   C1518703   3.135   0.997  18.094  0.1926  0.5713 -0.6535
  156DOPC  H15A18704   3.194   1.042  18.172 -0.3291 -2.4395  1.6803
  156DOPC  H15B18705   3.043   1.048  18.114 -0.7558 -0.5691 -1.9386
  156DOPC  H15C18706   3.172   1.025  17.997  0.7141 -1.6769 -1.1604
  156DOPC   C1118707   2.994   0.663  17.965 -0.2297  0.4071 -0.0235
  156DOPC  H11A18708   2.930   0.635  18.052  0.9838 -0.0293  0.7702
  156DOPC  H11B18709   2.931   0.661  17.874  0.2663 -0.3998 -0.3524
  156DOPC     P18710   3.174   0.546  17.810  0.1332 -0.0467  0.4517
  156DOPC   O1318711   3.267   0.431  17.823 -0.0958  0.4230 -0.3100
  156DOPC   O1418712   3.219   0.676  17.755  0.4916  0.1407  0.3822
  156DOPC   O1218713   3.106   0.575  17.951  0.6658  0.1896 -0.3170
  156DOPC   O1118714   3.055   0.506  17.720  0.2260 -0.6962 -0.3381
  156DOPC    C118715   3.076   0.437  17.596 -0.4635  0.2498  0.0173
  156DOPC    HA18716   3.025   0.339  17.607  2.6930 -1.2706  3.0608
  156DOPC    HB18717   3.179   0.401  17.574  0.0597  1.5240  0.3335
  156DOPC    C218718   3.049   0.523  17.470 -0.0334  0.3576  0.2808
  156DOPC    HS18719   3.117   0.611  17.465 -0.6421  0.7687 -1.3868
  156DOPC   O2118720   2.911   0.551  17.466 -0.3655  0.6282 -0.1531
  156DOPC   C2118721   2.886   0.643  17.377 -0.1334 -0.1183  0.1003
  156DOPC   O2218722   2.969   0.716  17.322  0.3820  0.6386 -0.1119
  156DOPC   C2218723   2.734   0.655  17.360 -0.1900 -0.2563 -0.5505
  156DOPC   H2R18724   2.690   0.684  17.457  2.7917  4.6123 -0.3160
  156DOPC   H2S18725   2.696   0.554  17.336  1.8463 -1.1217 -0.3333
  156DOPC    C318726   3.079   0.429  17.345  0.2316 -0.6223  0.4148
  156DOPC    HX18727   3.013   0.340  17.355 -1.4538  0.4015 -1.0258
  156DOPC    HY18728   3.181   0.388  17.361  0.9997  1.0303  0.0230
  156DOPC   O3118729   3.066   0.491  17.215 -0.4616  0.2227  0.4399
  156DOPC   C3118730   3.177   0.508  17.145 -0.3922 -0.5058  0.1945
  156DOPC   O3218731   3.290   0.495  17.181 -0.0729 -0.1004 -0.7435
  156DOPC   C3218732   3.129   0.555  17.005 -0.4665  0.0597 -0.2890
  156DOPC   H2X18733   3.025   0.519  16.994  0.1800 -1.4756 -1.8700
  156DOPC   H2Y18734   3.133   0.666  17.017 -0.2504 -0.1974  3.0763
  156DOPC   C2318735   2.684   0.753  17.249  0.0962  0.0591 -0.4261
  156DOPC   H3R18736   2.734   0.850  17.267 -2.4763  1.5983 -1.1020
  156DOPC   H3S18737   2.573   0.760  17.252  0.0609 -0.6364  0.1335
  156DOPC   C2418738   2.737   0.697  17.112 -0.2849 -0.9834 -0.9895
  156DOPC   H4R18739   2.847   0.682  17.107 -0.3671 -2.7958  1.1965
  156DOPC   H4S18740   2.727   0.780  17.039 -3.0627  0.2127  0.6081
  156DOPC   C2518741   2.674   0.560  17.075  0.0003 -0.2583  0.0975
  156DOPC   H5R18742   2.566   0.565  17.103 -0.1619 -2.0653 -0.0819
  156DOPC   H5S18743   2.717   0.482  17.142 -0.5285 -0.4256  0.2478
  156DOPC   C2618744   2.696   0.513  16.938 -0.0933  0.1535 -1.4327
  156DOPC   H6R18745   2.670   0.405  16.929  1.5885 -0.2779 -1.4068
  156DOPC   H6S18746   2.801   0.521  16.904 -0.9103 -0.6142 -4.4042
  156DOPC   C2718747   2.605   0.590  16.840 -0.3952 -0.5555 -0.4204
  156DOPC   H7R18748   2.641   0.695  16.838  0.4446 -0.7941  1.0151
  156DOPC   H7S18749   2.500   0.590  16.876  0.0195  0.8983  0.8649
  156DOPC   C2818750   2.613   0.522  16.706 -0.2651  0.5145  0.2082
  156DOPC   H8R18751   2.718   0.505  16.674 -0.0875  1.8518  0.0165
  156DOPC   H8S18752   2.564   0.594  16.637 -1.1225 -1.1115 -0.9296
  156DOPC   C2918753   2.530   0.391  16.694 -0.7871  0.0780 -0.0764
  156DOPC   H9R18754   2.527   0.328  16.784 -0.1981 -1.4462 -1.0993
  156DOPC  C21018755   2.454   0.342  16.591 -0.7857 -0.4113  0.1696
  156DOPC  H10R18756   2.407   0.243  16.597  0.0818 -0.8389  0.1044
  156DOPC  C21118757   2.428   0.398  16.457  0.2908 -0.2232 -0.1982
  156DOPC  H11R18758   2.508   0.469  16.429  0.6738 -0.6430 -0.1741
  156DOPC  H11S18759   2.335   0.459  16.457 -0.3004 -1.1196 -0.2499
  156DOPC  C21218760   2.407   0.282  16.353 -0.5142 -0.2136 -0.4744
  156DOPC  H12R18761   2.323   0.216  16.384 -0.1332 -0.5534 -0.1603
  156DOPC  H12S18762   2.498   0.219  16.357 -0.8366 -0.7976  4.5420
  156DOPC  C21318763   2.383   0.344  16.208 -0.2937 -0.2708 -0.2262
  156DOPC  H13R18764   2.428   0.445  16.201  2.2821 -1.3800 -1.1480
  156DOPC  H13S18765   2.276   0.361  16.183  0.5189  2.0007 -2.6451
  156DOPC  C21418766   2.432   0.252  16.090 -0.2362  0.2872 -0.0011
  156DOPC  H14R18767   2.515   0.189  16.125  0.3611  0.0788 -1.7079
  156DOPC  H14S18768   2.463   0.317  16.005 -1.6990 -2.7856 -3.1444
  156DOPC  C21518769   2.316   0.153  16.041 -0.4249 -0.0875  0.3272
  156DOPC  H15R18770   2.212   0.190  16.042 -0.7317 -0.4019 -3.7000
  156DOPC  H15S18771   2.325   0.066  16.109  0.7268 -0.1992  0.0536
  156DOPC  C21618772   2.345   0.110  15.898 -0.2183 -0.4591  0.5500
  156DOPC  H16R18773   2.265   0.040  15.868 -1.1445  0.3859  0.9807
  156DOPC  H16S18774   2.448   0.067  15.903  0.7497  1.8047  1.6025
  156DOPC  C21718775   2.328   0.213  15.791 -0.4878 -0.1349  0.3018
  156DOPC  H17R18776   2.335   0.149  15.700 -0.7164  1.0796 -0.5994
  156DOPC  H17S18777   2.419   0.278  15.789  0.3027 -1.2284 -1.2710
  156DOPC  C21818778   2.190   0.277  15.777 -0.0413  0.6180  0.1461
  156DOPC  H18R18779   2.196   0.349  15.693  1.2600  0.2929 -0.0658
  156DOPC  H18S18780   2.161   0.331  15.869  0.3051  3.5101 -1.3367
  156DOPC  H18T18781   2.112   0.201  15.753 -1.8720  2.1327  1.0754
  156DOPC   C3318782   3.213   0.488  16.892  0.0621 -0.0633  1.1764
  156DOPC   H3X18783   3.218   0.378  16.907  1.2878  0.1025  2.1770
  156DOPC   H3Y18784   3.316   0.529  16.903 -1.1519  2.7921  3.0016
  156DOPC   C3418785   3.153   0.522  16.759  0.0839  0.1458  0.0549
  156DOPC   H4X18786   3.145   0.632  16.744  1.3947  0.3634  0.8344
  156DOPC   H4Y18787   3.048   0.485  16.747  0.7113 -1.4501 -0.7977
  156DOPC   C3518788   3.224   0.447  16.638  0.3005  0.6442 -0.1973
  156DOPC   H5X18789   3.212   0.340  16.664  2.4091  1.1129  3.4916
  156DOPC   H5Y18790   3.333   0.470  16.644  0.3548  0.6313 -0.9835
  156DOPC   C3618791   3.167   0.471  16.499  0.6978 -0.2047  0.5132
  156DOPC   H6X18792   3.068   0.420  16.502 -0.1002  1.1542 -1.0349
  156DOPC   H6Y18793   3.165   0.580  16.479  1.0739 -0.4970 -1.2418
  156DOPC   C3718794   3.240   0.401  16.384  0.5442 -0.3934  0.0865
  156DOPC   H7X18795   3.341   0.449  16.386 -0.5186  1.9697  0.7034
  156DOPC   H7Y18796   3.239   0.290  16.391 -1.5043 -0.3085  2.3748
  156DOPC   C3818797   3.169   0.447  16.258 -0.0894 -0.0334  0.3892
  156DOPC   H8X18798   3.174   0.558  16.255  0.9560 -0.1028 -1.3540
  156DOPC   H8Y18799   3.062   0.418  16.245 -0.2613  1.1488 -1.0013
  156DOPC   C3918800   3.244   0.388  16.140  0.0992 -0.2204 -0.4321
  156DOPC   H9X18801   3.218   0.287  16.106  1.2174 -0.9726  0.8535
  156DOPC  C31018802   3.313   0.455  16.045 -0.4427  0.4096 -0.2285
  156DOPC  H10X18803   3.334   0.404  15.950 -2.2151  2.2665 -1.7207
  156DOPC  C31118804   3.362   0.596  16.052  0.0638 -0.3913  0.2430
  156DOPC  H11X18805   3.468   0.600  16.020 -0.8867 -0.6094 -3.4711
  156DOPC  H11Y18806   3.362   0.635  16.156 -1.2769  2.3919 -0.6871
  156DOPC  C31218807   3.282   0.698  15.966  0.3283 -0.4737  0.3425
  156DOPC  H12X18808   3.331   0.798  15.969  1.1617 -0.8891  1.1483
  156DOPC  H12Y18809   3.182   0.717  16.012  1.6678  2.4181  2.4135
  156DOPC  C31318810   3.273   0.662  15.821 -0.3150  0.2623  0.2546
  156DOPC  H13X18811   3.381   0.648  15.799  0.1558  0.7870  2.0224
  156DOPC  H13Y18812   3.218   0.566  15.811 -1.7052  1.0256  0.3306
  156DOPC  C31418813   3.211   0.767  15.722  0.1668 -0.3249 -0.7610
  156DOPC  H14X18814   3.104   0.757  15.697 -0.8504  3.2468  1.4746
  156DOPC  H14Y18815   3.229   0.868  15.765 -1.4275  0.1959 -1.2687
  156DOPC  C31518816   3.282   0.771  15.586 -0.3321  0.8540 -0.3629
  156DOPC  H15X18817   3.280   0.672  15.536  0.0687  1.2498 -1.1761
  156DOPC  H15Y18818   3.389   0.782  15.614 -0.3479 -1.3601  0.8666
  156DOPC  C31618819   3.232   0.874  15.498  0.5192 -0.0816 -0.0075
  156DOPC  H16X18820   3.124   0.856  15.481  0.8768 -0.0114 -2.8648
  156DOPC  H16Y18821   3.231   0.972  15.551 -1.7502  0.0394 -0.2027
  156DOPC  C31718822   3.300   0.874  15.360  0.5381 -0.2763  0.2645
  156DOPC  H17X18823   3.408   0.881  15.385  0.4866  1.6169  0.1327
  156DOPC  H17Y18824   3.284   0.770  15.324  0.8904  0.3475 -1.8538
  156DOPC  C31818825   3.242   0.985  15.267 -0.7801 -0.8876 -0.1969
  156DOPC  H18X18826   3.139   0.960  15.236 -1.3713  1.2601 -0.0970
  156DOPC  H18Y18827   3.232   1.079  15.326 -2.6395 -2.1791  1.7373
  156DOPC  H18Z18828   3.297   1.006  15.173  0.3588  1.6842  0.9330
  157DOPC     N18829   2.116   5.383  17.988 -0.0238 -0.2188 -0.5391
  157DOPC   C1218830   2.068   5.339  17.851 -0.2011 -0.8620 -0.0408
  157DOPC  H12A18831   2.126   5.255  17.815  0.2295 -0.2952 -0.6932
  157DOPC  H12B18832   2.082   5.422  17.784 -0.6561 -0.3183  0.5358
  157DOPC   C1318833   2.088   5.273  18.087  0.7310  0.1584  0.6960
  157DOPC  H13A18834   2.018   5.201  18.047  0.4347  0.8431 -0.0459
  157DOPC  H13B18835   2.181   5.224  18.110  0.1888 -0.6513  1.2058
  157DOPC  H13C18836   2.051   5.317  18.178 -0.4411  0.2363  0.1973
  157DOPC   C1418837   2.049   5.508  18.041  0.0902 -0.0330 -0.0778
  157DOPC  H14A18838   2.023   5.586  17.971  0.0868 -0.7508 -0.8998
  157DOPC  H14B18839   1.951   5.489  18.082 -1.1493  1.8338 -1.9743
  157DOPC  H14C18840   2.118   5.547  18.114 -0.4148  0.0205  0.3746
  157DOPC   C1518841   2.265   5.403  17.988  0.2046  0.7318 -0.5664
  157DOPC  H15A18842   2.319   5.312  17.967  0.7051  0.4390  1.7057
  157DOPC  H15B18843   2.296   5.437  18.086  4.1409  0.4492 -1.5853
  157DOPC  H15C18844   2.288   5.482  17.918 -0.8066  1.9590  0.4349
  157DOPC   C1118845   1.921   5.296  17.836  0.0279 -0.0618 -0.1160
  157DOPC  H11A18846   1.852   5.357  17.898  1.3646 -1.0235  2.4655
  157DOPC  H11B18847   1.886   5.312  17.732 -0.3859  1.9779  0.2970
  157DOPC     P18848   1.772   5.084  17.888 -0.1759 -0.4147 -0.0349
  157DOPC   O1318849   1.674   5.164  17.965 -0.5444  0.3875 -0.3340
  157DOPC   O1418850   1.791   4.944  17.936 -0.0521 -0.1489 -0.0539
  157DOPC   O1218851   1.914   5.160  17.883 -0.2050  0.6903 -0.1370
  157DOPC   O1118852   1.723   5.083  17.737 -0.4926  0.6070  0.2063
  157DOPC    C118853   1.815   5.027  17.643  0.3030 -0.3595 -0.1342
  157DOPC    HA18854   1.801   4.917  17.646 -2.1620 -0.0889  1.2357
  157DOPC    HB18855   1.918   5.060  17.666 -0.6281  3.1941 -0.4443
  157DOPC    C218856   1.772   5.072  17.503  0.2692  0.0889  0.2047
  157DOPC    HS18857   1.677   5.018  17.481  0.5995 -0.0954 -0.8637
  157DOPC   O2118858   1.873   5.045  17.403  0.0795 -0.1788 -0.1127
  157DOPC   C2118859   1.891   4.922  17.373 -0.3420  0.1894 -0.3627
  157DOPC   O2218860   1.832   4.826  17.421 -0.5238 -0.0420 -1.1814
  157DOPC   C2218861   1.980   4.919  17.245 -0.0327  0.2689 -0.2508
  157DOPC   H2R18862   1.989   4.809  17.231 -2.0242 -0.1184  1.1244
  157DOPC   H2S18863   2.073   4.968  17.281 -1.1737  1.7344  0.8148
  157DOPC    C318864   1.742   5.224  17.500 -0.0826  0.2989 -0.3513
  157DOPC    HX18865   1.834   5.279  17.529 -1.6262  2.2973  1.0143
  157DOPC    HY18866   1.657   5.243  17.569 -0.5365 -0.3369 -0.7240
  157DOPC   O3118867   1.716   5.273  17.364  0.0666  0.1630 -0.4754
  157DOPC   C3118868   1.589   5.247  17.330  0.5743  0.1892  0.4091
  157DOPC   O3218869   1.498   5.191  17.392  0.3131  0.2507 -0.0986
  157DOPC   C3218870   1.573   5.300  17.188 -0.4094 -0.7064  0.2219
  157DOPC   H2X18871   1.631   5.394  17.179  1.5952 -1.8545  0.6249
  157DOPC   H2Y18872   1.621   5.226  17.120  0.2412  0.8983 -1.1027
  157DOPC   C2318873   1.911   4.988  17.123 -0.3250 -0.5905 -0.4299
  157DOPC   H3R18874   1.908   5.099  17.132 -1.4431 -0.7619  2.3380
  157DOPC   H3S18875   1.806   4.953  17.114 -0.1774 -1.3111  0.5369
  157DOPC   C2418876   1.987   4.959  16.991  0.1422 -0.0028  0.1875
  157DOPC   H4R18877   2.012   4.851  16.986 -1.2849 -0.4770  2.1805
  157DOPC   H4S18878   2.082   5.015  16.995  0.2333 -0.2047  0.9141
  157DOPC   C2518879   1.900   5.000  16.870 -0.1031  0.4278  0.4216
  157DOPC   H5R18880   1.877   5.108  16.886 -1.3638  0.1999  0.2967
  157DOPC   H5S18881   1.811   4.933  16.873  0.6674 -0.8767 -2.3158
  157DOPC   C2618882   1.951   4.986  16.721  0.3278 -0.2824 -0.6362
  157DOPC   H6R18883   1.986   4.882  16.703  0.0960 -0.1793 -1.7951
  157DOPC   H6S18884   2.049   5.040  16.727  0.3075 -0.2604 -0.4986
  157DOPC   C2718885   1.846   5.033  16.618 -0.4134 -0.0065 -0.3830
  157DOPC   H7R18886   1.825   5.141  16.634 -1.7454 -0.3256  0.2369
  157DOPC   H7S18887   1.747   4.988  16.643  0.1647 -0.3572  1.4500
  157DOPC   C2818888   1.881   5.019  16.466  0.1827 -0.1949 -0.5393
  157DOPC   H8R18889   1.785   5.026  16.410 -0.2196  0.3230  0.1937
  157DOPC   H8S18890   1.912   4.912  16.462  0.2168 -0.1894 -0.4076
  157DOPC   C2918891   1.988   5.117  16.431 -0.1151 -0.8003 -0.2652
  157DOPC   H9R18892   2.080   5.110  16.491  0.0959  0.2712 -0.4362
  157DOPC  C21018893   1.986   5.205  16.330  0.5087 -0.6046  0.0441
  157DOPC  H10R18894   2.079   5.262  16.314  0.5925 -1.2120 -1.8513
  157DOPC  C21118895   1.873   5.224  16.233  0.6286 -0.5128 -0.1291
  157DOPC  H11R18896   1.862   5.332  16.209 -0.0389 -0.7736 -1.0623
  157DOPC  H11S18897   1.774   5.184  16.264  0.3777 -0.7514 -1.2027
  157DOPC  C21218898   1.902   5.159  16.098  0.5935 -0.1616 -0.2203
  157DOPC  H12R18899   2.001   5.178  16.053  0.3502 -0.3281 -0.8475
  157DOPC  H12S18900   1.826   5.204  16.030  0.0658  0.6213  0.8522
  157DOPC  C21318901   1.875   5.004  16.107  0.6416  0.6129  0.5773
  157DOPC  H13R18902   1.772   4.999  16.147  0.0977 -1.0576 -0.8988
  157DOPC  H13S18903   1.940   4.962  16.186 -0.0702  0.7407  1.2385
  157DOPC  C21418904   1.890   4.912  15.988 -0.1947  0.4929  0.4199
  157DOPC  H14R18905   1.833   4.823  16.023  0.6824  0.2544  1.2946
  157DOPC  H14S18906   1.996   4.887  15.965  0.1942  0.5967  2.0006
  157DOPC  C21518907   1.827   4.956  15.858  0.4763 -0.2157 -0.0733
  157DOPC  H15R18908   1.886   5.040  15.814  1.1869 -2.0209 -2.9031
  157DOPC  H15S18909   1.721   4.986  15.865  0.6361  1.8388 -3.7991
  157DOPC  C21618910   1.850   4.851  15.746  0.0879  0.2347  0.3156
  157DOPC  H16R18911   1.812   4.751  15.778  1.8038 -0.5004  0.1595
  157DOPC  H16S18912   1.961   4.842  15.737  0.5822  2.4970  2.8548
  157DOPC  C21718913   1.772   4.881  15.612 -0.9547  0.2175 -0.3901
  157DOPC  H17R18914   1.673   4.930  15.626 -1.7883 -0.6065 -2.8004
  157DOPC  H17S18915   1.745   4.785  15.563 -0.9040 -0.8837  1.6225
  157DOPC  C21818916   1.862   4.955  15.505  0.1764  0.6408  0.0655
  157DOPC  H18R18917   1.969   4.927  15.508  0.3614  1.2023 -0.9561
  157DOPC  H18S18918   1.862   5.064  15.530  0.6164  0.6263  0.1404
  157DOPC  H18T18919   1.825   4.950  15.401 -1.0876 -0.5962  0.5415
  157DOPC   C3318920   1.422   5.310  17.151 -0.2466 -0.3844 -0.4071
  157DOPC   H3X18921   1.367   5.372  17.225 -0.9064 -0.3299 -0.9264
  157DOPC   H3Y18922   1.385   5.205  17.148  1.5950 -1.0469 -2.0891
  157DOPC   C3418923   1.404   5.377  17.011 -0.3461  0.0293 -0.6611
  157DOPC   H4X18924   1.457   5.475  17.004 -0.0994 -0.1635 -1.8735
  157DOPC   H4Y18925   1.299   5.408  16.992 -0.9846 -1.5690  0.1111
  157DOPC   C3518926   1.444   5.293  16.889 -0.8429  1.1400  0.0117
  157DOPC   H5X18927   1.383   5.201  16.878 -0.8032  1.0018  0.8714
  157DOPC   H5Y18928   1.550   5.258  16.892 -0.7103  1.2953 -1.8957
  157DOPC   C3618929   1.419   5.372  16.759  0.5396  0.5159 -0.2274
  157DOPC   H6X18930   1.310   5.396  16.758  0.6498  1.0023 -0.4151
  157DOPC   H6Y18931   1.468   5.471  16.757 -1.8370  1.8345  1.1031
  157DOPC   C3718932   1.447   5.278  16.643 -0.6702 -0.1925  0.5170
  157DOPC   H7X18933   1.492   5.191  16.694 -0.9580  0.2208  1.4869
  157DOPC   H7Y18934   1.354   5.228  16.608 -0.4141  0.2956 -0.9558
  157DOPC   C3818935   1.529   5.330  16.523 -0.3960  0.9098 -0.5981
  157DOPC   H8X18936   1.529   5.239  16.459 -2.4009  0.5564 -0.1648
  157DOPC   H8Y18937   1.633   5.361  16.548 -1.0982  2.8169  0.1603
  157DOPC   C3918938   1.449   5.450  16.458  0.1060  0.7128  0.1230
  157DOPC   H9X18939   1.365   5.474  16.526 -0.9354 -1.5433 -0.2684
  157DOPC  C31018940   1.471   5.515  16.346 -0.5301 -0.1032  0.8111
  157DOPC  H10X18941   1.396   5.590  16.318  1.8258  2.0027 -0.2104
  157DOPC  C31118942   1.582   5.493  16.244 -0.4681 -0.3441  0.5374
  157DOPC  H11X18943   1.667   5.435  16.286 -0.6874 -2.9225 -2.1942
  157DOPC  H11Y18944   1.616   5.595  16.217 -2.5787  0.2018 -0.2701
  157DOPC  C31218945   1.537   5.425  16.113  0.1295 -0.0311  0.7900
  157DOPC  H12X18946   1.500   5.321  16.129 -0.8826  0.5148  2.2150
  157DOPC  H12Y18947   1.629   5.417  16.051 -0.9542  0.1069 -0.9002
  157DOPC  C31318948   1.432   5.515  16.041 -0.0178 -0.1081  0.6833
  157DOPC  H13X18949   1.334   5.493  16.089 -0.7600 -2.4546 -1.6577
  157DOPC  H13Y18950   1.457   5.623  16.047 -0.4906  0.2307 -1.8924
  157DOPC  C31418951   1.402   5.466  15.898  0.1573  0.0251  0.7928
  157DOPC  H14X18952   1.496   5.466  15.839  1.4833 -1.7160  2.7924
  157DOPC  H14Y18953   1.366   5.361  15.888  0.0892  0.2207 -1.8810
  157DOPC  C31518954   1.312   5.572  15.832 -0.7386  0.2958 -0.1935
  157DOPC  H15X18955   1.366   5.664  15.798  1.2716 -1.1011 -0.9817
  157DOPC  H15Y18956   1.223   5.605  15.889  0.3813  1.6039  0.8884
  157DOPC  C31618957   1.253   5.510  15.703  0.0859  0.6323  0.4160
  157DOPC  H16X18958   1.337   5.480  15.637  1.9523 -0.4908  3.1383
  157DOPC  H16Y18959   1.209   5.410  15.721 -0.4924  1.4470  4.5124
  157DOPC  C31718960   1.155   5.609  15.634 -0.1122 -0.1978  0.0813
  157DOPC  H17X18961   1.094   5.541  15.570  0.2327 -1.2868  0.8805
  157DOPC  H17Y18962   1.091   5.657  15.710  0.0067  0.3023 -0.1328
  157DOPC  C31818963   1.211   5.727  15.553  0.2308 -0.6385 -0.1547
  157DOPC  H18X18964   1.293   5.789  15.595  0.7417 -0.7048 -1.0070
  157DOPC  H18Y18965   1.254   5.695  15.455  0.9892 -2.7832  0.8242
  157DOPC  H18Z18966   1.135   5.803  15.525 -1.3282 -1.3084  2.0356
  158DOPC     N18967   0.824   1.204  17.929  0.4017  0.0091  0.4789
  158DOPC   C1218968   0.913   1.186  17.811  0.0745  0.7464 -0.3533
  158DOPC  H12A18969   1.015   1.197  17.843  1.2852  0.8541 -3.8565
  158DOPC  H12B18970   0.916   1.272  17.746  4.0761  1.6961  0.8207
  158DOPC   C1318971   0.681   1.235  17.884 -0.1277 -0.0626 -0.3488
  158DOPC  H13A18972   0.616   1.214  17.968 -0.2225 -1.6976 -0.8021
  158DOPC  H13B18973   0.663   1.339  17.860 -2.9779 -0.1839  0.8089
  158DOPC  H13C18974   0.652   1.165  17.808 -0.2324 -1.4631  0.9374
  158DOPC   C1418975   0.855   1.319  18.016 -0.0681 -0.1435  0.5948
  158DOPC  H14A18976   0.833   1.414  17.969  3.0047 -0.0630 -0.9390
  158DOPC  H14B18977   0.793   1.321  18.104  0.9089 -0.9567  1.3279
  158DOPC  H14C18978   0.961   1.332  18.034  0.5932 -2.8577 -0.8735
  158DOPC   C1518979   0.824   1.081  18.011 -0.8642  0.9529 -0.0943
  158DOPC  H15A18980   0.927   1.049  18.022 -1.7702 -2.4339 -0.2942
  158DOPC  H15B18981   0.788   0.994  17.959 -0.5152  0.0133  1.1747
  158DOPC  H15C18982   0.778   1.082  18.109  1.4152 -4.0697  1.3576
  158DOPC   C1118983   0.893   1.053  17.728  0.1710 -1.2591 -0.4705
  158DOPC  H11A18984   0.783   1.036  17.735 -0.4918  2.5408  0.2620
  158DOPC  H11B18985   0.929   1.074  17.625  1.8427  4.7017  0.9408
  158DOPC     P18986   1.126   0.965  17.797 -0.1350  0.1380  0.1332
  158DOPC   O1318987   1.164   0.932  17.936  0.3759 -0.1117  0.0694
  158DOPC   O1418988   1.159   1.098  17.738  0.6001 -0.1909 -0.1648
  158DOPC   O1218989   0.971   0.950  17.785 -0.1029 -0.1661  0.4580
  158DOPC   O1118990   1.171   0.850  17.704 -0.0636 -0.0657 -0.3698
  158DOPC    C118991   1.233   0.872  17.581 -0.2898  0.6786  0.1699
  158DOPC    HA18992   1.301   0.785  17.566 -0.1355  0.7944  0.1959
  158DOPC    HB18993   1.309   0.952  17.588 -0.2861  0.6585  0.3562
  158DOPC    C218994   1.130   0.887  17.475  0.2294 -0.2289  0.5148
  158DOPC    HS18995   1.072   0.981  17.490  1.8733  1.1111 -0.9673
  158DOPC   O2118996   1.037   0.772  17.478  0.7265  0.6061  0.0357
  158DOPC   C2118997   0.914   0.793  17.461 -0.4970 -0.8031 -0.2448
  158DOPC   O2218998   0.865   0.908  17.437  0.9367  0.1684 -0.1628
  158DOPC   C2218999   0.828   0.665  17.486  0.4712 -0.3049 -0.1565
  158DOPC   H2R19000   0.728   0.691  17.446  0.6348  0.0585 -0.3352
  158DOPC   H2S19001   0.821   0.630  17.591  0.6497  0.7214  0.2115
  158DOPC    C319002   1.193   0.901  17.326  0.3787 -0.0697  0.1581
  158DOPC    HX19003   1.226   0.802  17.288 -1.2712 -0.6729  0.2124
  158DOPC    HY19004   1.290   0.956  17.330  1.3971 -1.7046 -0.9848
  158DOPC   O3119005   1.099   0.953  17.226 -0.4797  0.4616  0.8161
  158DOPC   C3119006   1.075   1.083  17.224 -0.2430  0.4837 -0.4734
  158DOPC   O3219007   1.138   1.161  17.292 -0.3748  0.3021 -0.3130
  158DOPC   C3219008   0.978   1.117  17.103 -0.1314  0.2416  0.0696
  158DOPC   H2X19009   0.959   1.017  17.059  0.9599  0.4046 -0.8343
  158DOPC   H2Y19010   0.886   1.170  17.135  0.3385  1.5497 -0.6414
  158DOPC   C2319011   0.883   0.541  17.412  0.6045 -0.1327  0.6031
  158DOPC   H3R19012   0.797   0.472  17.407  0.2554  0.2877  0.6964
  158DOPC   H3S19013   0.959   0.482  17.466 -0.2127 -0.4499  1.4186
  158DOPC   C2419014   0.922   0.563  17.265  0.2999 -0.1217  0.3776
  158DOPC   H4R19015   0.953   0.466  17.219 -2.0636 -0.6028 -0.3290
  158DOPC   H4S19016   1.007   0.635  17.261  0.0144  0.2690  1.2141
  158DOPC   C2519017   0.805   0.614  17.174 -0.6380  0.0622 -0.1958
  158DOPC   H5R19018   0.790   0.720  17.207  3.4711  1.1721 -1.3755
  158DOPC   H5S19019   0.721   0.546  17.200 -0.7088 -0.5982 -2.0049
  158DOPC   C2619020   0.841   0.603  17.028 -0.4030 -0.0411  0.4624
  158DOPC   H6R19021   0.754   0.631  16.965  2.0202  1.5332 -2.4754
  158DOPC   H6S19022   0.877   0.501  17.005 -1.5333 -0.7730  1.7890
  158DOPC   C2719023   0.949   0.713  16.997  0.5789  0.0567 -0.1248
  158DOPC   H7R19024   1.039   0.697  17.061  0.4184  0.9655  0.3383
  158DOPC   H7S19025   0.904   0.811  17.019  1.3767  0.1556  1.1888
  158DOPC   C2819026   1.006   0.705  16.853  0.2230  0.5363  0.3292
  158DOPC   H8R19027   1.064   0.799  16.845 -0.9888  1.4579  1.7443
  158DOPC   H8S19028   0.926   0.713  16.776 -1.4541 -0.5004  1.8823
  158DOPC   C2919029   1.098   0.595  16.824 -0.7448  0.2769 -0.0661
  158DOPC   H9R19030   1.188   0.591  16.886  0.4044 -2.0037 -1.7028
  158DOPC  C21019031   1.072   0.491  16.736  0.3488 -0.1389  0.0652
  158DOPC  H10R19032   1.142   0.406  16.740  0.0682 -0.4197 -0.7658
  158DOPC  C21119033   0.943   0.459  16.655  0.2101  0.2314  0.1208
  158DOPC  H11R19034   0.864   0.511  16.713 -0.7881 -0.7104 -0.3585
  158DOPC  H11S19035   0.914   0.352  16.666 -1.3837  0.7798  1.6898
  158DOPC  C21219036   0.935   0.497  16.506 -0.5485  0.7853 -0.6097
  158DOPC  H12R19037   0.935   0.608  16.495  0.6397  1.0349  1.5018
  158DOPC  H12S19038   0.842   0.453  16.463 -0.1703 -0.6501 -0.0034
  158DOPC  C21319039   1.056   0.449  16.427 -0.0071 -0.1931 -0.3726
  158DOPC  H13R19040   1.091   0.346  16.451  1.4067  0.8646  2.6070
  158DOPC  H13S19041   1.144   0.501  16.472  1.0816 -2.2298 -0.0142
  158DOPC  C21419042   1.053   0.487  16.275  0.3322  0.7251  0.0520
  158DOPC  H14R19043   1.160   0.498  16.247  0.7566 -0.2519  1.1804
  158DOPC  H14S19044   0.995   0.581  16.261  0.3031  0.5703 -0.8934
  158DOPC  C21519045   0.994   0.373  16.191 -0.1099  0.7074  0.4080
  158DOPC  H15R19046   0.887   0.350  16.212 -0.1586  0.0359 -0.5225
  158DOPC  H15S19047   1.043   0.275  16.206 -0.2214  0.2782 -1.7608
  158DOPC  C21619048   1.015   0.400  16.041  0.2788  0.3056 -0.3758
  158DOPC  H16R19049   0.980   0.315  15.979  0.0910 -0.9610  1.3614
  158DOPC  H16S19050   1.124   0.402  16.021  0.6455  1.9031  1.5099
  158DOPC  C21719051   0.966   0.535  15.993 -0.2234 -0.3530 -0.2072
  158DOPC  H17R19052   1.000   0.619  16.057  0.7482  0.3320 -1.5788
  158DOPC  H17S19053   0.856   0.540  16.010  0.1196  1.5879  2.0703
  158DOPC  C21819054   1.004   0.570  15.848  0.3976 -0.2575 -0.2474
  158DOPC  H18R19055   0.945   0.511  15.776 -0.5700  0.5124 -0.0922
  158DOPC  H18S19056   1.113   0.549  15.835 -0.0604 -2.9505 -0.2541
  158DOPC  H18T19057   0.989   0.673  15.811  1.0147 -0.8269 -2.2248
  158DOPC   C3319058   1.048   1.196  16.995 -0.5467 -0.2924 -0.2274
  158DOPC   H3X19059   1.122   1.269  17.035 -2.4026  1.8879 -0.5772
  158DOPC   H3Y19060   0.980   1.258  16.933 -0.0090  1.1438  0.5744
  158DOPC   C3419061   1.112   1.107  16.886 -0.1574 -0.0895 -0.9143
  158DOPC   H4X19062   1.042   1.029  16.850 -0.2504  0.1316 -1.2181
  158DOPC   H4Y19063   1.195   1.055  16.939  0.1530 -0.0828 -1.3790
  158DOPC   C3519064   1.168   1.182  16.761  0.0296 -0.1030  0.7238
  158DOPC   H5X19065   1.265   1.130  16.747 -0.1304 -1.2298  3.2876
  158DOPC   H5Y19066   1.187   1.288  16.788  2.3461 -0.2964  0.0295
  158DOPC   C3619067   1.073   1.176  16.643 -0.4863  0.1002  0.1599
  158DOPC   H6X19068   1.033   1.075  16.618 -0.4999  0.3326 -0.8092
  158DOPC   H6Y19069   0.979   1.231  16.662 -2.2874 -2.3906 -0.9052
  158DOPC   C3719070   1.133   1.243  16.519 -0.1781 -0.4377  0.2429
  158DOPC   H7X19071   1.139   1.354  16.522 -0.6201 -0.3789 -0.6661
  158DOPC   H7Y19072   1.235   1.203  16.510  0.0105 -0.9803  3.5290
  158DOPC   C3819073   1.063   1.218  16.387 -0.0419 -0.5977 -0.1290
  158DOPC   H8X19074   0.959   1.257  16.396  0.7548  1.1859  2.3875
  158DOPC   H8Y19075   1.064   1.110  16.360  1.2980 -0.0666 -2.5692
  158DOPC   C3919076   1.140   1.275  16.273 -0.1934  0.4825  0.1411
  158DOPC   H9X19077   1.227   1.330  16.310  1.0162 -0.9395 -0.4621
  158DOPC  C31019078   1.103   1.289  16.142  0.2238  0.2612  0.5924
  158DOPC  H10X19079   1.173   1.346  16.079  0.3703  2.2117  2.3954
  158DOPC  C31119080   0.968   1.244  16.095 -0.4084  0.1291 -0.4324
  158DOPC  H11X19081   0.883   1.297  16.144 -0.8727 -0.4063 -0.6517
  158DOPC  H11Y19082   0.951   1.137  16.118 -2.5099  0.2112 -1.3265
  158DOPC  C31219083   0.941   1.262  15.941 -0.1721 -0.3251  0.1418
  158DOPC  H12X19084   0.971   1.364  15.911  0.4412 -0.7501 -0.7403
  158DOPC  H12Y19085   0.832   1.256  15.922 -0.0610 -0.3020 -0.5075
  158DOPC  C31319086   1.007   1.144  15.867  0.0095  0.6670  0.1997
  158DOPC  H13X19087   1.117   1.159  15.861  0.5150 -1.3825  2.5634
  158DOPC  H13Y19088   0.992   1.058  15.936  0.7135  1.4689  1.3832
  158DOPC  C31419089   0.946   1.132  15.724 -0.0230 -0.7691  0.3639
  158DOPC  H14X19090   0.970   1.032  15.682 -1.1600 -1.0125  0.2513
  158DOPC  H14Y19091   0.835   1.132  15.719 -0.0159 -1.5353  0.0618
  158DOPC  C31519092   0.993   1.242  15.635  0.0488 -0.5423 -0.5990
  158DOPC  H15X19093   1.104   1.254  15.641 -0.1516  0.8606  1.3910
  158DOPC  H15Y19094   0.949   1.334  15.679 -3.0027 -2.4539  0.6242
  158DOPC  C31619095   0.951   1.225  15.495 -0.3921 -0.1273 -0.5860
  158DOPC  H16X19096   1.009   1.134  15.470  1.8182  1.1233 -0.2727
  158DOPC  H16Y19097   0.843   1.199  15.485 -1.1018  1.3658  2.1868
  158DOPC  C31719098   0.967   1.337  15.400  0.4699 -0.6715 -0.7269
  158DOPC  H17X19099   0.908   1.346  15.306 -0.7668 -0.4260  0.0536
  158DOPC  H17Y19100   0.916   1.420  15.453 -1.4349 -1.9636 -0.4558
  158DOPC  C31819101   1.112   1.380  15.369 -0.4449 -0.4936  0.7234
  158DOPC  H18X19102   1.106   1.477  15.315 -1.3973 -0.2673  1.1945
  158DOPC  H18Y19103   1.175   1.401  15.458 -0.4490 -2.2127  1.1753
  158DOPC  H18Z19104   1.154   1.308  15.296 -1.3642  0.4496 -0.7965
  159DOPC     N19105   1.940   4.592  17.719 -0.1118 -0.1566  0.3175
  159DOPC   C1219106   2.019   4.522  17.832  0.1614 -0.1739 -0.6366
  159DOPC  H12A19107   2.068   4.597  17.893  2.3708 -0.7492 -1.5973
  159DOPC  H12B19108   2.102   4.470  17.787 -0.9931 -1.5884 -1.2051
  159DOPC   C1319109   1.868   4.495  17.636 -0.8783 -0.2109  0.0881
  159DOPC  H13A19110   1.937   4.432  17.582  0.6845  0.4645  1.2413
  159DOPC  H13B19111   1.811   4.438  17.707 -0.3303  0.5662  1.1777
  159DOPC  H13C19112   1.800   4.539  17.564 -0.6208 -0.3613 -0.2526
  159DOPC   C1419113   2.027   4.666  17.623 -0.3562  0.7116 -0.8613
  159DOPC  H14A19114   2.100   4.604  17.574 -1.0873  0.9000 -2.2447
  159DOPC  H14B19115   1.967   4.700  17.540  2.5008  2.1285 -2.5034
  159DOPC  H14C19116   2.089   4.741  17.670  0.2813 -0.2888 -0.0451
  159DOPC   C1519117   1.835   4.678  17.781 -0.4113 -0.4167 -0.0979
  159DOPC  H15A19118   1.770   4.729  17.711 -0.5424  1.5777  1.4030
  159DOPC  H15B19119   1.882   4.755  17.840 -2.9360  1.7553 -0.7441
  159DOPC  H15C19120   1.763   4.626  17.842 -0.8249 -0.3876 -0.5571
  159DOPC   C1119121   1.930   4.425  17.909  0.1750 -0.4517 -0.2747
  159DOPC  H11A19122   1.981   4.408  18.007  1.2798  2.8586 -0.1383
  159DOPC  H11B19123   1.836   4.471  17.947 -0.5551 -2.3590  0.3489
  159DOPC     P19124   2.001   4.196  17.794 -1.1057 -0.1509  0.2611
  159DOPC   O1319125   1.974   4.069  17.864  0.2645  0.0588  0.7074
  159DOPC   O1419126   2.141   4.243  17.786  0.1689  0.1201  0.2542
  159DOPC   O1219127   1.896   4.305  17.847  0.2327 -0.8996 -0.0286
  159DOPC   O1119128   1.948   4.183  17.649  0.5415 -0.5459 -0.2070
  159DOPC    C119129   1.806   4.186  17.627 -0.0119  0.0396 -0.5999
  159DOPC    HA19130   1.762   4.277  17.673 -0.6159 -0.2984 -0.5002
  159DOPC    HB19131   1.755   4.101  17.676 -0.3388  0.0061 -0.9955
  159DOPC    C219132   1.771   4.165  17.476 -0.2109  0.4958 -0.2921
  159DOPC    HS19133   1.849   4.090  17.451  1.3114  1.9136  0.0289
  159DOPC   O2119134   1.794   4.292  17.411 -0.4566  0.0191 -0.1934
  159DOPC   C2119135   1.844   4.271  17.288  0.5797 -0.5368  0.0222
  159DOPC   O2219136   1.877   4.166  17.239 -0.0362  0.3094 -0.4919
  159DOPC   C2219137   1.834   4.402  17.214  0.8145  0.4657  0.2685
  159DOPC   H2R19138   1.929   4.424  17.161 -0.0905  4.5046 -0.0276
  159DOPC   H2S19139   1.825   4.489  17.283  0.7422 -0.1175  1.0100
  159DOPC    C319140   1.622   4.136  17.463  0.4254 -0.5723  0.3129
  159DOPC    HX19141   1.572   4.219  17.516 -0.4734 -1.3915  0.7619
  159DOPC    HY19142   1.600   4.044  17.520  1.3666  0.2546  2.0838
  159DOPC   O3119143   1.588   4.125  17.327  0.1475 -0.2251  0.2238
  159DOPC   C3119144   1.581   4.006  17.264  0.3742 -0.2325 -0.5457
  159DOPC   O3219145   1.601   3.897  17.315  0.0322 -0.1352 -0.1005
  159DOPC   C3219146   1.537   4.034  17.123 -0.2977  0.5292 -0.4394
  159DOPC   H2X19147   1.431   4.063  17.112 -0.4970  0.1875  0.5172
  159DOPC   H2Y19148   1.604   4.108  17.073 -0.0435  0.5995  0.0010
  159DOPC   C2319149   1.722   4.414  17.105 -0.4735  0.0169 -0.0553
  159DOPC   H3R19150   1.622   4.400  17.150 -1.9687 -0.0078 -3.1594
  159DOPC   H3S19151   1.749   4.332  17.035  1.5698 -1.0194  1.7907
  159DOPC   C2419152   1.715   4.561  17.052 -0.0794  0.4585 -0.2880
  159DOPC   H4R19153   1.690   4.638  17.129  0.4357  1.5206 -1.1427
  159DOPC   H4S19154   1.624   4.563  16.990 -0.2459  0.0535 -0.0584
  159DOPC   C2519155   1.826   4.610  16.957  0.3107  0.0025  0.4118
  159DOPC   H5R19156   1.924   4.587  17.004  0.1281 -0.0350  0.7804
  159DOPC   H5S19157   1.810   4.719  16.941 -0.0721 -0.4574 -3.0849
  159DOPC   C2619158   1.837   4.538  16.817 -0.0368 -0.3213 -0.2786
  159DOPC   H6R19159   1.825   4.429  16.833 -2.1561  0.1075  1.5112
  159DOPC   H6S19160   1.939   4.559  16.777  0.6902 -0.3454  1.4881
  159DOPC   C2719161   1.734   4.589  16.715 -0.1020 -0.6626  0.0060
  159DOPC   H7R19162   1.732   4.700  16.704 -0.3401 -0.6288  0.3853
  159DOPC   H7S19163   1.634   4.557  16.750 -0.2742 -1.4921 -1.2031
  159DOPC   C2819164   1.738   4.524  16.580  0.1313 -0.1024  0.1923
  159DOPC   H8R19165   1.643   4.552  16.529 -1.6563 -0.7333  2.9546
  159DOPC   H8S19166   1.726   4.413  16.589 -1.5966 -0.0801 -1.1563
  159DOPC   C2919167   1.865   4.552  16.505 -0.6095  0.0578 -0.2188
  159DOPC   H9R19168   1.965   4.536  16.548  0.1968  1.5682 -1.4149
  159DOPC  C21019169   1.862   4.587  16.375  0.1558 -0.7650  0.0833
  159DOPC  H10R19170   1.961   4.602  16.330  0.6159 -0.3298  1.2037
  159DOPC  C21119171   1.739   4.600  16.281 -0.1694 -0.1539 -0.1320
  159DOPC  H11R19172   1.758   4.696  16.228  2.4539  0.1460  1.1775
  159DOPC  H11S19173   1.643   4.606  16.335 -0.3431  0.0639 -0.4631
  159DOPC  C21219174   1.722   4.489  16.166  0.5869  0.0678 -0.4237
  159DOPC  H12R19175   1.618   4.518  16.139 -0.3007 -2.0317  0.5144
  159DOPC  H12S19176   1.712   4.395  16.223 -2.0766  0.9937  0.8296
  159DOPC  C21319177   1.826   4.486  16.055  0.3943 -0.1600 -0.5673
  159DOPC  H13R19178   1.920   4.447  16.097 -0.4691 -1.7019 -0.0061
  159DOPC  H13S19179   1.834   4.593  16.025 -2.7590  0.3552 -0.0062
  159DOPC  C21419180   1.771   4.400  15.937 -0.1367 -0.4011  0.5637
  159DOPC  H14R19181   1.663   4.422  15.944  0.1269  2.0213 -1.4101
  159DOPC  H14S19182   1.779   4.292  15.964  0.8783 -0.4840  0.0122
  159DOPC  C21519183   1.855   4.426  15.815  0.4765 -0.0536 -0.7812
  159DOPC  H15R19184   1.960   4.401  15.842 -0.8465 -2.7151  2.8945
  159DOPC  H15S19185   1.851   4.532  15.783  0.7658  1.1491  2.6741
  159DOPC  C21619186   1.808   4.328  15.697 -0.3456  0.0400 -0.2790
  159DOPC  H16R19187   1.820   4.222  15.729 -2.6841  0.4008  2.1998
  159DOPC  H16S19188   1.876   4.356  15.614 -2.1624 -2.0322 -2.5981
  159DOPC  C21719189   1.669   4.351  15.648  0.7000 -0.0574 -0.2456
  159DOPC  H17R19190   1.668   4.323  15.540 -2.4263 -0.9929 -0.0666
  159DOPC  H17S19191   1.627   4.454  15.650 -2.3482 -1.2074 -0.3781
  159DOPC  C21819192   1.557   4.266  15.724 -0.0028  0.4424 -0.2168
  159DOPC  H18R19193   1.547   4.166  15.676 -0.9272  0.8467 -0.9049
  159DOPC  H18S19194   1.455   4.307  15.704 -0.6372 -1.4121 -1.0724
  159DOPC  H18T19195   1.576   4.256  15.832  0.5092  0.1945 -0.3278
  159DOPC   C3319196   1.545   3.895  17.052  0.1290  0.2252  0.3992
  159DOPC   H3X19197   1.457   3.837  17.087 -1.2316  2.5603  1.0737
  159DOPC   H3Y19198   1.641   3.841  17.069  0.0479  0.4504  1.6623
  159DOPC   C3419199   1.524   3.905  16.896 -0.0768 -0.8064 -0.7197
  159DOPC   H4X19200   1.425   3.948  16.871  1.8031  3.8657 -1.0897
  159DOPC   H4Y19201   1.520   3.798  16.866 -0.8993 -0.9208 -0.2562
  159DOPC   C3519202   1.633   3.982  16.826 -0.0585  0.2388  0.7195
  159DOPC   H5X19203   1.736   3.970  16.867 -0.3239  1.9933  1.9995
  159DOPC   H5Y19204   1.612   4.090  16.838 -0.1817  0.2472  0.4295
  159DOPC   C3619205   1.628   3.933  16.679 -0.1198 -0.0318  0.1972
  159DOPC   H6X19206   1.662   3.827  16.672  0.3654  0.1255  0.1865
  159DOPC   H6Y19207   1.521   3.938  16.647  0.5263 -1.3154 -2.4677
  159DOPC   C3719208   1.717   4.022  16.588  0.2620  0.0466 -0.6422
  159DOPC   H7X19209   1.712   4.125  16.629  1.3778 -0.3755  0.5831
  159DOPC   H7Y19210   1.821   3.984  16.590  0.5100  0.7387  0.7401
  159DOPC   C3819211   1.670   4.022  16.439  0.4372 -0.1210  0.3388
  159DOPC   H8X19212   1.575   4.080  16.444  0.0135 -0.7242 -0.5044
  159DOPC   H8Y19213   1.641   3.919  16.407  1.2449 -1.1827  2.7932
  159DOPC   C3919214   1.770   4.091  16.351 -0.6174  0.0243  0.2901
  159DOPC   H9X19215   1.805   4.187  16.393 -0.2848 -0.5468  1.3483
  159DOPC  C31019216   1.814   4.065  16.228 -1.0399  0.3732 -1.2640
  159DOPC  H10X19217   1.874   4.144  16.180 -1.1515  0.6930 -0.8832
  159DOPC  C31119218   1.782   3.944  16.147  0.6514 -0.7253  0.1260
  159DOPC  H11X19219   1.678   3.912  16.170 -0.3512  1.9411 -0.2947
  159DOPC  H11Y19220   1.866   3.874  16.167  1.0579 -0.0394  0.8923
  159DOPC  C31219221   1.774   3.982  15.996  1.0180 -0.4969 -0.4462
  159DOPC  H12X19222   1.878   4.014  15.974  0.6661  2.0700  1.2000
  159DOPC  H12Y19223   1.716   4.077  15.984 -0.5251 -0.7761  3.2457
  159DOPC  C31319224   1.727   3.876  15.906  0.1064 -0.2991  0.1442
  159DOPC  H13X19225   1.764   3.773  15.928  0.8806 -0.6190 -2.3099
  159DOPC  H13Y19226   1.616   3.872  15.894  0.2727  0.3207 -2.0715
  159DOPC  C31419227   1.781   3.901  15.769 -0.1870  0.0314  0.8771
  159DOPC  H14X19228   1.756   4.008  15.750 -1.8648 -0.6804 -1.3453
  159DOPC  H14Y19229   1.890   3.882  15.766 -0.2450 -0.2535  0.4890
  159DOPC  C31519230   1.720   3.808  15.671 -0.0670  0.0786 -0.0568
  159DOPC  H15X19231   1.614   3.840  15.656  0.0387 -0.2642 -1.7172
  159DOPC  H15Y19232   1.724   3.704  15.710  1.1995 -0.9227 -2.6056
  159DOPC  C31619233   1.783   3.819  15.535 -0.1696 -1.3516  0.0778
  159DOPC  H16X19234   1.746   3.921  15.509 -1.1390 -1.4334  1.0544
  159DOPC  H16Y19235   1.893   3.815  15.544  0.0164  0.9844 -0.5026
  159DOPC  C31719236   1.713   3.733  15.436 -0.4213 -0.1566  0.5025
  159DOPC  H17X19237   1.742   3.627  15.449  0.2030 -0.3500 -1.9427
  159DOPC  H17Y19238   1.603   3.746  15.439 -0.3646  0.2435  0.9668
  159DOPC  C31819239   1.755   3.777  15.292  0.2742  0.2824  0.3807
  159DOPC  H18X19240   1.702   3.722  15.211  1.0534  1.1359 -0.7418
  159DOPC  H18Y19241   1.737   3.885  15.279  4.0582  0.8718 -1.6810
  159DOPC  H18Z19242   1.865   3.762  15.286  0.5941  2.3781  0.5698
  160DOPC     N19243   1.925   2.502  17.552  0.0070  0.3015  0.6860
  160DOPC   C1219244   2.037   2.599  17.518  0.0248 -0.6844 -0.2013
  160DOPC  H12A19245   2.101   2.611  17.605 -1.4935 -1.1260  1.0131
  160DOPC  H12B19246   1.989   2.692  17.491  1.1455 -0.4238 -1.3979
  160DOPC   C1319247   1.834   2.482  17.427 -0.4091  0.3280  0.0939
  160DOPC  H13A19248   1.883   2.419  17.355  0.5737  1.7791 -0.5488
  160DOPC  H13B19249   1.744   2.432  17.460 -1.2328  1.1050 -0.9087
  160DOPC  H13C19250   1.807   2.573  17.376 -0.9357 -0.7338 -1.5875
  160DOPC   C1419251   1.841   2.538  17.668 -0.2249  0.0705 -0.1575
  160DOPC  H14A19252   1.900   2.544  17.758 -0.2475 -1.2610 -0.0322
  160DOPC  H14B19253   1.801   2.638  17.655 -0.8116  0.1545  2.0013
  160DOPC  H14C19254   1.761   2.467  17.675  1.2524 -1.7038 -0.5601
  160DOPC   C1519255   1.984   2.368  17.588 -0.7397  0.3033  0.5027
  160DOPC  H15A19256   1.921   2.280  17.586 -0.0313 -0.2372  1.1654
  160DOPC  H15B19257   2.037   2.361  17.682 -1.3245 -0.2881  0.7954
  160DOPC  H15C19258   2.058   2.345  17.513 -0.5672  1.4258  0.3148
  160DOPC   C1119259   2.138   2.552  17.410  0.3956 -0.6918 -0.0144
  160DOPC  H11A19260   2.084   2.499  17.329 -1.2810 -1.2441  1.4172
  160DOPC  H11B19261   2.173   2.641  17.354 -3.2984  0.0453 -1.4143
  160DOPC     P19262   2.360   2.420  17.411  0.3446  0.2089 -0.1146
  160DOPC   O1319263   2.444   2.361  17.513 -0.2024 -0.6213 -0.2877
  160DOPC   O1419264   2.419   2.542  17.349 -0.0636  0.0053  0.6499
  160DOPC   O1219265   2.228   2.464  17.474 -0.1711 -0.3505  0.0242
  160DOPC   O1119266   2.331   2.314  17.299  0.0573  0.2044 -1.0102
  160DOPC    C119267   2.440   2.254  17.227  0.2800  0.4709 -0.1507
  160DOPC    HA19268   2.440   2.150  17.267 -0.5414  1.1461  1.7272
  160DOPC    HB19269   2.536   2.306  17.245 -0.4833  1.7697  0.2631
  160DOPC    C219270   2.410   2.238  17.080 -0.1224  0.3136  0.0056
  160DOPC    HS19271   2.401   2.339  17.034 -1.5572  0.2638  0.1540
  160DOPC   O2119272   2.291   2.156  17.058 -0.3455 -0.1438  0.3554
  160DOPC   C2119273   2.218   2.196  16.952 -0.2194 -0.4218  0.4858
  160DOPC   O2219274   2.258   2.282  16.875  0.3442  0.1236 -0.3655
  160DOPC   C2219275   2.100   2.105  16.940  0.4644  0.1251 -0.2487
  160DOPC   H2R19276   2.051   2.128  17.037  1.0912  1.0565 -0.1490
  160DOPC   H2S19277   2.122   1.996  16.938 -0.5865 -0.1026 -1.5069
  160DOPC    C319278   2.519   2.160  17.008 -0.0613 -0.1023  0.3955
  160DOPC    HX19279   2.532   2.067  17.068 -1.0010 -0.4019  0.1513
  160DOPC    HY19280   2.620   2.204  17.022  0.4296 -1.1901  0.4366
  160DOPC   O3119281   2.498   2.148  16.866 -0.2020 -0.4162  0.1043
  160DOPC   C3119282   2.538   2.252  16.796  0.2324 -0.4425 -0.2712
  160DOPC   O3219283   2.587   2.357  16.840 -0.3965 -0.2755 -0.0022
  160DOPC   C3219284   2.501   2.226  16.644 -0.6216  0.6526  1.0046
  160DOPC   H2X19285   2.502   2.115  16.635  1.7238  0.7337 -0.4204
  160DOPC   H2Y19286   2.399   2.268  16.630  0.1816  2.0947 -1.0946
  160DOPC   C2319287   2.003   2.138  16.823 -0.2978 -0.3011 -0.6584
  160DOPC   H3R19288   1.987   2.248  16.815  0.9381  0.1094  1.8249
  160DOPC   H3S19289   1.910   2.080  16.839 -0.7596  0.1465 -1.5996
  160DOPC   C2419290   2.066   2.090  16.690  0.1414 -0.5301  0.2783
  160DOPC   H4R19291   2.092   1.984  16.673  2.6533  0.2062 -0.8412
  160DOPC   H4S19292   2.154   2.152  16.664 -0.1512 -0.7022 -1.2053
  160DOPC   C2519293   1.965   2.109  16.569 -0.2031 -0.0037  0.2865
  160DOPC   H5R19294   1.948   2.218  16.556  1.1057  0.2734  0.6630
  160DOPC   H5S19295   1.870   2.059  16.595 -0.1550 -0.9114 -1.1380
  160DOPC   C2619296   2.008   2.048  16.433 -0.4870 -0.1600 -0.0143
  160DOPC   H6R19297   2.006   1.938  16.442  1.3096 -0.0282  3.9605
  160DOPC   H6S19298   2.109   2.091  16.417 -0.4398 -0.8124 -1.6988
  160DOPC   C2719299   1.916   2.104  16.321  0.1694 -0.4206  0.6393
  160DOPC   H7R19300   1.909   2.215  16.316  0.5260 -0.4439 -0.8201
  160DOPC   H7S19301   1.821   2.048  16.332  0.0139 -0.7181 -1.6240
  160DOPC   C2819302   1.959   2.057  16.180  0.4950 -0.3256 -0.1535
  160DOPC   H8R19303   1.960   1.946  16.180  0.8598 -0.3477  1.2854
  160DOPC   H8S19304   2.054   2.111  16.159  0.4021 -0.3070 -0.5314
  160DOPC   C2919305   1.854   2.098  16.083  0.1333 -0.7910 -0.1669
  160DOPC   H9R19306   1.750   2.087  16.120  0.8838 -2.9255  1.5707
  160DOPC  C21019307   1.865   2.147  15.963  0.5228  0.7923 -0.0487
  160DOPC  H10R19308   1.773   2.158  15.904  0.2907  1.2219  0.3808
  160DOPC  C21119309   1.997   2.169  15.896  0.6935 -0.8821 -0.5129
  160DOPC  H11R19310   2.078   2.209  15.961 -0.2890 -0.3736  0.4139
  160DOPC  H11S19311   1.983   2.249  15.820 -0.4741  0.4783  1.0597
  160DOPC  C21219312   2.060   2.055  15.811  0.0518  0.3848 -0.0036
  160DOPC  H12R19313   2.101   1.977  15.879 -0.2258 -0.1804 -0.4877
  160DOPC  H12S19314   2.147   2.090  15.751 -0.4769 -2.6168 -2.7904
  160DOPC  C21319315   1.962   1.989  15.710  0.9626 -0.3849 -0.1146
  160DOPC  H13R19316   1.878   1.943  15.766  0.9643 -0.8906 -0.5226
  160DOPC  H13S19317   2.014   1.902  15.663  2.1601 -1.9016  3.6279
  160DOPC  C21419318   1.901   2.086  15.610 -0.0042 -0.0113  0.7052
  160DOPC  H14R19319   1.986   2.142  15.565 -1.0240  1.9761  1.1447
  160DOPC  H14S19320   1.830   2.152  15.664 -0.6730  0.5741 -0.8029
  160DOPC  C21519321   1.823   2.021  15.489  0.1913 -0.1640  0.0341
  160DOPC  H15R19322   1.736   1.969  15.535  0.0902 -0.1709 -0.1642
  160DOPC  H15S19323   1.880   1.944  15.432  1.8398  2.1072 -1.5720
  160DOPC  C21619324   1.767   2.125  15.389  0.1322 -0.0513 -0.3205
  160DOPC  H16R19325   1.860   2.178  15.359  0.5528 -1.1723 -1.0561
  160DOPC  H16S19326   1.707   2.207  15.435 -0.6518  0.9739 -2.9667
  160DOPC  C21719327   1.680   2.070  15.278 -0.5930  0.3096  0.2742
  160DOPC  H17R19328   1.605   2.000  15.321  0.2340 -1.8998 -1.6890
  160DOPC  H17S19329   1.734   2.007  15.205 -0.4230  1.5193 -0.6823
  160DOPC  C21819330   1.626   2.188  15.200  0.1589  0.0809 -0.0045
  160DOPC  H18R19331   1.698   2.272  15.211 -0.5888  0.6034  1.0608
  160DOPC  H18S19332   1.526   2.215  15.240  0.7912  1.7165  0.5407
  160DOPC  H18T19333   1.619   2.158  15.093  0.4228  0.2712 -0.0749
  160DOPC   C3319334   2.600   2.307  16.552 -0.1060  0.3766  0.0737
  160DOPC   H3X19335   2.703   2.266  16.544  0.1889  0.9601  0.8061
  160DOPC   H3Y19336   2.606   2.409  16.595 -0.4644 -0.6673  2.8436
  160DOPC   C3419337   2.548   2.324  16.406  0.4170 -0.9067 -0.5678
  160DOPC   H4X19338   2.615   2.397  16.358  2.1917 -0.9596  1.6884
  160DOPC   H4Y19339   2.449   2.373  16.415  1.4047  0.9608  0.7235
  160DOPC   C3519340   2.533   2.192  16.333 -1.3789  0.0448  0.6076
  160DOPC   H5X19341   2.487   2.112  16.393 -0.1673  0.9859  2.9178
  160DOPC   H5Y19342   2.637   2.155  16.316 -0.9207  1.2142  0.7577
  160DOPC   C3619343   2.484   2.215  16.188 -0.2798 -0.9225  0.4466
  160DOPC   H6X19344   2.376   2.237  16.201  0.1816  0.7529  1.7659
  160DOPC   H6Y19345   2.531   2.302  16.136  0.3383 -1.8036 -0.5080
  160DOPC   C3719346   2.484   2.089  16.098  0.5119 -0.0911  0.6445
  160DOPC   H7X19347   2.585   2.063  16.060 -0.4174  1.2127 -3.1329
  160DOPC   H7Y19348   2.427   2.011  16.153 -1.6435  0.0212 -1.3067
  160DOPC   C3819349   2.406   2.113  15.967 -0.5469  0.0193  0.0443
  160DOPC   H8X19350   2.463   2.190  15.910  1.2438  0.1928  1.9817
  160DOPC   H8Y19351   2.307   2.158  15.990 -0.8091 -0.4083 -0.2189
  160DOPC   C3919352   2.390   1.984  15.888 -0.5313  0.1481  0.8045
  160DOPC   H9X19353   2.353   1.901  15.949 -1.5283 -0.3908 -0.4652
  160DOPC  C31019354   2.434   1.959  15.765  0.2958 -1.0755 -0.1300
  160DOPC  H10X19355   2.423   1.858  15.724 -0.9402 -0.8187 -0.4890
  160DOPC  C31119356   2.481   2.062  15.670  0.4528 -0.1625  0.9942
  160DOPC  H11X19357   2.586   2.085  15.696  0.5670 -0.9572  1.2505
  160DOPC  H11Y19358   2.425   2.159  15.664 -0.0611 -0.5166 -0.2132
  160DOPC  C31219359   2.475   2.012  15.527  0.2656 -0.0251 -0.0788
  160DOPC  H12X19360   2.544   1.929  15.504 -0.3880  0.1525 -3.1873
  160DOPC  H12Y19361   2.525   2.094  15.471  2.0733 -0.5738  0.6613
  160DOPC  C31319362   2.338   1.982  15.467 -0.5702  0.0552  0.3492
  160DOPC  H13X19363   2.306   1.889  15.520  0.0515  0.2854  1.1445
  160DOPC  H13Y19364   2.262   2.057  15.497 -0.7946  0.3606 -0.9482
  160DOPC  C31419365   2.356   1.973  15.316 -0.3281 -0.3630  0.2951
  160DOPC  H14X19366   2.419   2.059  15.284 -0.2136  0.6629  3.0636
  160DOPC  H14Y19367   2.409   1.880  15.288  0.1604  0.2549 -0.9508
  160DOPC  C31519368   2.220   1.964  15.245  0.0688 -0.1944  0.1911
  160DOPC  H15X19369   2.169   2.051  15.292  1.1390 -0.1985  1.4052
  160DOPC  H15Y19370   2.158   1.879  15.279  1.5892 -0.9863  1.0994
  160DOPC  C31619371   2.210   1.987  15.094 -0.2752 -0.6392  0.6846
  160DOPC  H16X19372   2.239   2.093  15.075  0.2669 -1.1576 -1.7353
  160DOPC  H16Y19373   2.289   1.923  15.048 -1.1620 -0.2283 -1.5264
  160DOPC  C31719374   2.082   1.947  15.028  0.0238  0.4191 -0.1377
  160DOPC  H17X19375   2.074   1.838  15.043  2.0242  0.2672  0.1204
  160DOPC  H17Y19376   2.006   2.012  15.077 -0.0737  1.7119 -1.8781
  160DOPC  C31819377   2.079   1.980  14.875  0.0776  0.6068 -0.1968
  160DOPC  H18X19378   2.089   2.090  14.863  1.7674  0.3767 -1.3023
  160DOPC  H18Y19379   2.163   1.925  14.826 -1.2754 -1.1888 -0.6060
  160DOPC  H18Z19380   1.983   1.943  14.834  0.2000 -2.2826  1.7960
  161DOPC     N19381   0.266   1.929  17.944  0.0090  0.4155  0.5328
  161DOPC   C1219382   0.322   2.065  17.908 -0.1693  0.0901 -0.9596
  161DOPC  H12A19383   0.429   2.060  17.918 -0.3319  0.7423  2.0690
  161DOPC  H12B19384   0.281   2.133  17.982 -0.0938  0.2283 -1.0445
  161DOPC   C1319385   0.322   1.893  18.078 -0.6089 -0.2643 -0.7355
  161DOPC  H13A19386   0.283   1.951  18.161  1.9366 -1.1330  1.1892
  161DOPC  H13B19387   0.302   1.791  18.104 -0.4630 -0.5694 -1.7815
  161DOPC  H13C19388   0.428   1.914  18.084 -0.5094 -1.0434  0.7959
  161DOPC   C1419389   0.306   1.830  17.841  0.6119 -0.1116 -0.1412
  161DOPC  H14A19390   0.266   1.850  17.743  1.8418  0.4939 -0.5412
  161DOPC  H14B19391   0.413   1.831  17.822  0.4424 -2.1978 -1.5670
  161DOPC  H14C19392   0.278   1.729  17.867  1.9443 -0.4447  0.0862
  161DOPC   C1519393   0.118   1.941  17.950  0.8136 -0.3377 -0.3964
  161DOPC  H15A19394   0.084   1.990  17.860 -0.7511 -2.1478 -0.8667
  161DOPC  H15B19395   0.089   2.005  18.032  0.9636 -0.5694 -0.1595
  161DOPC  H15C19396   0.065   1.847  17.963 -0.2497  0.4911  1.9231
  161DOPC   C1119397   0.294   2.125  17.770 -0.0710 -0.1344 -0.0578
  161DOPC  H11A19398   0.333   2.053  17.695  0.3012  1.3885 -1.3770
  161DOPC  H11B19399   0.185   2.135  17.755  0.1494  1.0435 -0.9277
  161DOPC     P19400   0.508   2.266  17.705  0.2155  0.1578 -0.0893
  161DOPC   O1319401   0.596   2.199  17.805  0.1640 -0.5915 -0.7335
  161DOPC   O1419402   0.543   2.405  17.675  0.5746 -0.1371  0.9580
  161DOPC   O1219403   0.358   2.257  17.758 -0.1420 -0.1104  0.0501
  161DOPC   O1119404   0.519   2.186  17.570  0.0955 -0.4020  0.1383
  161DOPC    C119405   0.431   2.216  17.459 -0.8027  0.1154 -0.4334
  161DOPC    HA19406   0.407   2.324  17.445  0.1858  0.1910 -1.7307
  161DOPC    HB19407   0.333   2.167  17.479 -0.6970  0.1635  0.2210
  161DOPC    C219408   0.496   2.171  17.323  0.7961 -0.4118  0.1163
  161DOPC    HS19409   0.448   2.233  17.244 -1.2468  1.2435  2.4699
  161DOPC   O2119410   0.487   2.032  17.304  0.4373  0.2778  0.3961
  161DOPC   C2119411   0.358   2.001  17.262  0.1796  0.2963 -0.1766
  161DOPC   O2219412   0.269   2.078  17.270  0.3784 -0.6342 -0.1352
  161DOPC   C2219413   0.346   1.857  17.216  0.2603  0.4411 -0.4890
  161DOPC   H2R19414   0.238   1.829  17.212  0.3310  0.2759 -1.6173
  161DOPC   H2S19415   0.387   1.796  17.299 -0.8970 -0.9540 -0.8977
  161DOPC    C319416   0.641   2.218  17.319  0.3077 -0.6090  0.5757
  161DOPC    HX19417   0.703   2.155  17.386 -0.6541 -0.5784  1.5160
  161DOPC    HY19418   0.649   2.317  17.369 -1.2665 -0.3200  0.3203
  161DOPC   O3119419   0.709   2.205  17.192 -0.3639  0.5203  0.2488
  161DOPC   C3119420   0.676   2.298  17.108 -0.2226 -0.4720 -0.2933
  161DOPC   O3219421   0.623   2.404  17.135  0.0846  0.0520  0.1674
  161DOPC   C3219422   0.714   2.243  16.975 -0.2248 -0.4743 -0.7674
  161DOPC   H2X19423   0.818   2.205  16.982 -0.1364 -0.4100 -1.6648
  161DOPC   H2Y19424   0.656   2.152  16.948 -0.6971  0.3261 -2.5727
  161DOPC   C2319425   0.424   1.829  17.090 -0.7036  0.4074  0.5399
  161DOPC   H3R19426   0.433   1.718  17.079 -0.1586  0.3992  1.0362
  161DOPC   H3S19427   0.528   1.865  17.101 -1.3381  1.8376  2.2201
  161DOPC   C2419428   0.366   1.889  16.960  0.1168 -0.3544 -0.6636
  161DOPC   H4R19429   0.350   1.998  16.971 -0.8323 -0.5034 -0.4339
  161DOPC   H4S19430   0.266   1.845  16.939  0.9095 -2.4431 -0.3308
  161DOPC   C2519431   0.456   1.870  16.842  0.6563 -0.1657  0.6907
  161DOPC   H5R19432   0.457   1.762  16.819 -0.1793  0.1692 -1.0785
  161DOPC   H5S19433   0.557   1.900  16.878  0.1829 -0.3143  2.2353
  161DOPC   C2619434   0.441   1.966  16.723  0.5457 -0.1669 -0.4203
  161DOPC   H6R19435   0.545   1.979  16.684  0.3347  1.5584 -0.4744
  161DOPC   H6S19436   0.398   2.064  16.753 -1.0154 -0.2638 -2.1948
  161DOPC   C2719437   0.354   1.912  16.613  0.3868  0.2444 -0.1345
  161DOPC   H7R19438   0.291   1.984  16.557 -0.9203 -0.0173  0.9512
  161DOPC   H7S19439   0.285   1.842  16.663  0.3627  1.5722  1.7766
  161DOPC   C2819440   0.437   1.829  16.510  0.4725 -0.5716 -0.0807
  161DOPC   H8R19441   0.374   1.758  16.451 -0.2459  0.4243 -0.5524
  161DOPC   H8S19442   0.514   1.767  16.561  0.6367  0.9055  1.5292
  161DOPC   C2919443   0.508   1.907  16.404 -0.5003 -0.1163 -0.0101
  161DOPC   H9R19444   0.616   1.919  16.420 -0.2863  0.3081 -1.5409
  161DOPC  C21019445   0.467   1.952  16.289 -0.2501 -0.0496 -0.2910
  161DOPC  H10R19446   0.531   2.015  16.224  1.4096 -2.0729 -0.7385
  161DOPC  C21119447   0.328   1.917  16.241  0.7684 -0.3690  0.1923
  161DOPC  H11R19448   0.266   1.951  16.327  1.1904  0.7962  0.0484
  161DOPC  H11S19449   0.321   1.809  16.217  0.0852 -0.0404 -1.2335
  161DOPC  C21219450   0.281   1.987  16.114 -0.0308  0.2253  0.6888
  161DOPC  H12R19451   0.288   2.098  16.117 -0.9879  0.3669 -1.0614
  161DOPC  H12S19452   0.173   1.968  16.094  0.6700 -1.1218 -2.2757
  161DOPC  C21319453   0.367   1.957  15.992 -0.4087 -0.2568  0.4944
  161DOPC  H13R19454   0.368   1.848  15.968 -0.6419  0.3190 -2.4566
  161DOPC  H13S19455   0.471   1.994  16.009 -0.8175  1.5281 -0.7171
  161DOPC  C21419456   0.318   2.031  15.869  0.5349 -0.4417 -0.3840
  161DOPC  H14R19457   0.341   2.139  15.882 -0.0673 -0.4064  0.5005
  161DOPC  H14S19458   0.208   2.027  15.860  0.3368 -0.6036  1.6346
  161DOPC  C21519459   0.382   1.970  15.738  1.0256  0.1817  0.4397
  161DOPC  H15R19460   0.353   1.864  15.721  3.2303 -0.0607 -2.7135
  161DOPC  H15S19461   0.492   1.968  15.754  0.9235 -1.1700  1.2020
  161DOPC  C21619462   0.349   2.045  15.615  0.1438 -0.3065 -0.6545
  161DOPC  H16R19463   0.361   2.156  15.620  0.1479 -0.2737 -1.3324
  161DOPC  H16S19464   0.242   2.034  15.587 -0.2677  0.6687  0.4298
  161DOPC  C21719465   0.420   1.994  15.487  0.2834 -0.4339 -0.4536
  161DOPC  H17R19466   0.383   1.894  15.457 -1.4725 -0.2187  0.8297
  161DOPC  H17S19467   0.525   1.981  15.522 -0.1167 -0.7597  0.6696
  161DOPC  C21819468   0.421   2.082  15.364  0.3602 -0.2019  0.1836
  161DOPC  H18R19469   0.455   2.188  15.372  2.6542 -0.7729 -1.0446
  161DOPC  H18S19470   0.319   2.093  15.323  1.6400  0.4632 -3.0895
  161DOPC  H18T19471   0.479   2.037  15.281  1.2938  0.5423  0.4056
  161DOPC   C3319472   0.688   2.335  16.849 -0.4005 -0.6252 -0.0397
  161DOPC   H3X19473   0.734   2.433  16.876 -0.6476 -0.4499 -0.2586
  161DOPC   H3Y19474   0.583   2.354  16.818  0.3164  0.8697 -1.7487
  161DOPC   C3419475   0.746   2.271  16.722  0.3246  0.1981 -0.1920
  161DOPC   H4X19476   0.696   2.172  16.713 -1.0968  0.8493  0.1886
  161DOPC   H4Y19477   0.854   2.247  16.725 -0.1109 -1.9208  1.6610
  161DOPC   C3519478   0.708   2.349  16.597 -0.0242  0.5904 -0.3706
  161DOPC   H5X19479   0.736   2.455  16.616 -1.3796  0.8704  0.1878
  161DOPC   H5Y19480   0.599   2.357  16.578 -0.5282 -0.7176  1.6577
  161DOPC   C3619481   0.766   2.288  16.470  0.6792 -1.0108 -0.2299
  161DOPC   H6X19482   0.876   2.294  16.476  0.5762 -0.8522  2.7966
  161DOPC   H6Y19483   0.742   2.180  16.458 -1.3248 -0.4863 -1.5713
  161DOPC   C3719484   0.733   2.373  16.353 -0.2942 -0.5263  0.1808
  161DOPC   H7X19485   0.624   2.388  16.336  0.3586  1.0769 -3.4621
  161DOPC   H7Y19486   0.785   2.470  16.372 -0.1536 -0.7454  0.9450
  161DOPC   C3819487   0.790   2.314  16.229 -0.1432  0.2112  0.4929
  161DOPC   H8X19488   0.727   2.227  16.200  0.9825 -0.1124 -1.0879
  161DOPC   H8Y19489   0.899   2.297  16.237 -0.2226  0.1676  1.5536
  161DOPC   C3919490   0.789   2.431  16.128 -0.1307  0.8446  0.7762
  161DOPC   H9X19491   0.872   2.502  16.116 -0.6554  1.3008 -0.3885
  161DOPC  C31019492   0.704   2.439  16.026 -0.4606 -0.1176  0.3693
  161DOPC  H10X19493   0.722   2.529  15.966  1.7732 -0.4431  0.4547
  161DOPC  C31119494   0.575   2.370  15.991  0.5853 -0.7700 -0.3725
  161DOPC  H11X19495   0.497   2.447  16.011  3.4759  1.8252  2.2060
  161DOPC  H11Y19496   0.546   2.284  16.055 -0.4198 -2.7470 -3.3368
  161DOPC  C31219497   0.573   2.332  15.846  0.6778  0.2523  0.1314
  161DOPC  H12X19498   0.486   2.264  15.830 -0.4027  0.8763  2.7685
  161DOPC  H12Y19499   0.665   2.285  15.807  0.1027  0.6615 -1.7935
  161DOPC  C31319500   0.555   2.451  15.756 -0.5373 -0.8145  0.2887
  161DOPC  H13X19501   0.477   2.526  15.782  0.8533  2.3448 -3.6619
  161DOPC  H13Y19502   0.648   2.511  15.759  0.1036 -1.4765 -3.1352
  161DOPC  C31419503   0.519   2.411  15.611  0.2717  0.2816 -0.4105
  161DOPC  H14X19504   0.562   2.315  15.575  0.1630  0.3044 -0.6074
  161DOPC  H14Y19505   0.408   2.396  15.611  0.0033  2.1079  0.1222
  161DOPC  C31519506   0.535   2.530  15.516 -0.2177 -0.3328 -0.5520
  161DOPC  H15X19507   0.642   2.546  15.491 -0.1699  1.0439  0.4172
  161DOPC  H15Y19508   0.496   2.626  15.556  1.6054 -0.3355  1.4163
  161DOPC  C31619509   0.452   2.518  15.388  0.4983  0.0271  0.0829
  161DOPC  H16X19510   0.462   2.413  15.352  0.3190  0.7060 -2.1259
  161DOPC  H16Y19511   0.344   2.542  15.391  0.8220  1.5826  0.2229
  161DOPC  C31719512   0.513   2.602  15.270 -0.4829  0.1375  0.6911
  161DOPC  H17X19513   0.622   2.583  15.268 -0.3580  0.8182  0.7345
  161DOPC  H17Y19514   0.484   2.564  15.170  2.0892  2.0179 -0.9165
  161DOPC  C31819515   0.493   2.752  15.282 -0.1279 -0.2718 -0.1611
  161DOPC  H18X19516   0.391   2.794  15.270 -0.5426 -1.2323 -0.0366
  161DOPC  H18Y19517   0.553   2.801  15.362  0.9063 -0.5983 -0.7108
  161DOPC  H18Z19518   0.552   2.788  15.194 -0.7731 -0.0970 -0.5261
  162DOPC     N19519   5.332   1.591  18.406 -0.0684 -0.1069  0.8047
  162DOPC   C1219520   5.400   1.462  18.364  0.6887 -0.4844 -0.2030
  162DOPC  H12A19521   5.403   1.394  18.448 -0.8793 -0.2702  0.0453
  162DOPC  H12B19522   5.504   1.479  18.341  0.4613  0.8723 -0.3274
  162DOPC   C1319523   5.411   1.645  18.517  0.1385 -0.9307 -0.4139
  162DOPC  H13A19524   5.394   1.584  18.605  0.4349  1.8951  1.7642
  162DOPC  H13B19525   5.518   1.641  18.503  0.3873  0.1243  0.9092
  162DOPC  H13C19526   5.394   1.748  18.546  1.1060 -0.7527 -0.4580
  162DOPC   C1419527   5.193   1.577  18.451  0.9320  0.4265 -0.7709
  162DOPC  H14A19528   5.130   1.550  18.368  0.9632 -1.8160 -0.1407
  162DOPC  H14B19529   5.180   1.499  18.525 -2.3324  1.3590 -0.2336
  162DOPC  H14C19530   5.159   1.672  18.490 -0.5096  0.6145 -2.3614
  162DOPC   C1519531   5.333   1.696  18.298 -0.5355 -0.1881  0.0072
  162DOPC  H15A19532   5.434   1.723  18.269 -0.8087 -2.4685 -3.6697
  162DOPC  H15B19533   5.286   1.788  18.326  1.7202  0.7527  0.9943
  162DOPC  H15C19534   5.278   1.666  18.211 -1.7002  1.0968  0.2720
  162DOPC   C1119535   5.325   1.380  18.254 -0.1136 -0.0544  0.4493
  162DOPC  H11A19536   5.402   1.302  18.236  1.5274  1.8460 -1.3872
  162DOPC  H11B19537   5.232   1.340  18.300 -1.6612  1.1647 -1.4517
  162DOPC     P19538   5.167   1.452  18.064 -0.7713  0.0650 -0.0804
  162DOPC   O1319539   5.165   1.573  17.981 -0.2376 -0.6721 -0.7163
  162DOPC   O1419540   5.066   1.431  18.168  0.3284 -0.1481  0.0525
  162DOPC   O1219541   5.310   1.450  18.132  0.0407  0.1173  0.0556
  162DOPC   O1119542   5.169   1.325  17.974 -0.7044  0.6310  1.3566
  162DOPC    C119543   5.284   1.283  17.897  0.5616  0.6402  0.7208
  162DOPC    HA19544   5.300   1.173  17.900  0.4669  0.6358  0.9972
  162DOPC    HB19545   5.380   1.329  17.930  1.9163  0.2640 -2.3288
  162DOPC    C219546   5.268   1.326  17.744  0.6059  0.6156  0.1376
  162DOPC    HS19547   5.220   1.426  17.741  2.1834  1.4184  0.7223
  162DOPC   O2119548   5.192   1.226  17.679  0.5746 -0.4308  0.3839
  162DOPC   C2119549   5.115   1.253  17.577  0.1600  0.0247  1.2461
  162DOPC   O2219550   5.076   1.363  17.536 -0.4120 -0.1879  0.1393
  162DOPC   C2219551   5.079   1.136  17.493 -0.1350  0.1080 -0.2794
  162DOPC   H2R19552   4.970   1.144  17.472 -0.3761 -0.1076  0.8231
  162DOPC   H2S19553   5.112   1.042  17.543 -0.9758  0.4225  0.9077
  162DOPC    C319554   5.406   1.342  17.672 -0.3272  0.6385 -0.2378
  162DOPC    HX19555   5.457   1.244  17.680 -0.4298  0.6002 -0.0474
  162DOPC    HY19556   5.459   1.425  17.724 -0.0110  0.4195 -0.2070
  162DOPC   O3119557   5.398   1.370  17.530 -0.2918 -0.4808 -0.3147
  162DOPC   C3119558   5.362   1.492  17.498 -0.4831  0.0197 -0.0343
  162DOPC   O3219559   5.331   1.584  17.573 -0.1579  0.0594 -0.1340
  162DOPC   C3219560   5.355   1.501  17.343 -0.7302 -0.2342  0.6401
  162DOPC   H2X19561   5.450   1.472  17.293  0.2432  0.4747  2.0238
  162DOPC   H2Y19562   5.279   1.424  17.317 -0.2141 -1.7169  3.2050
  162DOPC   C2319563   5.162   1.130  17.363 -1.0931  0.4892  0.3158
  162DOPC   H3R19564   5.209   1.030  17.356 -2.1693  0.0261 -0.5153
  162DOPC   H3S19565   5.252   1.194  17.371  0.1540 -1.1775  0.0700
  162DOPC   C2419566   5.075   1.153  17.235 -0.5729  0.3858 -0.1324
  162DOPC   H4R19567   5.029   1.254  17.238 -0.3032  0.4994  0.6954
  162DOPC   H4S19568   4.999   1.072  17.239 -1.7758  1.4477 -0.8691
  162DOPC   C2519569   5.162   1.124  17.109  0.3388 -0.1322 -1.2825
  162DOPC   H5R19570   5.190   1.017  17.116 -0.1288 -0.1929 -0.0356
  162DOPC   H5S19571   5.248   1.193  17.120 -0.3845  0.4387  1.6010
  162DOPC   C2619572   5.090   1.149  16.977 -0.5731 -0.3173  0.9706
  162DOPC   H6R19573   5.082   1.258  16.956  2.8071 -0.4559 -1.8924
  162DOPC   H6S19574   4.992   1.097  16.979 -0.4880 -0.5062  0.3950
  162DOPC   C2719575   5.174   1.102  16.857 -0.4805 -0.1095 -0.3097
  162DOPC   H7R19576   5.170   0.991  16.854 -3.6650 -0.0754 -0.2981
  162DOPC   H7S19577   5.278   1.130  16.884 -0.3159 -0.5110 -0.5109
  162DOPC   C2819578   5.122   1.161  16.729 -0.0325 -0.8513  0.0478
  162DOPC   H8R19579   5.124   1.271  16.745  0.6820 -1.0111  1.2362
  162DOPC   H8S19580   5.017   1.132  16.708 -0.5896 -0.0204  1.5643
  162DOPC   C2919581   5.217   1.138  16.610  0.0530 -0.1658 -0.0367
  162DOPC   H9R19582   5.311   1.083  16.625  1.1157  0.8977 -2.4147
  162DOPC  C21019583   5.195   1.171  16.484 -0.2718  0.0904 -0.2800
  162DOPC  H10R19584   5.266   1.148  16.403 -2.1362  0.1554 -2.0274
  162DOPC  C21119585   5.079   1.232  16.416  0.2060 -0.2926  0.0138
  162DOPC  H11R19586   5.089   1.341  16.395  1.8174 -0.5063 -0.5069
  162DOPC  H11S19587   4.994   1.212  16.485 -0.1044 -1.0515 -0.5755
  162DOPC  C21219588   5.030   1.165  16.285 -0.6069 -0.7270 -0.4423
  162DOPC  H12R19589   4.933   1.210  16.254 -0.1691  1.4487  1.0744
  162DOPC  H12S19590   5.021   1.056  16.304  4.1166 -1.0013  1.3705
  162DOPC  C21319591   5.127   1.190  16.172  0.2936  0.3133 -0.0627
  162DOPC  H13R19592   5.231   1.154  16.183  0.4143  0.6711 -0.0442
  162DOPC  H13S19593   5.135   1.300  16.166 -1.6264  0.4401 -1.7686
  162DOPC  C21419594   5.078   1.134  16.035 -0.0712 -0.1910 -0.0003
  162DOPC  H14R19595   4.968   1.150  16.026  0.0202  1.9110  1.7724
  162DOPC  H14S19596   5.101   1.026  16.035  1.9079  0.1751 -1.1144
  162DOPC  C21519597   5.152   1.200  15.919  0.1735  0.2798 -0.5593
  162DOPC  H15R19598   5.261   1.191  15.934 -0.0714 -0.7618  0.8237
  162DOPC  H15S19599   5.129   1.308  15.933  1.6632  0.6072 -0.4756
  162DOPC  C21619600   5.089   1.144  15.789 -0.6786 -0.3330  0.5697
  162DOPC  H16R19601   4.984   1.179  15.779  0.3892  2.7958 -1.3202
  162DOPC  H16S19602   5.091   1.034  15.797  1.1445 -0.4321 -0.5886
  162DOPC  C21719603   5.168   1.170  15.661 -0.0207  1.0653  0.4280
  162DOPC  H17R19604   5.212   1.078  15.617  2.8510  2.7096 -0.4313
  162DOPC  H17S19605   5.254   1.238  15.682 -0.8037  1.7288  1.6089
  162DOPC  C21819606   5.076   1.239  15.558 -0.2031 -0.1093  0.0069
  162DOPC  H18R19607   5.119   1.240  15.456  0.1504  2.7125  0.1213
  162DOPC  H18S19608   5.049   1.343  15.585 -1.6294 -0.5359  0.3448
  162DOPC  H18T19609   4.980   1.182  15.557 -1.1429  1.3374  1.8092
  162DOPC   C3319610   5.308   1.645  17.301 -0.1645  0.7257  0.2012
  162DOPC   H3X19611   5.366   1.717  17.362 -2.2037  1.1795  1.7451
  162DOPC   H3Y19612   5.199   1.651  17.324 -0.0228  0.0659  1.0855
  162DOPC   C3419613   5.343   1.668  17.157  0.3340  0.0571 -0.2966
  162DOPC   H4X19614   5.453   1.670  17.143  0.4954  1.5790  0.9053
  162DOPC   H4Y19615   5.292   1.763  17.131  0.9313  0.3010 -0.5703
  162DOPC   C3519616   5.273   1.582  17.057  0.3517 -0.3729  0.1867
  162DOPC   H5X19617   5.164   1.576  17.073  0.1457 -0.0177 -0.9646
  162DOPC   H5Y19618   5.308   1.476  17.054  1.0328 -0.1951  1.4720
  162DOPC   C3619619   5.283   1.638  16.910  0.1991  0.0366  0.3576
  162DOPC   H6X19620   5.238   1.740  16.910 -2.5310 -1.0736 -0.7280
  162DOPC   H6Y19621   5.388   1.663  16.881 -0.2589  1.4718 -0.1602
  162DOPC   C3719622   5.204   1.545  16.811  0.1195  0.3171 -0.1417
  162DOPC   H7X19623   5.233   1.438  16.815 -1.4592 -0.0843  1.5400
  162DOPC   H7Y19624   5.100   1.559  16.847  0.5842  0.8671  1.0561
  162DOPC   C3819625   5.207   1.596  16.668  0.2304  0.8215  0.0340
  162DOPC   H8X19626   5.146   1.518  16.617  0.6000  0.3814  0.2569
  162DOPC   H8Y19627   5.308   1.582  16.624 -1.4134 -3.7476 -3.0251
  162DOPC   C3919628   5.141   1.731  16.637 -0.4266  0.5976 -0.2047
  162DOPC   H9X19629   5.150   1.802  16.720 -1.1967  0.2672  0.1693
  162DOPC  C31019630   5.081   1.786  16.526 -0.6155  0.7412 -0.7011
  162DOPC  H10X19631   5.041   1.888  16.524 -2.1713  0.1490 -1.7212
  162DOPC  C31119632   5.065   1.715  16.395 -0.0447 -0.2388  0.6492
  162DOPC  H11X19633   4.958   1.721  16.366  0.3298  0.6861 -0.6567
  162DOPC  H11Y19634   5.097   1.611  16.412  0.7328  0.1024  1.3523
  162DOPC  C31219635   5.157   1.769  16.286  0.5432  0.1957  0.3203
  162DOPC  H12X19636   5.257   1.722  16.288  0.6400  0.3183  3.7100
  162DOPC  H12Y19637   5.170   1.879  16.300  0.7782  0.1394  0.5340
  162DOPC  C31319638   5.108   1.750  16.147 -0.1115  0.5793 -0.0206
  162DOPC  H13X19639   5.005   1.792  16.142 -0.2770  0.1014 -0.8471
  162DOPC  H13Y19640   5.183   1.792  16.076  0.2464 -1.9088 -1.2392
  162DOPC  C31419641   5.111   1.603  16.103 -0.2350  0.1002  0.0343
  162DOPC  H14X19642   5.208   1.556  16.076 -1.0161 -1.2662 -0.4988
  162DOPC  H14Y19643   5.065   1.544  16.185 -2.3013  1.5029 -0.0535
  162DOPC  C31519644   5.019   1.566  15.981 -0.4344  1.3554  0.3755
  162DOPC  H15X19645   4.927   1.623  16.005 -1.2955 -0.7959  2.4810
  162DOPC  H15Y19646   4.996   1.458  15.974  1.4991  0.9648 -0.7775
  162DOPC  C31619647   5.080   1.624  15.856 -0.5876  0.1283  0.3644
  162DOPC  H16X19648   5.099   1.734  15.862  4.3550 -0.3668 -1.6107
  162DOPC  H16Y19649   5.178   1.575  15.838 -0.8294  0.0084 -0.6800
  162DOPC  C31719650   4.981   1.602  15.733 -0.4645  0.6894 -0.2768
  162DOPC  H17X19651   4.971   1.491  15.737 -2.3348  0.8375  0.3344
  162DOPC  H17Y19652   4.883   1.649  15.754 -1.1857 -1.0591  0.4669
  162DOPC  C31819653   5.048   1.655  15.608  0.3761  0.3154 -0.0360
  162DOPC  H18X19654   4.983   1.631  15.521  1.8823  2.7492 -1.9963
  162DOPC  H18Y19655   5.061   1.764  15.622  0.1171  0.3368  0.0369
  162DOPC  H18Z19656   5.147   1.613  15.579 -0.1741  0.3253 -2.1040
  163DOPC     N19657   3.913   4.755  17.891  0.0260  0.2676  0.3252
  163DOPC   C1219658   4.014   4.736  17.784 -0.2640  0.1180  0.5368
  163DOPC  H12A19659   3.976   4.658  17.721  1.5951 -1.4345  1.2326
  163DOPC  H12B19660   4.099   4.696  17.838  0.4997  0.9675  0.0095
  163DOPC   C1319661   3.946   4.866  17.979  0.1869 -0.0654  0.3859
  163DOPC  H13A19662   4.046   4.850  18.017 -0.0073 -4.4832 -0.4302
  163DOPC  H13B19663   3.949   4.962  17.930  3.3465 -0.2412 -0.0124
  163DOPC  H13C19664   3.887   4.874  18.069 -1.0438  0.6223 -0.4647
  163DOPC   C1419665   3.910   4.629  17.976  0.5086 -0.2119 -1.0862
  163DOPC  H14A19666   3.903   4.540  17.915  1.0332 -0.3074 -1.0151
  163DOPC  H14B19667   3.999   4.620  18.038 -0.0383 -4.6547 -0.5698
  163DOPC  H14C19668   3.823   4.625  18.039  1.5730 -3.0314  0.3923
  163DOPC   C1519669   3.783   4.768  17.819  0.5947  0.1428  0.4522
  163DOPC  H15A19670   3.704   4.790  17.889  1.0002  5.2255 -0.3510
  163DOPC  H15B19671   3.767   4.681  17.756  1.7119 -0.1472  0.5392
  163DOPC  H15C19672   3.785   4.850  17.749  0.5650 -0.6349 -0.4861
  163DOPC   C1119673   4.064   4.853  17.691 -0.1714 -0.8448  0.4248
  163DOPC  H11A19674   4.113   4.819  17.597  0.4665 -0.5292  0.6367
  163DOPC  H11B19675   3.969   4.899  17.658  0.2577 -0.1302  0.1613
  163DOPC     P19676   4.137   5.095  17.777  0.0912  0.0125  0.0045
  163DOPC   O1319677   4.247   5.156  17.853  0.0381 -0.3230 -0.3958
  163DOPC   O1419678   4.006   5.129  17.833 -0.6491  0.0945 -0.0832
  163DOPC   O1219679   4.153   4.938  17.765 -0.1022  0.0328 -0.0905
  163DOPC   O1119680   4.149   5.146  17.623 -0.4956 -0.7917 -0.2633
  163DOPC    C119681   4.270   5.110  17.549  0.1695  0.3751 -0.7490
  163DOPC    HA19682   4.314   5.011  17.575 -0.0189  0.2086 -1.0652
  163DOPC    HB19683   4.346   5.187  17.576 -2.2655  2.7268 -0.1336
  163DOPC    C219684   4.251   5.105  17.398  0.1369  0.3172 -0.0860
  163DOPC    HS19685   4.350   5.093  17.349  0.1076  0.2696 -0.1333
  163DOPC   O2119686   4.192   5.230  17.348  0.8031 -0.0264 -0.8564
  163DOPC   C2119687   4.269   5.336  17.337 -0.0606 -0.0153 -0.6432
  163DOPC   O2219688   4.387   5.351  17.368 -0.4980  0.0011 -0.1543
  163DOPC   C2219689   4.184   5.460  17.299 -0.0383 -0.0689  0.2836
  163DOPC   H2R19690   4.246   5.548  17.271  0.2677 -0.8244 -1.5394
  163DOPC   H2S19691   4.125   5.496  17.386 -1.9616  0.3041 -1.1202
  163DOPC    C319692   4.165   4.991  17.359 -0.1112  0.6537 -0.5100
  163DOPC    HX19693   4.063   5.013  17.396 -0.3759  2.5542 -2.1560
  163DOPC    HY19694   4.215   4.898  17.393  2.5411  2.3886  0.7124
  163DOPC   O3119695   4.152   4.989  17.214 -0.0701 -0.3889  0.1059
  163DOPC   C3119696   4.093   4.879  17.178 -0.0364 -1.1927 -0.1409
  163DOPC   O3219697   4.047   4.796  17.254  0.1236 -0.3053  0.4566
  163DOPC   C3219698   4.088   4.867  17.028  0.3522  0.1300 -0.4427
  163DOPC   H2X19699   4.182   4.908  16.984  1.9222 -3.8350 -1.1997
  163DOPC   H2Y19700   4.088   4.759  17.004  0.3225 -0.5581  2.3115
  163DOPC   C2319701   4.080   5.437  17.187  0.4305 -0.7058 -0.0423
  163DOPC   H3R19702   4.022   5.532  17.187  0.0959 -0.9075  0.4071
  163DOPC   H3S19703   4.018   5.348  17.211 -2.5290  0.7823 -1.5257
  163DOPC   C2419704   4.143   5.399  17.055 -0.3687 -1.2774  0.9054
  163DOPC   H4R19705   4.188   5.299  17.069 -1.4388 -2.1096 -1.2107
  163DOPC   H4S19706   4.230   5.464  17.031 -1.0378  0.3980  2.6673
  163DOPC   C2519707   4.025   5.397  16.947 -0.3298  0.1484 -0.3580
  163DOPC   H5R19708   4.013   5.499  16.905 -3.3931 -0.2034 -0.5470
  163DOPC   H5S19709   3.929   5.373  16.999  0.0731 -3.0542 -0.9042
  163DOPC   C2619710   4.037   5.284  16.846 -0.7083 -0.2306  0.0512
  163DOPC   H6R19711   3.940   5.282  16.791 -0.8469 -1.0559  0.3100
  163DOPC   H6S19712   4.051   5.188  16.899 -0.4275 -1.6647 -2.4714
  163DOPC   C2719713   4.139   5.319  16.736  0.2066  0.0159 -0.3806
  163DOPC   H7R19714   4.231   5.356  16.787  0.0585  1.7406 -1.2757
  163DOPC   H7S19715   4.098   5.404  16.677 -0.3479  0.2780  0.3505
  163DOPC   C2819716   4.150   5.201  16.644  0.6662 -0.9046  0.0929
  163DOPC   H8R19717   4.044   5.179  16.620  0.9195 -2.1917  0.1178
  163DOPC   H8S19718   4.200   5.116  16.696  0.2016 -1.6352 -0.6367
  163DOPC   C2919719   4.230   5.249  16.525 -0.0104 -0.1642  0.3567
  163DOPC   H9R19720   4.300   5.333  16.541 -0.7622  1.0295 -2.1771
  163DOPC  C21019721   4.209   5.214  16.400 -0.8972  0.3799  0.6250
  163DOPC  H10R19722   4.271   5.258  16.319 -0.0034 -0.1287  1.0149
  163DOPC  C21119723   4.094   5.142  16.346 -0.0388 -0.9726  0.1084
  163DOPC  H11R19724   4.005   5.195  16.387 -0.0794  0.3675 -1.5878
  163DOPC  H11S19725   4.082   5.043  16.394 -1.6165 -0.1043  1.6013
  163DOPC  C21219726   4.083   5.144  16.192  0.0005 -0.1394  0.3537
  163DOPC  H12R19727   4.180   5.101  16.160  0.9395  1.9022  0.3306
  163DOPC  H12S19728   4.075   5.248  16.152  1.6556 -0.2002 -0.2134
  163DOPC  C21319729   3.983   5.046  16.121 -0.1033 -0.1670 -0.1689
  163DOPC  H13R19730   3.882   5.092  16.131  0.4743  1.2946 -0.7159
  163DOPC  H13S19731   3.987   4.951  16.178  2.7957 -0.0702 -0.0918
  163DOPC  C21419732   4.017   5.027  15.975 -0.4198 -0.1983  0.6346
  163DOPC  H14R19733   4.110   4.966  15.981  2.2797  3.4615 -0.7872
  163DOPC  H14S19734   4.032   5.125  15.925 -0.5536 -0.6158 -0.2459
  163DOPC  C21519735   3.903   4.961  15.897  0.7289  0.0535 -0.0206
  163DOPC  H15R19736   3.826   5.040  15.890 -1.5390 -2.1354 -1.5115
  163DOPC  H15S19737   3.871   4.872  15.956 -2.2294  0.3029 -1.0707
  163DOPC  C21619738   3.937   4.926  15.752 -0.1855  0.1387 -0.2534
  163DOPC  H16R19739   4.040   4.888  15.737 -0.7690 -2.2202  1.0879
  163DOPC  H16S19740   3.941   5.022  15.696  2.7709 -1.3377 -2.8758
  163DOPC  C21719741   3.842   4.836  15.673  0.4846  0.4820 -0.7038
  163DOPC  H17R19742   3.740   4.877  15.683  0.1935 -0.5886  1.0833
  163DOPC  H17S19743   3.846   4.737  15.722  3.5691  0.0494 -1.5741
  163DOPC  C21819744   3.862   4.824  15.524  1.0169 -0.0886  0.1424
  163DOPC  H18R19745   3.835   4.916  15.468 -3.8072 -0.5262  1.2879
  163DOPC  H18S19746   3.795   4.746  15.482  0.8936  0.3319 -0.4636
  163DOPC  H18T19747   3.962   4.782  15.501  0.2182 -1.5477 -0.7956
  163DOPC   C3319748   3.949   4.913  16.986 -0.3545 -0.0912 -0.3396
  163DOPC   H3X19749   3.946   5.021  17.012 -3.2158  0.3465 -2.0990
  163DOPC   H3Y19750   3.870   4.858  17.040 -0.9278  0.6626 -0.3907
  163DOPC   C3419751   3.939   4.883  16.837 -1.0592  0.0966  0.2364
  163DOPC   H4X19752   3.955   4.776  16.814 -0.8388  0.7180 -2.9773
  163DOPC   H4Y19753   4.011   4.947  16.782 -0.1771 -1.2245 -0.1931
  163DOPC   C3519754   3.810   4.925  16.779 -0.5055 -0.1003 -0.2234
  163DOPC   H5X19755   3.808   5.034  16.799 -0.8288 -0.0467 -0.5348
  163DOPC   H5Y19756   3.728   4.869  16.829  1.8161 -2.9345  0.6209
  163DOPC   C3619757   3.803   4.894  16.627  0.7052 -0.3311 -0.1068
  163DOPC   H6X19758   3.700   4.921  16.594  0.3558 -0.4038  0.8721
  163DOPC   H6Y19759   3.874   4.965  16.580 -1.1134  0.5699 -1.6150
  163DOPC   C3719760   3.824   4.746  16.586 -0.1883  0.2589  0.3951
  163DOPC   H7X19761   3.921   4.708  16.623 -0.8963 -0.7293  1.2918
  163DOPC   H7Y19762   3.751   4.681  16.639 -1.5021  2.3842  1.3561
  163DOPC   C3819763   3.811   4.719  16.441  0.1900  0.1027  0.4251
  163DOPC   H8X19764   3.858   4.620  16.425 -2.2929 -1.5886  2.6496
  163DOPC   H8Y19765   3.866   4.793  16.379  1.9751  0.0352  1.8265
  163DOPC   C3919766   3.667   4.708  16.399  0.6846 -0.2603  0.2324
  163DOPC   H9X19767   3.603   4.756  16.475  3.4676  0.0621  2.5396
  163DOPC  C31019768   3.611   4.647  16.297  0.0820  0.9434 -0.0883
  163DOPC  H10X19769   3.503   4.653  16.280  0.3715  3.8418 -1.4711
  163DOPC  C31119770   3.687   4.584  16.183  0.3810  0.2083 -0.7160
  163DOPC  H11X19771   3.678   4.474  16.191 -1.4674  0.3773  0.1311
  163DOPC  H11Y19772   3.793   4.617  16.180 -0.5460  3.7941  0.5462
  163DOPC  C31219773   3.621   4.621  16.054 -0.2127  0.6353  0.5874
  163DOPC  H12X19774   3.625   4.731  16.037  1.3718  0.6361  0.8011
  163DOPC  H12Y19775   3.516   4.587  16.037 -0.6125  1.9296  0.3400
  163DOPC  C31319776   3.692   4.573  15.925 -0.0475 -0.0670  0.3286
  163DOPC  H13X19777   3.657   4.630  15.836 -0.6686 -2.0064 -0.7067
  163DOPC  H13Y19778   3.800   4.589  15.946  0.2743 -0.5263 -0.8735
  163DOPC  C31419779   3.658   4.423  15.895 -0.2350 -0.4612 -0.0541
  163DOPC  H14X19780   3.715   4.368  15.973 -0.6194 -0.0690  0.5145
  163DOPC  H14Y19781   3.549   4.408  15.901 -0.9978  3.8263  0.3557
  163DOPC  C31519782   3.712   4.378  15.754 -0.2949 -0.1947  0.0606
  163DOPC  H15X19783   3.754   4.275  15.752 -5.1142 -2.5067  1.5849
  163DOPC  H15Y19784   3.792   4.450  15.725  0.0438  1.1047  3.6403
  163DOPC  C31619785   3.605   4.371  15.638  0.0171  0.1754 -0.2514
  163DOPC  H16X19786   3.526   4.301  15.672 -1.0845  1.2376 -0.5593
  163DOPC  H16Y19787   3.564   4.474  15.636 -0.8704 -0.0980  1.4456
  163DOPC  C31719788   3.672   4.333  15.503 -0.9365 -0.0071  0.1878
  163DOPC  H17X19789   3.754   4.405  15.484 -1.2590  0.8843  2.0528
  163DOPC  H17Y19790   3.728   4.237  15.497 -0.7543  0.1813 -2.1054
  163DOPC  C31819791   3.578   4.327  15.384  0.0613 -0.3612  0.5544
  163DOPC  H18X19792   3.503   4.251  15.414 -1.6757  1.2401  0.4249
  163DOPC  H18Y19793   3.533   4.423  15.352  1.2545 -0.4801 -1.6408
  163DOPC  H18Z19794   3.630   4.293  15.292 -0.4099 -0.5439  0.3545
  164DOPC     N19795   3.348   1.798  17.562 -0.0008 -0.4603 -0.3272
  164DOPC   C1219796   3.324   1.947  17.514 -0.2998  0.2080 -0.3869
  164DOPC  H12A19797   3.412   1.992  17.470  0.7462 -1.2940  0.1055
  164DOPC  H12B19798   3.291   2.014  17.592 -3.6250 -3.3469  1.6067
  164DOPC   C1319799   3.390   1.713  17.454 -0.0309  0.3299 -0.4564
  164DOPC  H13A19800   3.404   1.610  17.483 -0.1963  0.3022 -0.4707
  164DOPC  H13B19801   3.318   1.711  17.374 -0.8153 -0.0153  0.2398
  164DOPC  H13C19802   3.487   1.738  17.414  0.1948  1.4442  0.6999
  164DOPC   C1419803   3.229   1.738  17.638 -0.2486 -0.0150  0.6392
  164DOPC  H14A19804   3.162   1.699  17.563 -0.6956  0.9639  0.5247
  164DOPC  H14B19805   3.260   1.661  17.707 -0.3398 -1.3070 -0.7124
  164DOPC  H14C19806   3.176   1.810  17.699  0.1574 -1.1384  2.3882
  164DOPC   C1519807   3.459   1.817  17.666 -0.8373  0.1768  0.0645
  164DOPC  H15A19808   3.552   1.848  17.622 -0.2118 -1.2188  0.3736
  164DOPC  H15B19809   3.475   1.718  17.705 -0.4453  0.8206  1.6209
  164DOPC  H15C19810   3.421   1.883  17.743  0.1970 -0.0420  0.7760
  164DOPC   C1119811   3.209   1.958  17.416  0.2291 -0.0553 -0.4646
  164DOPC  H11A19812   3.227   1.898  17.324 -0.1587 -1.8830  0.5887
  164DOPC  H11B19813   3.117   1.922  17.467 -0.3547  1.5214 -0.3692
  164DOPC     P19814   3.084   2.187  17.398  0.1941  0.0039  0.4229
  164DOPC   O1319815   3.092   2.258  17.525  0.4240 -0.5820 -0.3882
  164DOPC   O1419816   2.965   2.109  17.377  0.1505  0.3574 -0.1399
  164DOPC   O1219817   3.205   2.096  17.375 -0.0324  0.2619 -0.2560
  164DOPC   O1119818   3.099   2.294  17.278 -0.1032  0.0414 -0.6960
  164DOPC    C119819   3.222   2.318  17.214 -0.4061 -0.2593  0.2579
  164DOPC    HA19820   3.300   2.242  17.236 -0.9379 -1.3308 -1.3906
  164DOPC    HB19821   3.265   2.418  17.237  3.1247 -0.9090 -2.6548
  164DOPC    C219822   3.215   2.295  17.061  0.3490  0.5470  0.9173
  164DOPC    HS19823   3.311   2.262  17.017 -0.1376  0.3503 -0.0282
  164DOPC   O2119824   3.167   2.416  17.003  0.2787  0.0649  0.1873
  164DOPC   C2119825   3.263   2.501  16.987 -0.7501 -0.0963 -0.7322
  164DOPC   O2219826   3.382   2.486  17.016  0.3711  0.0317  0.2708
  164DOPC   C2219827   3.206   2.629  16.925  0.5044  0.5632 -0.1760
  164DOPC   H2R19828   3.208   2.705  17.006 -0.9475 -0.4749  0.8890
  164DOPC   H2S19829   3.098   2.622  16.903  1.1395  0.5029 -3.7688
  164DOPC    C319830   3.122   2.181  17.011 -0.0791 -0.1295  0.2067
  164DOPC    HX19831   3.021   2.192  17.055  0.4147  1.9161  0.9815
  164DOPC    HY19832   3.173   2.098  17.065  0.1478  0.6549  1.2377
  164DOPC   O3119833   3.138   2.152  16.869 -0.2372 -0.1297  0.3826
  164DOPC   C3119834   3.058   2.211  16.793 -0.4033 -0.1218  0.5009
  164DOPC   O3219835   2.965   2.281  16.824 -0.1837 -0.5064 -0.0010
  164DOPC   C3219836   3.105   2.183  16.647 -0.6936  0.5155 -0.1680
  164DOPC   H2X19837   3.215   2.193  16.634 -0.8631  2.1311 -0.6402
  164DOPC   H2Y19838   3.075   2.077  16.631 -0.7145  0.8377 -2.5587
  164DOPC   C2319839   3.290   2.674  16.803  0.1458  0.1699  0.1744
  164DOPC   H3R19840   3.397   2.648  16.808  0.1034 -0.0892 -0.2330
  164DOPC   H3S19841   3.289   2.785  16.793  3.7636  0.2679 -0.4011
  164DOPC   C2419842   3.219   2.623  16.674  0.4912 -0.4316  0.6063
  164DOPC   H4R19843   3.122   2.676  16.666  0.5810 -0.3928 -0.2908
  164DOPC   H4S19844   3.211   2.514  16.693  2.0439 -0.4802  1.1294
  164DOPC   C2519845   3.296   2.654  16.544  0.2518  0.0408 -0.6976
  164DOPC   H5R19846   3.400   2.622  16.563 -0.0058 -0.4509 -0.0857
  164DOPC   H5S19847   3.289   2.764  16.529  0.5541  0.1229 -0.2470
  164DOPC   C2619848   3.247   2.587  16.417  0.9111 -0.2834 -0.4260
  164DOPC   H6R19849   3.139   2.607  16.402  1.2635  1.8824 -0.3878
  164DOPC   H6S19850   3.273   2.479  16.420  0.7423 -0.2997  0.7517
  164DOPC   C2719851   3.310   2.639  16.284  0.0759  0.1106 -0.7906
  164DOPC   H7R19852   3.420   2.654  16.297 -0.1306  0.4892  0.6269
  164DOPC   H7S19853   3.280   2.745  16.275  1.4661  0.6513  0.5395
  164DOPC   C2819854   3.269   2.558  16.164 -0.5576 -0.2452  0.5471
  164DOPC   H8R19855   3.271   2.451  16.195 -0.7233 -0.3603  0.1655
  164DOPC   H8S19856   3.356   2.568  16.095  0.2424  0.0324  1.5668
  164DOPC   C2919857   3.136   2.597  16.103  0.5519  0.4310  0.1052
  164DOPC   H9R19858   3.057   2.586  16.179  0.1648  0.9166 -0.2182
  164DOPC  C21019859   3.111   2.617  15.972 -0.2680  0.5545  0.1314
  164DOPC  H10R19860   3.006   2.632  15.941  0.6031 -0.0450 -3.6235
  164DOPC  C21119861   3.225   2.627  15.871 -0.2452 -0.2567  0.2551
  164DOPC  H11R19862   3.321   2.659  15.919 -0.6151  2.3413 -0.5492
  164DOPC  H11S19863   3.204   2.703  15.792  0.1216 -1.7580 -1.3453
  164DOPC  C21219864   3.229   2.497  15.797 -0.2265  0.8210  0.8069
  164DOPC  H12R19865   3.131   2.472  15.752  0.0549 -0.6980  1.0080
  164DOPC  H12S19866   3.257   2.407  15.855 -0.8040  1.1763  1.6489
  164DOPC  C21319867   3.326   2.512  15.684 -0.3686  0.2683 -0.9005
  164DOPC  H13R19868   3.430   2.521  15.722 -0.8596 -0.7792  0.7952
  164DOPC  H13S19869   3.298   2.603  15.627 -1.5340 -0.0908 -0.9393
  164DOPC  C21419870   3.312   2.383  15.598 -0.1712 -0.4524 -0.1806
  164DOPC  H14R19871   3.202   2.381  15.587 -0.1707  1.4631 -0.7635
  164DOPC  H14S19872   3.355   2.299  15.658 -0.8491 -1.0802 -0.5518
  164DOPC  C21519873   3.374   2.406  15.463 -0.2094  0.0077 -0.2389
  164DOPC  H15R19874   3.484   2.421  15.473 -0.3275  1.1864 -0.4589
  164DOPC  H15S19875   3.329   2.492  15.407  1.0739  0.6798 -0.2955
  164DOPC  C21619876   3.339   2.293  15.366 -0.3976  0.1327  0.6359
  164DOPC  H16R19877   3.232   2.313  15.341  0.1585  2.5124 -0.0803
  164DOPC  H16S19878   3.349   2.195  15.417  0.2896  0.6102  1.4416
  164DOPC  C21719879   3.430   2.299  15.233  0.5421  0.0849 -0.2943
  164DOPC  H17R19880   3.418   2.206  15.174  0.6112 -0.8193  1.0847
  164DOPC  H17S19881   3.534   2.323  15.262  0.3078  0.3973  0.3178
  164DOPC  C21819882   3.396   2.428  15.143 -0.8454  0.8304  0.2551
  164DOPC  H18R19883   3.485   2.443  15.078  1.9842  0.2620  3.7219
  164DOPC  H18S19884   3.396   2.522  15.202  0.9448 -0.3683  2.3016
  164DOPC  H18T19885   3.300   2.414  15.088 -0.5781 -2.7864  0.4329
  164DOPC   C3319886   3.024   2.265  16.546 -0.1334  0.9820 -0.1918
  164DOPC   H3X19887   3.069   2.367  16.546  0.2364  0.8215 -0.3521
  164DOPC   H3Y19888   2.915   2.273  16.565  0.2686  3.0009  1.6998
  164DOPC   C3419889   3.035   2.210  16.403 -0.6115 -0.9466 -0.1314
  164DOPC   H4X19890   3.003   2.103  16.405 -1.5747 -0.6577  0.5310
  164DOPC   H4Y19891   3.137   2.217  16.360 -1.3159  0.3833 -1.6994
  164DOPC   C3519892   2.941   2.281  16.303 -0.0104  0.1436 -0.3882
  164DOPC   H5X19893   2.924   2.390  16.310 -1.9121 -0.1431  0.1496
  164DOPC   H5Y19894   2.840   2.247  16.334  0.9795 -0.9843  1.8441
  164DOPC   C3619895   2.972   2.242  16.159 -0.4158 -0.2237  0.1005
  164DOPC   H6X19896   3.077   2.263  16.130 -0.7141  1.2223 -0.0416
  164DOPC   H6Y19897   2.940   2.136  16.163  0.3316 -0.4274  0.9387
  164DOPC   C3719898   2.871   2.323  16.074 -0.3337  0.8298  1.2965
  164DOPC   H7X19899   2.767   2.305  16.108 -0.2720  0.6320  1.3789
  164DOPC   H7Y19900   2.899   2.430  16.087  2.5779  0.1551  1.2929
  164DOPC   C3819901   2.878   2.279  15.926  0.1509  0.1950  0.2600
  164DOPC   H8X19902   2.876   2.168  15.929  0.3914  0.2057  0.9968
  164DOPC   H8Y19903   2.979   2.299  15.885 -0.5389  0.1501 -1.5286
  164DOPC   C3919904   2.777   2.355  15.845  0.4568  0.1719  0.0730
  164DOPC   H9X19905   2.694   2.402  15.900 -2.5150 -2.0005 -2.2520
  164DOPC  C31019906   2.783   2.377  15.720  0.3351 -0.2479  0.3390
  164DOPC  H10X19907   2.714   2.445  15.668  1.3089  1.6382  1.4229
  164DOPC  C31119908   2.893   2.333  15.621 -0.3422  0.0802 -0.0332
  164DOPC  H11X19909   2.970   2.279  15.680 -0.9600 -1.2813 -0.4120
  164DOPC  H11Y19910   2.948   2.418  15.578  0.2189 -0.4395 -0.3560
  164DOPC  C31219911   2.854   2.243  15.499  0.6536  0.2413  0.0502
  164DOPC  H12X19912   2.820   2.146  15.542 -1.2476  0.6594 -0.3796
  164DOPC  H12Y19913   2.954   2.224  15.455  0.6992  3.2976 -1.4446
  164DOPC  C31319914   2.752   2.293  15.406  0.1303 -0.6781  0.6406
  164DOPC  H13X19915   2.652   2.302  15.454 -0.4018 -0.6150 -0.4520
  164DOPC  H13Y19916   2.784   2.395  15.375 -1.2342 -0.3813  0.1694
  164DOPC  C31419917   2.728   2.214  15.280  0.1288 -0.5281  0.3103
  164DOPC  H14X19918   2.691   2.111  15.300 -3.0113  0.6622  1.2134
  164DOPC  H14Y19919   2.829   2.206  15.235  0.2251 -1.2258  0.6464
  164DOPC  C31519920   2.647   2.302  15.177  0.0259  0.7385  0.4071
  164DOPC  H15X19921   2.706   2.396  15.170  2.5656 -0.7486  0.7157
  164DOPC  H15Y19922   2.546   2.323  15.219  0.4732  0.8921  1.4485
  164DOPC  C31619923   2.623   2.222  15.049 -0.5016 -0.0324  0.3449
  164DOPC  H16X19924   2.712   2.207  14.984 -1.4640  0.0437 -1.0282
  164DOPC  H16Y19925   2.585   2.119  15.067 -0.3283  0.0217  1.0587
  164DOPC  C31719926   2.521   2.287  14.951  0.2346 -0.1822 -0.3915
  164DOPC  H17X19927   2.434   2.322  15.012  0.7154 -0.5043  0.5032
  164DOPC  H17Y19928   2.578   2.376  14.917 -1.0243  0.4061 -1.0608
  164DOPC  C31819929   2.483   2.195  14.833  0.2668  0.2983 -0.1094
  164DOPC  H18X19930   2.582   2.169  14.790  1.3405  0.3130  2.2033
  164DOPC  H18Y19931   2.419   2.106  14.854 -2.0963  1.2977 -2.4059
  164DOPC  H18Z19932   2.423   2.250  14.757 -1.3815 -1.7171 -0.3722
  165DOPC     N19933   0.742   3.905  18.334 -0.1793  0.0861  0.2281
  165DOPC   C1219934   0.653   3.925  18.214 -0.9197 -0.5069  0.8441
  165DOPC  H12A19935   0.633   4.030  18.199  0.6320 -0.5822 -2.8962
  165DOPC  H12B19936   0.553   3.890  18.237 -0.4684 -2.5778 -0.0994
  165DOPC   C1319937   0.687   3.976  18.459  0.5390 -0.1359  0.0300
  165DOPC  H13A19938   0.590   3.939  18.489  0.3391  0.9933  0.8679
  165DOPC  H13B19939   0.758   3.961  18.538  0.0849 -2.6134  0.0503
  165DOPC  H13C19940   0.669   4.082  18.444  1.0593 -0.0558 -0.0687
  165DOPC   C1419941   0.868   3.980  18.305 -1.2424 -0.6179 -0.3093
  165DOPC  H14A19942   0.922   3.940  18.221 -0.7016  0.6597 -0.5962
  165DOPC  H14B19943   0.856   4.086  18.289  3.0755  0.0877  0.1113
  165DOPC  H14C19944   0.938   3.972  18.387  0.8821  0.7218 -1.8945
  165DOPC   C1519945   0.763   3.757  18.359 -0.3936  0.2428 -0.6961
  165DOPC  H15A19946   0.813   3.706  18.277  3.2368  0.8918  0.9186
  165DOPC  H15B19947   0.673   3.708  18.392 -0.7478  2.1267  1.3221
  165DOPC  H15C19948   0.834   3.735  18.437 -1.9427  1.2983  1.0657
  165DOPC   C1119949   0.693   3.870  18.070 -0.0401  0.9859 -0.1908
  165DOPC  H11A19950   0.606   3.885  18.003 -2.0888 -0.0737  2.0644
  165DOPC  H11B19951   0.773   3.930  18.023 -1.3546  2.8547 -0.1820
  165DOPC     P19952   0.626   3.623  18.034  0.2789  0.2367  0.3563
  165DOPC   O1319953   0.504   3.622  18.117  0.0093 -0.2567  0.2389
  165DOPC   O1419954   0.703   3.497  18.026  0.1937 -0.6107  0.0448
  165DOPC   O1219955   0.730   3.733  18.081 -0.4949  0.5898  0.4297
  165DOPC   O1119956   0.592   3.679  17.889  0.1984  0.7142  0.1153
  165DOPC    C119957   0.672   3.633  17.778  0.0052 -0.6226 -1.0343
  165DOPC    HA19958   0.635   3.534  17.747 -0.4681 -0.7551 -0.0874
  165DOPC    HB19959   0.781   3.617  17.797  0.0382  1.1953  0.6354
  165DOPC    C219960   0.666   3.727  17.651 -0.0473  1.1379 -0.2613
  165DOPC    HS19961   0.762   3.716  17.595 -0.7395  0.7067 -1.3773
  165DOPC   O2119962   0.642   3.865  17.673  0.3496  0.5991 -0.0349
  165DOPC   C2119963   0.735   3.936  17.721  0.2416 -0.3925  0.1396
  165DOPC   O2219964   0.845   3.897  17.750 -0.5595  0.1188  1.4100
  165DOPC   C2219965   0.675   4.070  17.748  0.1001  0.3325  0.1257
  165DOPC   H2R19966   0.663   4.077  17.858  1.5334 -0.9561  0.3902
  165DOPC   H2S19967   0.575   4.084  17.701  0.7357  3.3325 -0.5439
  165DOPC    C319968   0.564   3.670  17.550 -0.0742 -0.3856  0.4414
  165DOPC    HX19969   0.465   3.672  17.600 -1.8291  2.8689 -2.6851
  165DOPC    HY19970   0.594   3.563  17.541  0.2785 -0.1495 -1.7811
  165DOPC   O3119971   0.555   3.751  17.435 -0.5041 -0.5035 -0.0537
  165DOPC   C3119972   0.638   3.713  17.336  0.0271  0.0538  0.3672
  165DOPC   O3219973   0.712   3.619  17.347  0.0299  0.1546 -0.9588
  165DOPC   C3219974   0.608   3.806  17.219 -0.2829  0.0099 -0.2022
  165DOPC   H2X19975   0.511   3.860  17.225 -0.8166 -0.9291 -0.3017
  165DOPC   H2Y19976   0.695   3.874  17.207  0.4856 -1.3050 -2.6758
  165DOPC   C2319977   0.765   4.186  17.695 -0.7193 -0.5343 -0.1811
  165DOPC   H3R19978   0.863   4.191  17.747  0.4279 -1.9002 -2.0391
  165DOPC   H3S19979   0.713   4.282  17.714 -0.9091 -0.7666  0.5129
  165DOPC   C2419980   0.784   4.191  17.543  0.3595  0.4444 -0.4693
  165DOPC   H4R19981   0.831   4.094  17.517  1.1377  0.1498  1.7980
  165DOPC   H4S19982   0.856   4.272  17.519 -0.0152  1.0080  0.2304
  165DOPC   C2519983   0.657   4.207  17.459  0.1134 -0.2086 -0.1689
  165DOPC   H5R19984   0.597   4.291  17.500  0.2653 -0.4975  0.6655
  165DOPC   H5S19985   0.588   4.121  17.477 -2.1691  1.9567  2.3807
  165DOPC   C2619986   0.691   4.225  17.314  0.1077 -0.0366 -0.2555
  165DOPC   H6R19987   0.598   4.236  17.254  0.6485  1.3820 -0.8694
  165DOPC   H6S19988   0.739   4.127  17.292 -1.0183 -0.7599  0.3563
  165DOPC   C2719989   0.793   4.339  17.282  0.8267 -0.5597  0.4064
  165DOPC   H7R19990   0.892   4.330  17.332  1.0866  0.9224  0.2083
  165DOPC   H7S19991   0.739   4.420  17.335  0.1241 -1.2735  0.8013
  165DOPC   C2819992   0.803   4.376  17.140  0.3523  0.1666  0.7175
  165DOPC   H8R19993   0.872   4.459  17.114  1.4594 -0.7466  0.6520
  165DOPC   H8S19994   0.703   4.395  17.096  0.7406  1.5330  0.3698
  165DOPC   C2919995   0.856   4.249  17.071 -0.6976  0.4740  0.1207
  165DOPC   H9R19996   0.915   4.186  17.138 -1.2526  1.4190  1.5569
  165DOPC  C21019997   0.803   4.188  16.967 -0.5560  0.2915  0.0291
  165DOPC  H10R19998   0.849   4.093  16.937 -3.1354 -1.1410  0.3389
  165DOPC  C21119999   0.705   4.236  16.866 -0.4317  0.0417 -0.0225
  165DOPC  H11R20000   0.655   4.329  16.902 -1.0883 -0.4903  0.4612
  165DOPC  H11S20001   0.619   4.167  16.863  0.5020 -1.1858  0.7423
  165DOPC  C21220002   0.764   4.273  16.722 -0.1861  0.0767  0.4938
  165DOPC  H12R20003   0.786   4.171  16.683  1.5633  0.4279  0.4514
  165DOPC  H12S20004   0.860   4.328  16.731 -0.8437  1.3552 -0.0066
  165DOPC  C21320005   0.668   4.342  16.626  0.8439  0.5232 -0.4477
  165DOPC  H13R20006   0.622   4.421  16.689 -0.2025 -1.6049  1.6085
  165DOPC  H13S20007   0.579   4.282  16.596  0.0946  1.4247 -0.0596
  165DOPC  C21420008   0.731   4.387  16.492  0.3711 -0.4198 -0.2654
  165DOPC  H14R20009   0.762   4.292  16.445 -1.5312 -1.8304  1.1732
  165DOPC  H14S20010   0.822   4.450  16.510  0.5787 -0.2614 -1.7403
  165DOPC  C21520011   0.630   4.458  16.405  0.2178 -0.1020  0.6759
  165DOPC  H15R20012   0.606   4.550  16.462  0.2921  0.6912 -0.5281
  165DOPC  H15S20013   0.529   4.412  16.402  0.8154 -1.4345  0.2945
  165DOPC  C21620014   0.658   4.483  16.262 -0.0415 -0.0633  0.2867
  165DOPC  H16R20015   0.762   4.522  16.256 -0.5110  1.2684  0.3804
  165DOPC  H16S20016   0.587   4.561  16.225 -0.9893 -1.9630 -2.1572
  165DOPC  C21720017   0.635   4.362  16.166 -0.3312  0.1262 -0.0426
  165DOPC  H17R20018   0.527   4.335  16.167 -0.3428  0.1734  0.7623
  165DOPC  H17S20019   0.687   4.273  16.208  0.7665  0.1073 -1.3834
  165DOPC  C21820020   0.689   4.369  16.021 -0.4211 -0.3338 -0.4631
  165DOPC  H18R20021   0.615   4.430  15.964 -1.0810 -0.6150  0.0848
  165DOPC  H18S20022   0.695   4.268  15.976  0.4357 -1.1589  1.3984
  165DOPC  H18T20023   0.795   4.403  16.014 -0.4023  0.7037  3.1458
  165DOPC   C3320024   0.612   3.727  17.084  0.1211 -0.0467  0.5298
  165DOPC   H3X20025   0.517   3.672  17.066  1.1142 -2.4517  2.0597
  165DOPC   H3Y20026   0.693   3.652  17.095  0.0678 -0.2607 -0.4432
  165DOPC   C3420027   0.629   3.831  16.970  0.1639 -0.3981 -0.4850
  165DOPC   H4X20028   0.726   3.882  16.987 -0.4485  0.5102  0.3631
  165DOPC   H4Y20029   0.547   3.904  16.981  0.9554  0.1324  3.5863
  165DOPC   C3520030   0.618   3.779  16.829 -0.2724 -0.6637  0.0356
  165DOPC   H5X20031   0.511   3.753  16.817 -0.6618 -1.5993  4.1797
  165DOPC   H5Y20032   0.671   3.685  16.802 -2.3094 -1.4175 -1.6356
  165DOPC   C3620033   0.649   3.890  16.727 -0.6666 -0.5835  0.4442
  165DOPC   H6X20034   0.579   3.976  16.743  0.2284  0.2619 -0.0700
  165DOPC   H6Y20035   0.753   3.929  16.736 -0.1604 -1.3324 -1.6776
  165DOPC   C3720036   0.635   3.842  16.577  0.4631 -0.2203  0.3793
  165DOPC   H7X20037   0.532   3.809  16.552  0.3147  0.7902 -0.3996
  165DOPC   H7Y20038   0.701   3.755  16.556  1.1886  0.2520  0.6644
  165DOPC   C3820039   0.665   3.947  16.471 -1.0000  0.3967 -0.1296
  165DOPC   H8X20040   0.609   4.042  16.487 -0.4157  0.6093  0.7102
  165DOPC   H8Y20041   0.619   3.904  16.379  0.3655 -1.3339 -0.0402
  165DOPC   C3920042   0.811   3.977  16.448 -0.8528  0.4738 -0.9355
  165DOPC   H9X20043   0.871   4.001  16.536  0.6374 -2.5661 -0.9769
  165DOPC  C31020044   0.875   3.960  16.330 -0.2934  0.2925 -0.5897
  165DOPC  H10X20045   0.985   3.971  16.334 -0.0049 -1.9192 -1.0427
  165DOPC  C31120046   0.814   3.945  16.188  0.2499 -0.1593 -0.0861
  165DOPC  H11X20047   0.880   3.989  16.110 -0.7458 -1.4280 -1.7308
  165DOPC  H11Y20048   0.712   3.988  16.193  1.5984  3.2589  0.7270
  165DOPC  C31220049   0.794   3.799  16.147  0.3861 -0.3896 -0.7736
  165DOPC  H12X20050   0.723   3.745  16.214 -0.4084  1.6128  0.0997
  165DOPC  H12Y20051   0.890   3.744  16.161  0.4624  0.0096  0.4636
  165DOPC  C31320052   0.738   3.784  16.007  0.0617 -0.4993  0.0988
  165DOPC  H13X20053   0.826   3.802  15.941  0.7217  1.2691  1.3753
  165DOPC  H13Y20054   0.715   3.676  16.001  2.0329 -1.0195  1.0035
  165DOPC  C31420055   0.612   3.867  15.970  0.7433 -0.0614  0.3573
  165DOPC  H14X20056   0.533   3.833  16.040 -0.3027 -2.1070 -1.6671
  165DOPC  H14Y20057   0.627   3.977  15.974  1.5885 -0.1560  0.1268
  165DOPC  C31520058   0.566   3.833  15.830  0.2678  0.2540  0.0856
  165DOPC  H15X20059   0.470   3.885  15.809 -0.5221 -0.3489  2.0172
  165DOPC  H15Y20060   0.540   3.726  15.839 -0.8764  0.5731  0.8008
  165DOPC  C31620061   0.674   3.865  15.724 -0.4547 -0.2406  0.1346
  165DOPC  H16X20062   0.683   3.974  15.738 -0.8014  0.0444 -1.6678
  165DOPC  H16Y20063   0.761   3.801  15.749 -1.7970 -2.1625  0.1349
  165DOPC  C31720064   0.615   3.833  15.597  0.0027  0.1150 -0.5908
  165DOPC  H17X20065   0.543   3.749  15.608 -1.7967  1.6816  0.0066
  165DOPC  H17Y20066   0.570   3.926  15.557  2.7497  1.4913 -0.6997
  165DOPC  C31820067   0.713   3.807  15.483 -0.3890 -0.5004  0.5020
  165DOPC  H18X20068   0.746   3.906  15.444 -0.4471  0.3792  2.5257
  165DOPC  H18Y20069   0.805   3.759  15.522 -0.1091 -0.9249 -0.6596
  165DOPC  H18Z20070   0.664   3.746  15.405  1.0311 -0.8483 -0.1485
  166DOPC     N20071   3.319   4.337  17.784 -0.4693  0.2004  0.0831
  166DOPC   C1220072   3.228   4.313  17.666  0.5165 -0.1256 -0.1460
  166DOPC  H12A20073   3.160   4.233  17.689  1.2310 -0.2772  1.6366
  166DOPC  H12B20074   3.285   4.278  17.581 -2.1835 -0.6038 -1.8784
  166DOPC   C1320075   3.415   4.456  17.766  0.4579 -0.0214  0.1934
  166DOPC  H13A20076   3.489   4.432  17.691  0.4242  2.5586 -0.7385
  166DOPC  H13B20077   3.355   4.539  17.733 -2.7685 -2.7414 -1.4726
  166DOPC  H13C20078   3.455   4.488  17.861 -0.0165  0.9988  0.0601
  166DOPC   C1420079   3.389   4.210  17.818 -0.5290 -0.3328 -0.3176
  166DOPC  H14A20080   3.324   4.127  17.840 -0.7365  0.0937  0.7259
  166DOPC  H14B20081   3.458   4.176  17.741  1.3984  0.9105  0.7863
  166DOPC  H14C20082   3.455   4.224  17.902 -0.1614 -1.7635 -0.3313
  166DOPC   C1520083   3.235   4.362  17.907 -0.1882 -0.8024  0.0848
  166DOPC  H15A20084   3.156   4.292  17.928 -1.3573  0.2768 -0.5439
  166DOPC  H15B20085   3.180   4.454  17.890  3.4551  1.3537 -1.0072
  166DOPC  H15C20086   3.301   4.378  17.991  1.3571 -0.0000 -1.2229
  166DOPC   C1120087   3.134   4.435  17.621  0.6476 -0.0939 -0.5839
  166DOPC  H11A20088   3.204   4.519  17.601 -0.8861  0.8157 -2.4674
  166DOPC  H11B20089   3.084   4.408  17.526 -1.1318  2.0375 -0.3341
  166DOPC     P20090   2.924   4.569  17.700  0.1997  0.0720  0.0249
  166DOPC   O1320091   2.969   4.701  17.749  0.4003 -0.3663  0.1778
  166DOPC   O1420092   2.800   4.513  17.760  0.4058 -0.4545 -0.1297
  166DOPC   O1220093   3.034   4.463  17.722  0.1848 -0.9818 -0.5607
  166DOPC   O1120094   2.915   4.556  17.545 -0.2397  0.4678  0.3074
  166DOPC    C120095   2.967   4.646  17.446  0.0041  0.4750 -0.7374
  166DOPC    HA20096   3.068   4.685  17.471 -0.2396  0.0271  1.0610
  166DOPC    HB20097   2.902   4.737  17.445 -0.9493 -0.1959 -0.5217
  166DOPC    C220098   2.975   4.582  17.305  0.1050  0.7127  0.1592
  166DOPC    HS20099   3.039   4.494  17.328  2.7583  2.3945 -0.3338
  166DOPC   O2120100   3.036   4.677  17.216  0.0662 -0.2557 -0.2567
  166DOPC   C2120101   3.160   4.715  17.241 -0.2435 -0.6387  0.1025
  166DOPC   O2220102   3.232   4.678  17.330 -0.4622  0.2560 -0.6518
  166DOPC   C2220103   3.206   4.818  17.132 -0.4140 -0.8153  0.2280
  166DOPC   H2R20104   3.177   4.786  17.030  1.6883  0.6447 -0.9217
  166DOPC   H2S20105   3.316   4.823  17.147 -0.4243  0.7847 -0.1270
  166DOPC    C320106   2.835   4.547  17.252 -1.0932  0.5838  0.4271
  166DOPC    HX20107   2.758   4.620  17.286 -0.8760  0.5883  0.9200
  166DOPC    HY20108   2.812   4.451  17.303 -0.9937 -0.3256 -1.1826
  166DOPC   O3120109   2.836   4.517  17.114 -0.3199  0.1042  0.4608
  166DOPC   C3120110   2.772   4.610  17.034  0.3692  0.2306 -0.2264
  166DOPC   O3220111   2.712   4.708  17.078 -0.3731 -0.5428  0.4618
  166DOPC   C3220112   2.775   4.574  16.883 -0.0567 -0.3739  0.3172
  166DOPC   H2X20113   2.877   4.544  16.853 -0.1126  0.5798 -0.9063
  166DOPC   H2Y20114   2.700   4.494  16.862  0.2574 -0.0353 -2.5443
  166DOPC   C2320115   3.142   4.963  17.150  0.4578 -0.2484  0.5645
  166DOPC   H3R20116   3.211   5.020  17.084  1.4178 -1.0211  0.8779
  166DOPC   H3S20117   3.150   4.999  17.255 -0.1769 -2.1874  1.3258
  166DOPC   C2420118   2.992   4.981  17.110 -0.0019 -0.9065  0.6915
  166DOPC   H4R20119   2.934   4.933  17.192 -0.3843  0.4544  1.2423
  166DOPC   H4S20120   2.959   4.917  17.026 -1.5168 -0.9454  1.2909
  166DOPC   C2520121   2.951   5.126  17.100  0.4935  0.8669 -0.7665
  166DOPC   H5R20122   2.972   5.186  17.192  0.4458 -1.1288  0.6255
  166DOPC   H5S20123   2.840   5.121  17.107  0.1154  5.6899  0.4009
  166DOPC   C2620124   2.990   5.200  16.979 -0.1215  0.0832  0.3272
  166DOPC   H6R20125   3.101   5.200  16.976  0.1168  2.0464  3.6240
  166DOPC   H6S20126   2.957   5.306  16.991 -1.0275 -0.1067 -0.3440
  166DOPC   C2720127   2.924   5.145  16.847  0.0452  0.4320 -0.2985
  166DOPC   H7R20128   2.815   5.153  16.865 -0.5156 -1.8938 -2.1424
  166DOPC   H7S20129   2.954   5.038  16.845 -0.3022  0.0601  4.5599
  166DOPC   C2820130   2.974   5.218  16.724  0.0202  0.1641  0.0940
  166DOPC   H8R20131   3.075   5.176  16.708  0.2567  0.9801 -0.6452
  166DOPC   H8S20132   2.996   5.325  16.742  0.5131  0.5880 -2.6427
  166DOPC   C2920133   2.890   5.212  16.603  0.4474  0.2506  1.3690
  166DOPC   H9R20134   2.789   5.254  16.612 -0.2113 -0.9427 -0.0260
  166DOPC  C21020135   2.930   5.167  16.487 -0.0433  0.3412  0.4204
  166DOPC  H10R20136   2.865   5.166  16.399  0.3132 -1.7311  0.1285
  166DOPC  C21120137   3.062   5.105  16.444 -0.1326  0.1758  0.3764
  166DOPC  H11R20138   3.035   5.014  16.386  0.3237 -0.8964  1.8050
  166DOPC  H11S20139   3.121   5.073  16.532 -0.3554 -0.5871  0.2554
  166DOPC  C21220140   3.158   5.191  16.357  0.2705  0.2514  0.2982
  166DOPC  H12R20141   3.190   5.285  16.407 -0.1832  1.2698 -1.2760
  166DOPC  H12S20142   3.099   5.225  16.270  1.2789  2.9345  0.5574
  166DOPC  C21320143   3.292   5.127  16.313  0.7263 -0.2708  0.3937
  166DOPC  H13R20144   3.352   5.088  16.398 -0.3720  1.3036  1.9555
  166DOPC  H13S20145   3.358   5.199  16.261  1.5796  0.6543  2.6612
  166DOPC  C21420146   3.265   5.011  16.214  0.1424  0.6352  0.0041
  166DOPC  H14R20147   3.207   4.936  16.272 -0.4295  1.1313  0.0918
  166DOPC  H14S20148   3.367   4.974  16.194  0.2112  0.3214  0.8829
  166DOPC  C21520149   3.186   5.045  16.089 -0.1095 -0.0560  0.3302
  166DOPC  H15R20150   3.230   5.128  16.032 -1.3262 -0.1613 -0.8100
  166DOPC  H15S20151   3.083   5.077  16.118  0.4515  1.5884  0.5971
  166DOPC  C21620152   3.176   4.914  16.009  0.0157  0.5530  0.4549
  166DOPC  H16R20153   3.099   4.921  15.929 -0.4188  0.9267  0.9043
  166DOPC  H16S20154   3.139   4.829  16.070  0.3751 -0.9898 -1.3750
  166DOPC  C21720155   3.309   4.874  15.936  0.2553 -0.2704 -0.7165
  166DOPC  H17R20156   3.289   4.784  15.875  0.2076 -0.9532  0.2794
  166DOPC  H17S20157   3.382   4.844  16.015  0.4020 -0.5772 -0.9707
  166DOPC  C21820158   3.379   4.970  15.844 -0.3867  0.2118 -0.1173
  166DOPC  H18R20159   3.317   5.006  15.759 -0.4228 -0.2994 -0.3136
  166DOPC  H18S20160   3.463   4.910  15.803  0.0881  1.2559 -0.7072
  166DOPC  H18T20161   3.434   5.053  15.894 -0.2731  0.3754 -0.5067
  166DOPC   C3320162   2.723   4.700  16.804  0.0815  0.0146 -0.3370
  166DOPC   H3X20163   2.776   4.793  16.834 -1.8440  1.0502 -0.0024
  166DOPC   H3Y20164   2.614   4.713  16.824 -0.5934 -1.8731 -2.3704
  166DOPC   C3420165   2.726   4.671  16.651  0.2624  0.3408  0.2852
  166DOPC   H4X20166   2.665   4.581  16.631  0.7206  0.2342 -0.7211
  166DOPC   H4Y20167   2.829   4.656  16.610 -1.0377  0.1689 -3.3104
  166DOPC   C3520168   2.668   4.790  16.581  0.2041  0.4427  0.2483
  166DOPC   H5X20169   2.699   4.890  16.618 -2.0835  1.3622 -0.1435
  166DOPC   H5Y20170   2.558   4.792  16.592  0.0067 -2.0182 -0.6827
  166DOPC   C3620171   2.681   4.782  16.431  0.3503  0.2172  0.5648
  166DOPC   H6X20172   2.641   4.691  16.380  1.1858  0.9704 -1.5756
  166DOPC   H6Y20173   2.626   4.871  16.392  0.1344 -1.3066 -2.9560
  166DOPC   C3720174   2.827   4.800  16.391  0.0057  0.9635  0.5148
  166DOPC   H7X20175   2.873   4.894  16.428  1.2742  1.1759 -1.4746
  166DOPC   H7Y20176   2.874   4.707  16.431  1.5293  1.3124 -0.3789
  166DOPC   C3820177   2.869   4.804  16.242 -0.2937 -0.1870  0.2039
  166DOPC   H8X20178   2.859   4.702  16.199  0.8369 -0.3774  0.3586
  166DOPC   H8Y20179   2.979   4.814  16.233 -0.4964  1.4765 -0.8540
  166DOPC   C3920180   2.813   4.913  16.167 -0.0836 -0.1678  0.0341
  166DOPC   H9X20181   2.836   5.010  16.214  0.0550 -0.4998  0.6634
  166DOPC  C31020182   2.744   4.912  16.054 -0.4547 -0.4659  0.3504
  166DOPC  H10X20183   2.710   5.009  16.014 -0.1877  0.0915  1.4532
  166DOPC  C31120184   2.697   4.783  15.984  0.0523 -0.8490  0.2326
  166DOPC  H11X20185   2.598   4.792  15.934 -0.1311 -1.7004  0.4402
  166DOPC  H11Y20186   2.691   4.695  16.051  2.0661 -2.8521 -2.0039
  166DOPC  C31220187   2.800   4.737  15.878  0.3176  0.4551 -0.6899
  166DOPC  H12X20188   2.792   4.627  15.865 -0.9324  0.4303  0.1156
  166DOPC  H12Y20189   2.902   4.750  15.920  1.2470  0.3307 -2.8217
  166DOPC  C31320190   2.778   4.810  15.748 -0.1817 -0.1521 -0.8426
  166DOPC  H13X20191   2.670   4.807  15.721 -0.6402 -0.5070  0.8954
  166DOPC  H13Y20192   2.799   4.917  15.770 -3.4286  0.0294  2.3895
  166DOPC  C31420193   2.872   4.763  15.636  0.1868 -0.3710 -0.1113
  166DOPC  H14X20194   2.974   4.771  15.677  0.9391 -0.0682 -1.9469
  166DOPC  H14Y20195   2.849   4.655  15.620 -1.3310 -0.3257  1.4352
  166DOPC  C31520196   2.859   4.851  15.512  0.1542 -0.2374  0.2465
  166DOPC  H15X20197   2.951   4.823  15.455  1.1745  1.7362  0.8349
  166DOPC  H15Y20198   2.875   4.957  15.542 -1.1899 -0.2979  1.2516
  166DOPC  C31620199   2.723   4.828  15.432 -0.8736 -0.3124 -0.7019
  166DOPC  H16X20200   2.646   4.889  15.485 -0.2571  0.2933 -0.4831
  166DOPC  H16Y20201   2.744   4.873  15.333  1.9633  1.1911  0.4752
  166DOPC  C31720202   2.696   4.685  15.400 -0.1024 -0.3609 -0.1774
  166DOPC  H17X20203   2.792   4.633  15.379 -1.2379 -2.1648 -1.0608
  166DOPC  H17Y20204   2.652   4.635  15.489  2.0603 -0.7072  0.7731
  166DOPC  C31820205   2.608   4.665  15.277  0.5243  0.8908 -0.2651
  166DOPC  H18X20206   2.652   4.703  15.183 -1.4702 -0.0126 -1.6340
  166DOPC  H18Y20207   2.579   4.561  15.249  1.8559  0.2018  0.8241
  166DOPC  H18Z20208   2.519   4.731  15.290 -0.9854 -1.0016 -0.4422
  167DOPC     N20209   2.392   3.049  17.365  0.0611 -0.7429 -0.6695
  167DOPC   C1220210   2.400   3.120  17.495  0.5915  0.1854  0.5918
  167DOPC  H12A20211   2.343   3.212  17.493 -1.2353 -0.8714  1.5394
  167DOPC  H12B20212   2.497   3.162  17.518 -0.5372  1.7314  2.9480
  167DOPC   C1320213   2.255   2.991  17.345 -0.7809  0.3067  0.4761
  167DOPC  H13A20214   2.184   3.063  17.308 -2.7745 -0.5425  2.4200
  167DOPC  H13B20215   2.265   2.921  17.264 -0.7980  0.2633  0.5130
  167DOPC  H13C20216   2.208   2.935  17.425 -0.5423  0.4863  0.7479
  167DOPC   C1420217   2.490   2.943  17.346 -0.6723  0.2609  0.4599
  167DOPC  H14A20218   2.591   2.980  17.357  0.3466 -1.9293 -0.8686
  167DOPC  H14B20219   2.485   2.863  17.418 -0.3245  0.4597  0.7121
  167DOPC  H14C20220   2.468   2.900  17.250 -1.1839  0.7939  0.3377
  167DOPC   C1520221   2.426   3.157  17.258  0.0916  0.1521 -0.0698
  167DOPC  H15A20222   2.449   3.112  17.162 -0.8935  0.3448 -0.4091
  167DOPC  H15B20223   2.518   3.210  17.277  0.9386 -0.9761 -0.9080
  167DOPC  H15C20224   2.343   3.226  17.256 -1.8356 -1.8294  3.1591
  167DOPC   C1120225   2.357   3.044  17.623  0.0564  0.1564 -0.5611
  167DOPC  H11A20226   2.406   2.945  17.614 -0.3227  0.0255 -1.2861
  167DOPC  H11B20227   2.418   3.086  17.706  1.0147  0.5306 -1.4287
  167DOPC     P20228   2.135   3.148  17.711  0.3131 -0.3780 -0.1846
  167DOPC   O1320229   2.194   3.173  17.848 -0.2068 -0.0015  0.4323
  167DOPC   O1420230   1.995   3.104  17.723 -0.2761 -0.0176  0.4069
  167DOPC   O1220231   2.214   3.033  17.644  0.1243  0.2831 -0.2013
  167DOPC   O1120232   2.161   3.272  17.623 -0.2286 -0.2440  0.6872
  167DOPC    C120233   2.082   3.302  17.503  1.1420  0.3061  0.0598
  167DOPC    HA20234   2.032   3.215  17.457 -1.4986  1.6919  0.0908
  167DOPC    HB20235   2.143   3.356  17.427  1.8638 -0.9740 -0.2898
  167DOPC    C220236   1.944   3.377  17.535 -0.8338  0.1858  0.6290
  167DOPC    HS20237   1.921   3.354  17.641  2.8300  0.4473  1.6147
  167DOPC   O2120238   1.839   3.327  17.452 -0.5615 -0.5344  0.0021
  167DOPC   C2120239   1.711   3.372  17.465  0.0937 -0.7920 -0.4003
  167DOPC   O2220240   1.675   3.440  17.555 -0.0045 -0.1699 -0.0965
  167DOPC   C2220241   1.626   3.322  17.351  0.2330 -1.0667  0.0446
  167DOPC   H2R20242   1.520   3.320  17.381  0.1041  4.4092  1.0078
  167DOPC   H2S20243   1.659   3.218  17.330 -1.1457 -1.6283  0.5682
  167DOPC    C320244   1.958   3.532  17.536  0.2759  0.2289  0.0411
  167DOPC    HX20245   2.053   3.542  17.594 -0.1743 -0.1388  0.8625
  167DOPC    HY20246   1.877   3.574  17.598  0.6291  0.8181  0.1139
  167DOPC   O3120247   1.962   3.589  17.403 -0.5598  0.1525 -0.1615
  167DOPC   C3120248   1.989   3.725  17.400  0.2483 -0.5763 -0.5409
  167DOPC   O3220249   2.029   3.787  17.493  0.3539 -0.4000 -0.4960
  167DOPC   C3220250   1.994   3.777  17.259  0.4502 -0.1425 -0.4959
  167DOPC   H2X20251   1.916   3.856  17.258  0.1175 -0.4275 -3.0186
  167DOPC   H2Y20252   2.093   3.825  17.244  1.0402 -1.1080  0.1590
  167DOPC   C2320253   1.639   3.420  17.237  0.4953  0.1356 -0.3698
  167DOPC   H3R20254   1.739   3.469  17.229  0.0350  0.7988 -2.8977
  167DOPC   H3S20255   1.573   3.504  17.269 -0.5011 -0.0710 -1.8144
  167DOPC   C2420256   1.595   3.363  17.102 -0.8810 -0.0142  0.1569
  167DOPC   H4R20257   1.498   3.313  17.118 -0.7180 -0.1626  0.6828
  167DOPC   H4S20258   1.673   3.285  17.090 -1.5651 -1.0574  2.0736
  167DOPC   C2520259   1.593   3.470  16.993  0.2765  0.0472 -0.2228
  167DOPC   H5R20260   1.689   3.527  16.997  0.3657 -0.0870 -0.4493
  167DOPC   H5S20261   1.507   3.536  17.019  0.4198 -0.2253  0.9959
  167DOPC   C2620262   1.580   3.414  16.851  0.3058 -0.0251  0.4990
  167DOPC   H6R20263   1.499   3.340  16.868  0.4616 -0.2470  0.2872
  167DOPC   H6S20264   1.666   3.356  16.810  1.3836  1.7510  0.1487
  167DOPC   C2720265   1.538   3.514  16.750 -0.2045 -0.9124 -0.3706
  167DOPC   H7R20266   1.610   3.598  16.737 -0.3450 -0.8639 -0.8941
  167DOPC   H7S20267   1.439   3.546  16.787  0.0184 -1.1843  0.4634
  167DOPC   C2820268   1.495   3.460  16.612 -0.1118 -0.3602  0.2070
  167DOPC   H8R20269   1.449   3.549  16.563  1.3879  0.5662  0.3887
  167DOPC   H8S20270   1.430   3.372  16.630 -1.2430  0.1071 -1.3501
  167DOPC   C2920271   1.615   3.422  16.530 -0.0277 -0.2657  0.2585
  167DOPC   H9R20272   1.646   3.318  16.552 -0.6489 -0.9468 -1.8471
  167DOPC  C21020273   1.664   3.475  16.421 -0.3127 -0.5467 -0.6616
  167DOPC  H10R20274   1.742   3.420  16.367 -0.0065  0.0305 -0.8142
  167DOPC  C21120275   1.619   3.606  16.357  0.3851 -0.0021  0.2618
  167DOPC  H11R20276   1.712   3.662  16.334  1.5542 -1.9740 -0.1282
  167DOPC  H11S20277   1.566   3.667  16.432 -0.3305 -0.1808 -0.0804
  167DOPC  C21220278   1.523   3.572  16.246 -0.0100  0.3909 -0.0886
  167DOPC  H12R20279   1.454   3.489  16.270  0.6718 -0.0717  0.3133
  167DOPC  H12S20280   1.457   3.657  16.219 -0.7622 -0.2328 -0.2514
  167DOPC  C21320281   1.587   3.524  16.112  1.0778  0.3542  0.4433
  167DOPC  H13R20282   1.624   3.419  16.116 -0.5762 -0.2264  0.9958
  167DOPC  H13S20283   1.666   3.596  16.081  0.6037  1.4962  1.8105
  167DOPC  C21420284   1.485   3.514  15.996  0.1889 -0.1654 -0.0918
  167DOPC  H14R20285   1.423   3.606  16.004  0.8690  0.5182 -1.9185
  167DOPC  H14S20286   1.411   3.438  16.027 -0.6710  1.3461  1.7353
  167DOPC  C21520287   1.539   3.494  15.854  0.3529 -0.1501 -0.3418
  167DOPC  H15R20288   1.650   3.495  15.849  0.3747 -0.1469  0.0672
  167DOPC  H15S20289   1.496   3.577  15.795 -2.2279  0.2284  1.8861
  167DOPC  C21620290   1.494   3.358  15.787 -0.2725 -0.5425  0.3652
  167DOPC  H16R20291   1.384   3.344  15.785 -0.3402  0.0565 -1.2805
  167DOPC  H16S20292   1.529   3.281  15.859 -1.9109 -0.2026  1.5808
  167DOPC  C21720293   1.551   3.342  15.645  0.4672 -0.0161 -0.3738
  167DOPC  H17R20294   1.509   3.241  15.626  0.4147 -0.8869  3.6418
  167DOPC  H17S20295   1.661   3.347  15.635  0.6663 -1.6889  0.6602
  167DOPC  C21820296   1.477   3.430  15.536  0.2470  0.5244 -0.2239
  167DOPC  H18R20297   1.368   3.408  15.541  0.9582 -4.9438 -1.9630
  167DOPC  H18S20298   1.519   3.440  15.434 -1.4314  1.2440 -0.8761
  167DOPC  H18T20299   1.485   3.536  15.568 -0.0555  0.5914 -0.3717
  167DOPC   C3320300   1.956   3.680  17.145  0.0394 -0.1165  0.0631
  167DOPC   H3X20301   1.846   3.665  17.148 -0.0515  0.2810 -0.8520
  167DOPC   H3Y20302   2.010   3.584  17.156  1.0164  0.4142  0.1140
  167DOPC   C3420303   2.000   3.736  17.009  0.1886  0.3159  0.0201
  167DOPC   H4X20304   2.111   3.748  17.002  0.6061 -0.1430  3.9750
  167DOPC   H4Y20305   1.966   3.839  16.985 -0.3336 -0.3961 -2.6909
  167DOPC   C3520306   1.955   3.651  16.895 -0.2947  0.5777  0.0707
  167DOPC   H5X20307   1.844   3.641  16.897 -0.1972 -0.6341  1.9529
  167DOPC   H5Y20308   1.987   3.546  16.915 -0.8388  0.2553 -0.6676
  167DOPC   C3620309   2.008   3.693  16.757 -0.0465  0.1918  0.1014
  167DOPC   H6X20310   1.964   3.795  16.747 -0.8113 -0.2355 -1.2156
  167DOPC   H6Y20311   2.119   3.695  16.758 -0.0258  0.1684 -1.0290
  167DOPC   C3720312   1.963   3.597  16.646  0.5071  0.3222 -0.7137
  167DOPC   H7X20313   1.969   3.493  16.685  1.2419 -0.2130 -2.2106
  167DOPC   H7Y20314   1.854   3.615  16.631  0.4047 -0.1022 -0.5052
  167DOPC   C3820315   2.046   3.606  16.522 -0.0962 -0.1422  0.6627
  167DOPC   H8X20316   1.982   3.552  16.449 -3.0514  2.2934  1.2470
  167DOPC   H8Y20317   2.152   3.576  16.536  0.6249  0.7858 -2.2050
  167DOPC   C3920318   2.061   3.750  16.475 -0.6742 -0.1111  0.1250
  167DOPC   H9X20319   2.000   3.829  16.522 -2.2588 -0.8784 -0.5854
  167DOPC  C31020320   2.149   3.792  16.382 -0.3138  0.5367 -0.2375
  167DOPC  H10X20321   2.140   3.892  16.338 -0.0548  0.3719 -0.6681
  167DOPC  C31120322   2.231   3.696  16.300 -0.5674  0.1795 -0.0615
  167DOPC  H11X20323   2.224   3.588  16.321 -1.5309 -0.2355 -2.1970
  167DOPC  H11Y20324   2.337   3.728  16.302 -0.0041 -1.6532  0.5651
  167DOPC  C31220325   2.195   3.712  16.150  0.0030  0.2962  0.5740
  167DOPC  H12X20326   2.275   3.670  16.085 -0.6550  0.4790 -0.3832
  167DOPC  H12Y20327   2.183   3.819  16.123 -0.3868  0.3756  1.0485
  167DOPC  C31320328   2.068   3.632  16.114  0.2593 -0.2157  0.4242
  167DOPC  H13X20329   2.094   3.525  16.129  0.9436 -0.2717 -0.9812
  167DOPC  H13Y20330   1.984   3.663  16.180 -0.4246 -0.0658 -0.5060
  167DOPC  C31420331   2.016   3.648  15.969 -0.5877 -0.4919 -0.2068
  167DOPC  H14X20332   1.931   3.576  15.973 -1.1556  0.1900  2.8459
  167DOPC  H14Y20333   1.976   3.749  15.948 -2.8223 -1.3304 -0.2663
  167DOPC  C31520334   2.118   3.593  15.864  0.1624 -0.1760  0.4058
  167DOPC  H15X20335   2.142   3.497  15.914  1.1342  0.0884  0.4798
  167DOPC  H15Y20336   2.215   3.644  15.843  0.2178 -0.3359  0.2746
  167DOPC  C31620337   2.052   3.561  15.725  0.3224  0.5787 -0.5229
  167DOPC  H16X20338   1.951   3.522  15.749  0.3233  1.0446  0.2827
  167DOPC  H16Y20339   2.043   3.657  15.669 -1.1525  0.1778 -1.0258
  167DOPC  C31720340   2.124   3.461  15.639 -0.1858 -0.4440 -0.7959
  167DOPC  H17X20341   2.218   3.510  15.605  1.0488 -2.4816 -0.4458
  167DOPC  H17Y20342   2.160   3.372  15.695 -1.3509 -0.0315  0.6940
  167DOPC  C31820343   2.029   3.409  15.530  0.0323  0.1006  0.1669
  167DOPC  H18X20344   1.967   3.493  15.493  0.9200  0.7261  0.0877
  167DOPC  H18Y20345   2.096   3.379  15.447  0.5183  1.7223 -0.0484
  167DOPC  H18Z20346   1.970   3.323  15.568  0.4227 -0.5943 -0.7560
  168DOPC     N20347   5.165   1.986  17.588 -0.1953  0.8606 -0.1004
  168DOPC   C1220348   5.134   1.983  17.442  0.2438  0.2291  0.4857
  168DOPC  H12A20349   5.110   1.881  17.414 -1.0704  0.6023  0.1769
  168DOPC  H12B20350   5.217   2.016  17.381 -0.2599 -3.8726 -2.9010
  168DOPC   C1320351   5.273   1.889  17.618 -0.2037 -0.2583  0.3026
  168DOPC  H13A20352   5.364   1.930  17.576 -0.3719  2.2953  2.1848
  168DOPC  H13B20353   5.297   1.879  17.722  2.6815 -1.5840 -0.3858
  168DOPC  H13C20354   5.258   1.787  17.585 -1.0732  0.0012 -0.1217
  168DOPC   C1420355   5.040   1.939  17.652 -0.0132  0.5403  0.4922
  168DOPC  H14A20356   4.961   2.000  17.611 -1.5805 -0.0370  2.5062
  168DOPC  H14B20357   5.031   1.835  17.625  0.9878  0.5084  0.2156
  168DOPC  H14C20358   5.053   1.962  17.757 -1.7203  2.7360  0.3063
  168DOPC   C1520359   5.211   2.123  17.624  0.0936  0.2509  0.4501
  168DOPC  H15A20360   5.296   2.157  17.566  0.3118  1.1972  1.2957
  168DOPC  H15B20361   5.238   2.113  17.728  0.1204 -1.9891  0.2636
  168DOPC  H15C20362   5.133   2.197  17.613  1.5941  1.6322 -1.8091
  168DOPC   C1120363   5.011   2.073  17.398  0.3915 -0.6322  0.2071
  168DOPC  H11A20364   5.020   2.174  17.443  1.2107  1.0802 -3.4852
  168DOPC  H11B20365   5.018   2.097  17.290  0.2503  0.9060  0.5087
  168DOPC     P20366   4.822   1.910  17.345 -0.4052  0.0720  0.1245
  168DOPC   O1320367   4.683   1.879  17.384  0.5279 -0.4386  0.4883
  168DOPC   O1420368   4.919   1.801  17.338 -0.1633 -0.0502 -0.1656
  168DOPC   O1220369   4.879   2.026  17.439  0.1944  0.3298  0.8957
  168DOPC   O1120370   4.807   1.981  17.204  0.6490  1.0855 -0.1051
  168DOPC    C120371   4.743   2.106  17.185  0.2209  0.1485  0.1858
  168DOPC    HA20372   4.770   2.176  17.267 -0.2018 -0.1757  0.6180
  168DOPC    HB20373   4.633   2.095  17.200  0.1191  1.0710  0.1284
  168DOPC    C220374   4.766   2.180  17.045  0.3813  0.1046  0.0603
  168DOPC    HS20375   4.709   2.274  17.028 -0.7897 -0.5690  0.0997
  168DOPC   O2120376   4.742   2.086  16.932 -0.0050 -0.5540 -0.4329
  168DOPC   C2120377   4.617   2.070  16.900  0.6569  0.0126  0.0132
  168DOPC   O2220378   4.517   2.128  16.947 -0.0115  0.3153 -0.2445
  168DOPC   C2220379   4.620   1.975  16.777  0.3726 -0.3276  0.1183
  168DOPC   H2R20380   4.515   1.946  16.757  0.3434 -0.0480 -0.1401
  168DOPC   H2S20381   4.691   1.891  16.797 -0.7750 -1.4789 -0.4884
  168DOPC    C320382   4.917   2.229  17.032 -0.4581  0.0467 -0.0224
  168DOPC    HX20383   4.973   2.135  17.054 -0.9477 -0.4313 -0.7517
  168DOPC    HY20384   4.936   2.312  17.103  2.0296  0.7076 -1.3429
  168DOPC   O3120385   4.937   2.288  16.902  0.0771  0.3478  0.7454
  168DOPC   C3120386   5.002   2.214  16.810 -0.1983 -0.2081  0.0266
  168DOPC   O3220387   5.050   2.109  16.836  0.2318  0.7977  0.1385
  168DOPC   C3220388   5.009   2.279  16.672  0.3962  0.0368 -0.2384
  168DOPC   H2X20389   4.910   2.326  16.651  1.4560  2.3063 -0.4484
  168DOPC   H2Y20390   5.079   2.365  16.673  0.4789 -0.0326 -0.0148
  168DOPC   C2320391   4.660   2.051  16.648 -0.1429  0.2840 -0.3048
  168DOPC   H3R20392   4.761   2.093  16.665  0.4607 -0.4225 -1.8704
  168DOPC   H3S20393   4.590   2.136  16.636  0.0992  0.3850 -1.0660
  168DOPC   C2420394   4.676   1.965  16.522 -1.0026  0.5177  0.0276
  168DOPC   H4R20395   4.590   1.894  16.517  0.5508 -1.7745  3.0646
  168DOPC   H4S20396   4.761   1.896  16.541 -0.0480  0.6579 -3.1460
  168DOPC   C2520397   4.682   2.040  16.395  0.4209 -0.4440  0.7004
  168DOPC   H5R20398   4.777   2.096  16.399 -1.4882  3.2206 -0.3886
  168DOPC   H5S20399   4.590   2.102  16.381  1.1220  1.2403  3.0112
  168DOPC   C2620400   4.707   1.951  16.272  0.8146 -0.6297 -0.3638
  168DOPC   H6R20401   4.632   1.870  16.283 -1.5410  1.4263 -0.3768
  168DOPC   H6S20402   4.809   1.907  16.282  0.4546 -1.1744  1.3067
  168DOPC   C2720403   4.691   2.016  16.137 -0.1921 -0.5650 -0.1323
  168DOPC   H7R20404   4.732   2.118  16.152 -1.0961  0.1349 -2.1028
  168DOPC   H7S20405   4.588   2.031  16.099  0.5795  1.4251 -1.6171
  168DOPC   C2820406   4.780   1.952  16.029  0.0440 -0.4050 -0.2004
  168DOPC   H8R20407   4.884   1.947  16.066 -0.3085 -0.3792  0.8289
  168DOPC   H8S20408   4.781   2.037  15.957 -0.0436 -0.0874  0.1716
  168DOPC   C2920409   4.732   1.827  15.971  0.3916  0.3735 -0.1090
  168DOPC   H9R20410   4.754   1.740  16.035 -0.8681  0.4177  0.4085
  168DOPC  C21020411   4.638   1.802  15.870 -0.3275 -0.1724  0.1442
  168DOPC  H10R20412   4.627   1.699  15.833  2.4686 -0.4689 -0.0322
  168DOPC  C21120413   4.576   1.910  15.780  0.3190  0.1736 -0.8192
  168DOPC  H11R20414   4.609   2.014  15.801 -1.1138  0.6584 -0.8440
  168DOPC  H11S20415   4.469   1.912  15.811  0.4810  0.0862 -0.2439
  168DOPC  C21220416   4.587   1.891  15.628  0.2903 -0.2594  0.3114
  168DOPC  H12R20417   4.522   1.971  15.588  1.7887  1.6953  1.5833
  168DOPC  H12S20418   4.542   1.795  15.596  0.2578 -0.1147 -0.0790
  168DOPC  C21320419   4.725   1.893  15.567 -0.5338  0.3039  0.2438
  168DOPC  H13R20420   4.792   1.819  15.615 -3.0169 -1.9550  0.4826
  168DOPC  H13S20421   4.764   1.993  15.596  1.6934 -0.0582 -1.2713
  168DOPC  C21420422   4.728   1.877  15.415  0.0830 -0.4347  0.4638
  168DOPC  H14R20423   4.830   1.911  15.387 -0.3533  1.8928  1.4557
  168DOPC  H14S20424   4.654   1.951  15.378  0.2451 -0.7469 -0.5244
  168DOPC  C21520425   4.685   1.732  15.367 -0.5185  0.4319 -0.2972
  168DOPC  H15R20426   4.581   1.715  15.400 -0.5612  0.5694 -0.3584
  168DOPC  H15S20427   4.751   1.662  15.421 -0.6876  1.2074  0.9520
  168DOPC  C21620428   4.707   1.702  15.222  0.2878  0.9894  0.5770
  168DOPC  H16R20429   4.813   1.726  15.196  0.9031 -0.0937  1.9439
  168DOPC  H16S20430   4.640   1.769  15.164 -1.3716 -0.8402  0.2516
  168DOPC  C21720431   4.669   1.555  15.178 -0.0314  0.7120  0.1439
  168DOPC  H17R20432   4.560   1.531  15.176  0.6502 -2.8674 -1.4328
  168DOPC  H17S20433   4.718   1.480  15.243 -0.3858  0.1420 -0.2389
  168DOPC  C21820434   4.723   1.524  15.033  0.5015 -0.0019  0.0833
  168DOPC  H18R20435   4.749   1.418  15.012 -0.8068 -0.1073 -1.0681
  168DOPC  H18S20436   4.814   1.584  15.012  0.1993  0.1175 -0.9366
  168DOPC  H18T20437   4.645   1.551  14.960 -0.1978 -0.8613  0.4844
  168DOPC   C3320438   5.048   2.177  16.565 -0.4294 -0.4520 -0.1847
  168DOPC   H3X20439   4.976   2.093  16.555 -0.4812 -0.2372 -2.0415
  168DOPC   H3Y20440   5.148   2.135  16.587  0.4446  1.2599 -0.6931
  168DOPC   C3420441   5.059   2.244  16.421 -0.3264  0.2257 -0.1634
  168DOPC   H4X20442   5.125   2.332  16.434  1.8700 -1.4932  1.0040
  168DOPC   H4Y20443   4.958   2.284  16.399  0.4385  1.3263 -1.8055
  168DOPC   C3520444   5.103   2.153  16.301 -0.8734 -0.1926 -0.4825
  168DOPC   H5X20445   5.035   2.069  16.276  2.4431 -3.2594 -0.0017
  168DOPC   H5Y20446   5.197   2.099  16.327 -1.1664 -0.2171  0.5533
  168DOPC   C3620447   5.125   2.233  16.174  1.1216 -0.6140 -0.2858
  168DOPC   H6X20448   5.035   2.293  16.151  0.6791 -0.4756  1.6276
  168DOPC   H6Y20449   5.216   2.295  16.189  1.5964 -0.7179 -2.4086
  168DOPC   C3720450   5.160   2.138  16.058  0.2629 -0.8729  0.2666
  168DOPC   H7X20451   5.245   2.077  16.096 -0.8485 -1.1940  2.3882
  168DOPC   H7Y20452   5.069   2.077  16.037 -1.2015  1.1061  0.6220
  168DOPC   C3820453   5.210   2.210  15.937  0.1128 -0.5110 -0.5665
  168DOPC   H8X20454   5.299   2.271  15.960  0.5324 -1.6682  1.0759
  168DOPC   H8Y20455   5.132   2.276  15.894  0.6345  0.9146  0.6185
  168DOPC   C3920456   5.272   2.107  15.850 -0.0979  0.5199  0.9173
  168DOPC   H9X20457   5.380   2.089  15.858 -0.2608  0.0824  2.3048
  168DOPC  C31020458   5.201   2.042  15.755 -0.3198 -0.3358 -0.9845
  168DOPC  H10X20459   5.263   1.979  15.690  2.2454 -0.2874  1.2320
  168DOPC  C31120460   5.058   2.061  15.716 -0.0033  0.3626 -0.0297
  168DOPC  H11X20461   4.991   2.099  15.796 -2.1618 -1.3491 -0.9268
  168DOPC  H11Y20462   5.012   1.965  15.685  2.9490 -1.2072  0.1725
  168DOPC  C31220463   5.047   2.146  15.586 -0.2525  0.2674 -0.9425
  168DOPC  H12X20464   5.115   2.233  15.601 -0.6530  0.6962 -1.5656
  168DOPC  H12Y20465   4.941   2.178  15.580 -1.0295 -2.0499 -0.6623
  168DOPC  C31320466   5.096   2.087  15.454  0.1978  0.4816  0.3190
  168DOPC  H13X20467   5.102   1.976  15.465 -1.7761  0.2753 -0.2258
  168DOPC  H13Y20468   5.022   2.099  15.372  0.9260 -2.5851 -0.9583
  168DOPC  C31420469   5.240   2.133  15.400  0.1572 -0.1382 -0.2737
  168DOPC  H14X20470   5.231   2.234  15.354 -0.1747  0.0187  0.1257
  168DOPC  H14Y20471   5.302   2.155  15.490 -2.5276 -1.7733  2.1436
  168DOPC  C31520472   5.309   2.039  15.301  0.2704 -0.3352 -0.1163
  168DOPC  H15X20473   5.255   2.020  15.206 -0.4105 -0.0490  0.2085
  168DOPC  H15Y20474   5.313   1.935  15.339  1.8707  0.2591  1.4557
  168DOPC  C31620475   5.457   2.086  15.267  0.1667 -0.4061  0.7099
  168DOPC  H16X20476   5.505   2.089  15.367  0.3330  2.3685  0.6037
  168DOPC  H16Y20477   5.512   2.020  15.196 -0.2978  0.9068 -0.9097
  168DOPC  C31720478   5.455   2.232  15.222  0.0264  0.9644 -0.5236
  168DOPC  H17X20479   5.386   2.261  15.140  0.2591 -1.4145 -1.6390
  168DOPC  H17Y20480   5.428   2.278  15.320 -1.9210 -1.4437  0.1589
  168DOPC  C31820481   5.598   2.277  15.189  0.3659  0.2064  0.5327
  168DOPC  H18X20482   5.633   2.241  15.090  0.3597 -0.3803  0.7449
  168DOPC  H18Y20483   5.595   2.388  15.175  0.4872  0.1157 -0.2557
  168DOPC  H18Z20484   5.675   2.256  15.266  0.0235 -0.3662  0.7230
  169DOPC     N20485   2.802   2.515  17.437  0.4490 -0.3706  0.1365
  169DOPC   C1220486   2.943   2.522  17.379 -0.3197  0.2618 -0.5354
  169DOPC  H12A20487   2.943   2.466  17.286 -0.0393  1.6189 -1.3814
  169DOPC  H12B20488   2.999   2.471  17.456  0.7496  2.5721  0.3072
  169DOPC   C1320489   2.714   2.605  17.350  0.0706 -0.0748 -0.2318
  169DOPC  H13A20490   2.724   2.573  17.248  0.2076 -0.4082 -0.1151
  169DOPC  H13B20491   2.609   2.604  17.374 -0.3498 -0.3937 -1.9564
  169DOPC  H13C20492   2.744   2.708  17.361 -0.7100 -0.0037  1.7481
  169DOPC   C1420493   2.807   2.562  17.580  0.7728 -0.5260 -0.2692
  169DOPC  H14A20494   2.859   2.488  17.639  0.3742  1.2549  2.4828
  169DOPC  H14B20495   2.864   2.652  17.596  0.4421 -0.4638  0.6033
  169DOPC  H14C20496   2.707   2.569  17.621  1.0222 -0.0226  0.2504
  169DOPC   C1520497   2.744   2.373  17.441  0.5671  0.1113 -0.4052
  169DOPC  H15A20498   2.801   2.320  17.515  1.5307  1.6775  0.0296
  169DOPC  H15B20499   2.757   2.318  17.349  0.1307  3.0152 -2.3427
  169DOPC  H15C20500   2.642   2.372  17.476  1.0313 -0.8282  1.0004
  169DOPC   C1120501   3.010   2.656  17.349 -0.1340 -0.2866 -0.2653
  169DOPC  H11A20502   3.106   2.637  17.298 -1.0316 -2.0516 -1.3938
  169DOPC  H11B20503   2.960   2.706  17.263 -2.1105 -1.7369 -0.0212
  169DOPC     P20504   3.146   2.747  17.554 -0.1017 -0.3215 -0.2566
  169DOPC   O1320505   3.212   2.611  17.561  0.2245 -0.2499  0.6233
  169DOPC   O1420506   3.101   2.806  17.678  0.5507  0.1500  0.2804
  169DOPC   O1220507   3.022   2.749  17.453  0.3788  0.2253 -0.2823
  169DOPC   O1120508   3.238   2.844  17.473 -0.0224  0.3921 -0.9165
  169DOPC    C120509   3.247   2.988  17.484 -0.2800 -0.4266  0.1055
  169DOPC    HA20510   3.350   3.017  17.514 -0.5462 -1.1642  1.8335
  169DOPC    HB20511   3.196   3.029  17.573  0.6289  0.1738  0.3620
  169DOPC    C220512   3.192   3.060  17.359  1.1413  0.5673  1.0229
  169DOPC    HS20513   3.085   3.031  17.364  0.6859  1.9663 -0.0145
  169DOPC   O2120514   3.260   3.007  17.237 -0.2702 -0.0495  0.0487
  169DOPC   C2120515   3.189   3.009  17.126  0.1419  0.2752  0.5630
  169DOPC   O2220516   3.068   3.025  17.116 -0.0389  0.1304 -0.0106
  169DOPC   C2220517   3.289   2.992  17.009  0.6003 -0.5503 -0.7943
  169DOPC   H2R20518   3.231   3.015  16.918  1.8462  3.0671 -0.8140
  169DOPC   H2S20519   3.320   2.886  16.998  2.7578 -0.2020  1.0891
  169DOPC    C320520   3.205   3.216  17.373  0.0857  0.4158  0.1964
  169DOPC    HX20521   3.306   3.236  17.417 -0.1626 -0.7002  1.3360
  169DOPC    HY20522   3.138   3.259  17.451  1.3937  0.6894  1.2041
  169DOPC   O3120523   3.199   3.280  17.246  0.3926 -0.2644  0.1294
  169DOPC   C3120524   3.087   3.343  17.214 -0.1919 -0.4428 -0.0503
  169DOPC   O3220525   2.988   3.359  17.290  0.0727 -0.1256 -0.3122
  169DOPC   C3220526   3.114   3.416  17.088 -0.1360 -1.1331 -0.4297
  169DOPC   H2X20527   3.152   3.514  17.125  1.6773 -1.9148 -0.0950
  169DOPC   H2Y20528   3.187   3.366  17.021 -0.0240  0.3211 -1.4445
  169DOPC   C2320529   3.399   3.094  17.016 -0.9237 -0.5143 -0.6996
  169DOPC   H3R20530   3.474   3.055  17.086  1.0475 -0.9636 -2.9334
  169DOPC   H3S20531   3.364   3.183  17.073  2.3135  0.2842  0.2374
  169DOPC   C2420532   3.465   3.131  16.889  0.4598  0.0362 -0.1518
  169DOPC   H4R20533   3.497   3.035  16.845  1.5554  1.8204 -3.5914
  169DOPC   H4S20534   3.550   3.200  16.905 -0.7600  0.9021  3.8216
  169DOPC   C2520535   3.363   3.181  16.781  0.1789 -0.0175  0.4235
  169DOPC   H5R20536   3.400   3.277  16.740  0.4011 -0.2439  0.0821
  169DOPC   H5S20537   3.264   3.199  16.827  0.1032  0.5915  0.0361
  169DOPC   C2620538   3.330   3.085  16.667 -0.0174 -0.1771 -0.4496
  169DOPC   H6R20539   3.281   2.989  16.692 -0.7106  0.0352 -0.9581
  169DOPC   H6S20540   3.430   3.052  16.632  0.0442  0.9904 -1.4163
  169DOPC   C2720541   3.271   3.153  16.548  0.3516  0.1031 -0.3171
  169DOPC   H7R20542   3.311   3.257  16.553 -1.7681  0.9560  0.6373
  169DOPC   H7S20543   3.160   3.157  16.559  0.3644  4.4580  0.1276
  169DOPC   C2820544   3.309   3.102  16.408  0.9544  0.5978 -0.1901
  169DOPC   H8R20545   3.263   3.004  16.382  1.5759  0.0883  0.5808
  169DOPC   H8S20546   3.420   3.089  16.402  0.9029  0.2862 -0.5283
  169DOPC   C2920547   3.267   3.206  16.307 -0.7497  0.5605  0.7693
  169DOPC   H9R20548   3.224   3.299  16.346  1.8972  1.7105  1.0997
  169DOPC  C21020549   3.292   3.198  16.173 -0.0699  0.0618 -0.0045
  169DOPC  H10R20550   3.267   3.274  16.097  2.2756 -0.2223 -1.1645
  169DOPC  C21120551   3.368   3.090  16.104 -0.2193 -0.2004  0.0194
  169DOPC  H11R20552   3.431   3.025  16.167  3.5678  1.0458 -2.1583
  169DOPC  H11S20553   3.434   3.122  16.020  0.0440 -3.0752 -0.9793
  169DOPC  C21220554   3.284   2.980  16.026  0.2792  0.4933 -0.8735
  169DOPC  H12R20555   3.206   2.935  16.091 -1.1520  2.5782 -1.0431
  169DOPC  H12S20556   3.342   2.891  15.992 -1.7796 -1.0639 -0.5280
  169DOPC  C21320557   3.208   3.048  15.910  0.2509  0.4375 -0.4465
  169DOPC  H13R20558   3.156   3.141  15.941 -0.2369  0.3693 -1.0485
  169DOPC  H13S20559   3.127   2.980  15.876  0.7302 -1.4448  1.9675
  169DOPC  C21420560   3.290   3.092  15.792 -0.1083  0.5976 -0.1965
  169DOPC  H14R20561   3.322   2.997  15.743  0.7485 -0.6667  2.5712
  169DOPC  H14S20562   3.384   3.144  15.822 -0.7458  1.3154  0.6024
  169DOPC  C21520563   3.222   3.184  15.687 -0.4434  0.6946 -0.2225
  169DOPC  H15R20564   3.305   3.195  15.615 -0.4248 -2.7893 -0.9113
  169DOPC  H15S20565   3.193   3.278  15.739 -0.7380  0.9878 -0.9037
  169DOPC  C21620566   3.107   3.131  15.597  0.3952 -0.6929 -0.8205
  169DOPC  H16R20567   3.012   3.121  15.653  0.2586  2.1389 -0.3648
  169DOPC  H16S20568   3.139   3.031  15.562  1.2628 -0.9102  0.5049
  169DOPC  C21720569   3.089   3.216  15.471 -0.2853 -1.2801  0.4540
  169DOPC  H17R20570   3.184   3.210  15.414 -0.1798  3.0185 -0.1308
  169DOPC  H17S20571   3.089   3.321  15.508  1.9179 -1.2947  0.6265
  169DOPC  C21820572   2.978   3.169  15.381 -0.3617 -0.2766  0.0921
  169DOPC  H18R20573   2.879   3.194  15.425  0.1166  2.4745 -0.2644
  169DOPC  H18S20574   2.978   3.058  15.370  2.3115 -0.4873  1.4626
  169DOPC  H18T20575   2.972   3.211  15.278 -1.5782 -2.9064 -1.0197
  169DOPC   C3320576   2.977   3.453  17.016  0.3644  0.2562 -0.1255
  169DOPC   H3X20577   2.974   3.564  17.013  2.9256  0.3946 -0.3813
  169DOPC   H3Y20578   2.888   3.410  17.066  0.1072  0.7031 -0.2048
  169DOPC   C3420579   2.975   3.403  16.868 -0.3483 -0.2009  0.4790
  169DOPC   H4X20580   2.995   3.295  16.852 -1.3985 -0.2760 -0.5077
  169DOPC   H4Y20581   3.052   3.457  16.810 -0.6342 -0.1841  0.1134
  169DOPC   C3520582   2.834   3.431  16.799 -0.3771  0.3902  0.2253
  169DOPC   H5X20583   2.808   3.538  16.800  1.1664  0.7899  0.4524
  169DOPC   H5Y20584   2.758   3.379  16.861 -0.5403 -0.5383 -0.7271
  169DOPC   C3620585   2.824   3.376  16.660  0.0574 -0.1801  0.9290
  169DOPC   H6X20586   2.848   3.268  16.653 -0.0135 -0.0703 -1.6596
  169DOPC   H6Y20587   2.719   3.385  16.626  0.5569 -1.2126 -1.0094
  169DOPC   C3720588   2.906   3.462  16.561  0.3453  0.1736  0.5691
  169DOPC   H7X20589   2.855   3.561  16.547  0.3296 -0.1295 -2.0708
  169DOPC   H7Y20590   3.009   3.464  16.602  0.3647  0.6322  0.5106
  169DOPC   C3820591   2.912   3.406  16.416  0.0146  0.6503  0.3295
  169DOPC   H8X20592   2.818   3.423  16.360  1.8710 -1.7044 -3.9777
  169DOPC   H8Y20593   2.935   3.298  16.431  0.1772  0.6639  0.1785
  169DOPC   C3920594   3.018   3.478  16.338 -0.1258  0.5675 -0.2390
  169DOPC   H9X20595   3.112   3.503  16.389  0.4480 -0.8448 -0.5476
  169DOPC  C31020596   3.005   3.522  16.211  0.6461 -0.1244 -0.3301
  169DOPC  H10X20597   3.079   3.597  16.177  2.4030 -1.4778  0.3406
  169DOPC  C31120598   2.875   3.513  16.123 -0.0017 -0.1661 -0.2324
  169DOPC  H11X20599   2.851   3.619  16.100  0.9150  0.1108  0.0576
  169DOPC  H11Y20600   2.781   3.484  16.175  1.4984 -0.3616  2.5479
  169DOPC  C31220601   2.896   3.424  16.000 -0.0201 -0.2294 -0.3281
  169DOPC  H12X20602   2.874   3.317  16.016 -3.2785  0.3549 -0.1607
  169DOPC  H12Y20603   3.000   3.424  15.959 -0.7509 -1.4012 -2.2963
  169DOPC  C31320604   2.801   3.483  15.892 -0.0885  0.3341 -0.3412
  169DOPC  H13X20605   2.699   3.455  15.928 -0.2450  0.7984 -0.4156
  169DOPC  H13Y20606   2.809   3.593  15.883 -0.2142  0.3249 -0.5662
  169DOPC  C31420607   2.823   3.417  15.763 -0.1501  0.4185 -0.4965
  169DOPC  H14X20608   2.930   3.427  15.738 -0.1171  0.5420 -0.3121
  169DOPC  H14Y20609   2.809   3.308  15.776 -0.5501  0.5859  0.6695
  169DOPC  C31520610   2.740   3.486  15.657  0.0994 -0.3729 -0.3729
  169DOPC  H15X20611   2.749   3.596  15.654 -2.0960 -0.1752 -1.7670
  169DOPC  H15Y20612   2.635   3.452  15.667 -0.9054  2.4858 -0.4465
  169DOPC  C31620613   2.780   3.435  15.519 -0.1110 -0.6261 -0.3724
  169DOPC  H16X20614   2.891   3.440  15.519 -0.0169 -0.0772  2.9925
  169DOPC  H16Y20615   2.734   3.340  15.485  0.3198 -1.1652  0.4920
  169DOPC  C31720616   2.728   3.536  15.414 -0.2471 -0.3748 -0.0057
  169DOPC  H17X20617   2.619   3.551  15.430  0.1218  1.2650  1.3422
  169DOPC  H17Y20618   2.778   3.634  15.433  1.6867 -1.2608 -0.3083
  169DOPC  C31820619   2.740   3.490  15.267  0.1645  0.0439  0.5313
  169DOPC  H18X20620   2.737   3.381  15.245  0.3044 -0.1424  1.3905
  169DOPC  H18Y20621   2.671   3.540  15.195  1.7489  1.3319 -0.1399
  169DOPC  H18Z20622   2.837   3.514  15.219 -0.1589 -0.9881 -0.7118
  170DOPC     N20623   2.379   1.980  17.566  0.0641 -0.7722  0.0633
  170DOPC   C1220624   2.271   1.998  17.462 -0.4366 -0.0828  0.5690
  170DOPC  H12A20625   2.251   2.101  17.438 -0.5748  0.5765  3.1627
  170DOPC  H12B20626   2.181   1.957  17.507 -1.4395  0.2869 -1.0289
  170DOPC   C1320627   2.504   2.046  17.529  0.3523 -0.2751 -0.4974
  170DOPC  H13A20628   2.585   2.041  17.602  1.4305 -1.9123 -1.7428
  170DOPC  H13B20629   2.544   1.998  17.441 -1.0238  2.0528 -2.5264
  170DOPC  H13C20630   2.475   2.149  17.517 -2.9020 -0.9398  0.6044
  170DOPC   C1420631   2.394   1.832  17.597  0.8780  0.2577 -0.7073
  170DOPC  H14A20632   2.458   1.803  17.679 -0.5887 -0.4162  0.2463
  170DOPC  H14B20633   2.301   1.787  17.628  1.2177  0.2632  0.3581
  170DOPC  H14C20634   2.409   1.780  17.503 -0.0289  0.6786 -1.0977
  170DOPC   C1520635   2.332   2.036  17.701  0.1213  0.6959 -0.1465
  170DOPC  H15A20636   2.239   1.990  17.731 -0.1591  0.9365 -0.6445
  170DOPC  H15B20637   2.312   2.142  17.704 -1.8394  0.3403  1.5269
  170DOPC  H15C20638   2.403   2.013  17.779  0.3740 -1.5827 -0.9598
  170DOPC   C1120639   2.281   1.921  17.329  0.5842 -0.1095  0.1105
  170DOPC  H11A20640   2.212   1.960  17.250  1.7987 -1.2767 -1.6118
  170DOPC  H11B20641   2.378   1.948  17.281 -0.2167  0.4720 -1.2698
  170DOPC     P20642   2.126   1.718  17.389 -0.2033 -0.4717 -0.1151
  170DOPC   O1320643   2.049   1.823  17.458  0.2889  0.0444 -0.7971
  170DOPC   O1420644   2.153   1.596  17.465  0.2057  0.0301 -0.0267
  170DOPC   O1220645   2.263   1.783  17.347  0.2631 -0.1657 -0.2856
  170DOPC   O1120646   2.059   1.701  17.242 -0.0716  0.0239 -0.8606
  170DOPC    C120647   2.114   1.595  17.162  0.1120 -0.0836  0.1246
  170DOPC    HA20648   2.123   1.494  17.208  1.5628 -0.0602 -0.0692
  170DOPC    HB20649   2.217   1.619  17.127  0.6088 -0.3927  1.3391
  170DOPC    C220650   2.030   1.581  17.028 -0.5801 -0.1628 -0.5877
  170DOPC    HS20651   1.934   1.534  17.056 -1.8589  1.0605 -2.6274
  170DOPC   O2120652   2.107   1.499  16.932 -0.4187 -0.7564  0.0695
  170DOPC   C2120653   2.113   1.375  16.941 -0.3899 -0.1056 -0.1238
  170DOPC   O2220654   2.069   1.311  17.038 -0.1902 -0.5193 -0.2342
  170DOPC   C2220655   2.191   1.321  16.822  0.6641  0.1091 -0.1987
  170DOPC   H2R20656   2.281   1.263  16.852  0.3916 -1.0466 -1.4793
  170DOPC   H2S20657   2.228   1.405  16.760 -2.0326  1.8457  0.4006
  170DOPC    C320658   2.017   1.717  16.960  1.0787 -0.1363  0.1121
  170DOPC    HX20659   2.117   1.765  16.975  0.5017  1.7238 -1.6605
  170DOPC    HY20660   1.948   1.791  17.005  1.0695  1.3104 -2.1278
  170DOPC   O3120661   2.000   1.713  16.811 -0.0286  0.3181  0.0659
  170DOPC   C3120662   1.878   1.675  16.772  0.4111 -0.2414 -0.6709
  170DOPC   O3220663   1.793   1.636  16.848  0.1345  0.2951 -0.4323
  170DOPC   C3220664   1.868   1.682  16.622 -0.1593  0.1247  0.3682
  170DOPC   H2X20665   1.921   1.771  16.581 -1.0989  0.3111 -0.4887
  170DOPC   H2Y20666   1.915   1.592  16.576  0.2348  0.4329  0.1606
  170DOPC   C2320667   2.116   1.211  16.737 -0.3886 -0.2380 -0.2096
  170DOPC   H3R20668   2.102   1.117  16.795  2.7775 -0.9014 -0.3744
  170DOPC   H3S20669   2.190   1.188  16.658 -0.4386  2.1571 -1.0386
  170DOPC   C2420670   1.982   1.257  16.678  0.6992 -0.8287  0.4799
  170DOPC   H4R20671   1.930   1.308  16.762 -1.0078 -0.4373 -0.7416
  170DOPC   H4S20672   1.917   1.179  16.632  0.7877  0.6023 -2.2461
  170DOPC   C2520673   2.003   1.344  16.546 -0.5553  0.6463 -0.2325
  170DOPC   H5R20674   2.076   1.421  16.581 -0.4140 -1.1950  4.1797
  170DOPC   H5S20675   1.905   1.393  16.526 -1.8788 -1.5963  0.5112
  170DOPC   C2620676   2.058   1.260  16.424 -0.3950  0.3350  0.0451
  170DOPC   H6R20677   1.981   1.181  16.414 -1.7051  1.3272  1.6884
  170DOPC   H6S20678   2.162   1.222  16.436 -0.0288  1.0134 -0.8721
  170DOPC   C2720679   2.074   1.333  16.285 -0.1922 -0.3150  0.0589
  170DOPC   H7R20680   2.134   1.423  16.311  0.3722 -1.0590  1.4015
  170DOPC   H7S20681   1.974   1.369  16.254 -0.2237 -1.8006 -1.7337
  170DOPC   C2820682   2.146   1.264  16.159 -0.1769  0.1303 -0.2087
  170DOPC   H8R20683   2.256   1.251  16.168 -0.5419 -3.5555  0.8531
  170DOPC   H8S20684   2.130   1.319  16.064 -2.5060  1.2307  0.7339
  170DOPC   C2920685   2.086   1.129  16.141 -0.2188 -0.2847  0.5961
  170DOPC   H9R20686   2.119   1.056  16.215  0.8226 -0.1720  0.2577
  170DOPC  C21020687   1.980   1.095  16.068  0.2020  0.3466  0.5991
  170DOPC  H10R20688   1.954   0.989  16.052  1.4867 -0.1647  1.7008
  170DOPC  C21120689   1.902   1.185  15.976 -0.0229 -0.2110 -0.0143
  170DOPC  H11R20690   1.886   1.292  16.002  0.3314 -0.3716  0.9036
  170DOPC  H11S20691   1.797   1.149  15.967  0.3178 -0.9642 -1.1849
  170DOPC  C21220692   1.969   1.180  15.840  0.1700 -0.9953  0.2184
  170DOPC  H12R20693   1.994   1.076  15.811 -0.9466 -0.8592 -1.3769
  170DOPC  H12S20694   2.071   1.224  15.850  0.8906 -2.8581  1.4789
  170DOPC  C21320695   1.894   1.246  15.723  0.7841  0.0939  1.3161
  170DOPC  H13R20696   1.887   1.356  15.737 -0.0814  0.2338  0.0051
  170DOPC  H13S20697   1.792   1.205  15.711  1.1067  0.0239 -2.2040
  170DOPC  C21420698   1.966   1.221  15.590 -0.7890  0.7935  0.3589
  170DOPC  H14R20699   1.970   1.112  15.571  0.3342  0.8665  0.1178
  170DOPC  H14S20700   2.072   1.256  15.593 -0.8921  1.0889  0.8227
  170DOPC  C21520701   1.899   1.300  15.475 -0.1297  0.3457 -0.4909
  170DOPC  H15R20702   1.910   1.410  15.485  0.4662  0.4171 -1.6995
  170DOPC  H15S20703   1.794   1.265  15.467  0.7768 -2.2012 -2.8441
  170DOPC  C21620704   1.959   1.260  15.335 -0.7003  0.3446  0.6147
  170DOPC  H16R20705   1.985   1.152  15.329  0.0805  0.5155  0.8923
  170DOPC  H16S20706   2.058   1.307  15.316 -0.1281 -1.3611 -0.9483
  170DOPC  C21720707   1.868   1.303  15.221 -0.2311 -0.4374 -0.4443
  170DOPC  H17R20708   1.774   1.250  15.245  1.0937 -2.3102  0.8951
  170DOPC  H17S20709   1.914   1.275  15.124 -1.9334 -0.7729 -1.1832
  170DOPC  C21820710   1.841   1.456  15.212 -0.1392 -0.4818 -0.6744
  170DOPC  H18R20711   1.796   1.472  15.111 -0.1292 -0.4456 -0.6740
  170DOPC  H18S20712   1.940   1.505  15.227 -1.1546  0.6732  3.4262
  170DOPC  H18T20713   1.768   1.479  15.292 -0.1422  1.0462 -1.0700
  170DOPC   C3320714   1.714   1.691  16.579  0.5642  0.1935 -0.8962
  170DOPC   H3X20715   1.691   1.800  16.586 -2.2762 -0.3013 -1.5397
  170DOPC   H3Y20716   1.662   1.629  16.655  1.4281 -0.5069 -0.8653
  170DOPC   C3420717   1.697   1.646  16.434 -0.6834 -0.8241 -0.2517
  170DOPC   H4X20718   1.591   1.651  16.402 -0.0068 -0.2763 -2.6332
  170DOPC   H4Y20719   1.718   1.537  16.426  1.7859 -0.3855 -0.6186
  170DOPC   C3520720   1.793   1.708  16.322  0.3805  0.6523 -0.2982
  170DOPC   H5X20721   1.900   1.677  16.330  0.5198  0.8025 -1.3618
  170DOPC   H5Y20722   1.784   1.817  16.339 -1.0380  0.5500 -0.3306
  170DOPC   C3620723   1.743   1.660  16.183  0.0050 -0.8970 -0.3969
  170DOPC   H6X20724   1.737   1.549  16.190  0.4167 -0.9230 -0.4396
  170DOPC   H6Y20725   1.642   1.702  16.168 -0.4096 -1.2531  1.1898
  170DOPC   C3720726   1.850   1.690  16.083 -0.5621 -1.3729 -0.1714
  170DOPC   H7X20727   1.866   1.800  16.074  1.7238 -1.5661  1.0080
  170DOPC   H7Y20728   1.946   1.646  16.116 -0.5392 -2.1420 -1.1996
  170DOPC   C3820729   1.815   1.630  15.945  0.4419  0.4884  0.2529
  170DOPC   H8X20730   1.833   1.521  15.953 -0.1402  0.4746  1.6069
  170DOPC   H8Y20731   1.886   1.671  15.869  1.7881 -0.7776  0.7742
  170DOPC   C3920732   1.675   1.653  15.906  0.0371  0.2131 -0.2837
  170DOPC   H9X20733   1.596   1.652  15.983  2.4500 -0.2987  2.3780
  170DOPC  C31020734   1.643   1.697  15.783  0.1731  0.1147  0.3174
  170DOPC  H10X20735   1.541   1.732  15.765  0.1551 -0.5973 -1.0924
  170DOPC  C31120736   1.734   1.704  15.660 -0.1520  0.9345  0.4757
  170DOPC  H11X20737   1.831   1.654  15.679 -0.9638  0.5289  4.4865
  170DOPC  H11Y20738   1.766   1.805  15.628  2.7852 -0.0856 -0.1499
  170DOPC  C31220739   1.670   1.636  15.536 -0.0731 -0.2251  0.4714
  170DOPC  H12X20740   1.638   1.532  15.555  1.9817 -0.8342  0.8362
  170DOPC  H12Y20741   1.755   1.622  15.466 -1.1489 -0.6954 -0.7849
  170DOPC  C31320742   1.565   1.728  15.471  0.3726 -0.2718 -0.4244
  170DOPC  H13X20743   1.463   1.717  15.514  0.7312 -1.4314  0.1806
  170DOPC  H13Y20744   1.608   1.830  15.482 -0.2267 -0.1522  0.9992
  170DOPC  C31420745   1.548   1.704  15.321 -0.3461  0.1901 -0.2247
  170DOPC  H14X20746   1.474   1.778  15.284 -2.8309 -1.0495  1.9729
  170DOPC  H14Y20747   1.646   1.709  15.269  1.2635 -1.9871  2.3228
  170DOPC  C31520748   1.485   1.564  15.308  0.3909 -0.1249  0.1843
  170DOPC  H15X20749   1.389   1.563  15.365  0.2171  3.7810  0.2280
  170DOPC  H15Y20750   1.563   1.487  15.328  0.7029  0.0268 -0.4464
  170DOPC  C31620751   1.432   1.513  15.169  0.4420 -0.1758  0.2082
  170DOPC  H16X20752   1.509   1.484  15.094 -3.1042 -3.3399 -2.6372
  170DOPC  H16Y20753   1.378   1.418  15.188  1.2614 -0.6860  0.0052
  170DOPC  C31720754   1.327   1.605  15.101  0.3555 -0.2060 -0.3322
  170DOPC  H17X20755   1.243   1.636  15.167  1.2254 -0.0041  0.7157
  170DOPC  H17Y20756   1.378   1.695  15.061 -1.4861  1.4619  0.8545
  170DOPC  C31820757   1.264   1.544  14.976  0.0574 -0.2387  0.4822
  170DOPC  H18X20758   1.190   1.469  15.009 -0.5817  0.0624 -0.2393
  170DOPC  H18Y20759   1.203   1.623  14.926  0.4125  0.5007  1.1842
  170DOPC  H18Z20760   1.339   1.501  14.906 -1.3754  1.6435 -2.4602
  171DOPC     N20761   6.092   5.638  12.476 -0.3948  0.6128  0.0896
  171DOPC   C1220762   5.975   5.736  12.479  0.6395 -0.1796  0.0728
  171DOPC  H12A20763   5.888   5.698  12.531  0.1572  1.3431  0.4492
  171DOPC  H12B20764   5.946   5.764  12.378  0.7605  1.3949  0.4364
  171DOPC   C1320765   6.144   5.620  12.613 -0.0288  0.2303 -0.0208
  171DOPC  H13A20766   6.236   5.564  12.621  0.0489  0.1191 -1.4729
  171DOPC  H13B20767   6.163   5.721  12.647 -1.3365  1.0173 -1.4662
  171DOPC  H13C20768   6.074   5.567  12.676 -0.6426  0.9535 -0.0861
  171DOPC   C1420769   6.194   5.705  12.388 -0.2825  0.3896 -0.0881
  171DOPC  H14A20770   6.144   5.726  12.294 -0.5047 -0.4698 -0.1647
  171DOPC  H14B20771   6.220   5.801  12.430 -1.0523  0.2847  0.6321
  171DOPC  H14C20772   6.288   5.656  12.368 -0.6606 -0.4427  0.1697
  171DOPC   C1520773   6.057   5.507  12.414 -0.3418 -0.3516 -0.5010
  171DOPC  H15A20774   6.143   5.452  12.377  1.7323  1.6648  1.0933
  171DOPC  H15B20775   5.988   5.527  12.333  0.5679  1.4828 -0.8647
  171DOPC  H15C20776   6.012   5.442  12.487  0.6019 -0.9409 -0.4230
  171DOPC   C1120777   6.004   5.879  12.544 -0.2456  0.5005  0.1913
  171DOPC  H11A20778   6.092   5.923  12.493  0.3075  0.8458  1.3969
  171DOPC  H11B20779   5.910   5.936  12.526  0.0876  0.4918 -1.7156
  171DOPC     P20780   5.925   5.849  12.789 -0.0227  0.0154 -0.0387
  171DOPC   O1320781   5.829   5.740  12.765  0.1295  0.4390  0.6281
  171DOPC   O1420782   5.862   5.981  12.813  0.3134  0.5501  0.0520
  171DOPC   O1220783   6.036   5.857  12.681  0.5522 -0.1746 -0.2380
  171DOPC   O1120784   6.009   5.814  12.921  0.2157 -0.3593 -0.0308
  171DOPC    C120785   6.099   5.920  12.970  0.6644  0.4755  0.1044
  171DOPC    HA20786   6.055   6.020  12.991 -0.1958 -0.0131  0.7310
  171DOPC    HB20787   6.174   5.940  12.891 -2.7457  0.9781 -3.2956
  171DOPC    C220788   6.173   5.855  13.095 -0.1548 -0.7777  0.3293
  171DOPC    HS20789   6.195   5.757  13.047 -0.9103 -0.8475  0.1198
  171DOPC   O2120790   6.078   5.847  13.207  0.5530 -0.2760  0.0926
  171DOPC   C2120791   6.081   5.739  13.278  0.1915  0.1082 -1.0503
  171DOPC   O2220792   6.146   5.639  13.257  0.5828  0.4299 -0.4305
  171DOPC   C2220793   5.990   5.759  13.407  0.3225 -0.1760  0.0529
  171DOPC   H2R20794   5.888   5.790  13.373 -0.2763 -1.3030  0.7756
  171DOPC   H2S20795   6.041   5.847  13.451  0.7127 -1.2065  1.7273
  171DOPC    C320796   6.294   5.938  13.132 -0.6854 -1.0217 -0.0975
  171DOPC    HX20797   6.266   6.035  13.178  0.7752 -0.6951  0.1732
  171DOPC    HY20798   6.342   5.959  13.034  1.1922 -0.8403  0.8138
  171DOPC   O3120799   6.384   5.867  13.222  0.3803  0.1694  0.3405
  171DOPC   C3120800   6.493   5.820  13.169 -0.1610 -0.1461  0.1453
  171DOPC   O3220801   6.526   5.825  13.051  0.3444 -0.4016 -0.5275
  171DOPC   C3220802   6.577   5.758  13.280 -0.1110 -0.1703 -0.6015
  171DOPC   H2X20803   6.574   5.647  13.278  1.6833 -0.2336 -1.0067
  171DOPC   H2Y20804   6.680   5.783  13.248 -0.0570 -0.9435 -1.0482
  171DOPC   C2320805   5.971   5.633  13.502 -0.3535  0.0653  0.0957
  171DOPC   H3R20806   6.064   5.591  13.545 -0.5465  2.1419  2.8809
  171DOPC   H3S20807   5.918   5.549  13.453 -0.1556  1.0522 -1.9252
  171DOPC   C2420808   5.885   5.682  13.621 -0.7901  0.4022 -0.3047
  171DOPC   H4R20809   5.784   5.716  13.587 -1.1908  0.2726  0.7214
  171DOPC   H4S20810   5.929   5.764  13.681 -2.6163  1.7859 -0.7479
  171DOPC   C2520811   5.859   5.566  13.718  0.8498  0.7502 -0.2937
  171DOPC   H5R20812   5.954   5.516  13.747 -0.3534 -0.7744  1.1592
  171DOPC   H5S20813   5.793   5.492  13.668  0.4390  0.0742  1.2204
  171DOPC   C2620814   5.785   5.619  13.842 -0.3717 -0.4500  0.3970
  171DOPC   H6R20815   5.695   5.673  13.805 -0.1173  0.2319  0.7455
  171DOPC   H6S20816   5.849   5.696  13.890 -1.3896  1.2247 -0.8442
  171DOPC   C2720817   5.751   5.498  13.926 -0.3861  0.0433 -0.5274
  171DOPC   H7R20818   5.832   5.427  13.898  0.0853  1.2178 -2.2726
  171DOPC   H7S20819   5.658   5.459  13.880 -0.0829  1.8697 -2.8644
  171DOPC   C2820820   5.738   5.517  14.078 -1.2992  0.3329 -0.0607
  171DOPC   H8R20821   5.844   5.532  14.107  0.3148 -2.1876 -3.8396
  171DOPC   H8S20822   5.717   5.420  14.128 -0.7846  0.3221  0.1452
  171DOPC   C2920823   5.643   5.626  14.130 -0.7001  0.6052  0.3092
  171DOPC   H9R20824   5.581   5.665  14.048  0.3361  0.7681 -0.4023
  171DOPC  C21020825   5.653   5.708  14.234 -0.2477  0.2692  0.0999
  171DOPC  H10R20826   5.583   5.793  14.235 -1.5496 -0.6592 -2.7571
  171DOPC  C21120827   5.748   5.686  14.354  0.3953 -0.3672  0.2955
  171DOPC  H11R20828   5.761   5.785  14.402  3.0609 -0.6368  0.3067
  171DOPC  H11S20829   5.842   5.648  14.309  0.2101  1.7309 -2.0296
  171DOPC  C21220830   5.695   5.599  14.471  0.2374  0.4280  0.5656
  171DOPC  H12R20831   5.722   5.494  14.446  1.2512  0.5093  1.2429
  171DOPC  H12S20832   5.586   5.618  14.477  0.1557 -0.0920  0.8209
  171DOPC  C21320833   5.781   5.622  14.593 -0.2637 -0.6899  0.1822
  171DOPC  H13R20834   5.797   5.728  14.621 -0.8163 -0.6386  0.3187
  171DOPC  H13S20835   5.880   5.581  14.562  0.0734 -0.2520  0.6734
  171DOPC  C21420836   5.728   5.537  14.719  0.0499 -0.8191 -0.3579
  171DOPC  H14R20837   5.690   5.440  14.680 -0.1974 -0.8333 -0.0849
  171DOPC  H14S20838   5.633   5.588  14.745  0.5450  0.8672 -1.6568
  171DOPC  C21520839   5.816   5.534  14.842 -0.1062 -0.8212  0.2707
  171DOPC  H15R20840   5.833   5.638  14.878  3.1720 -0.9559 -0.5704
  171DOPC  H15S20841   5.919   5.507  14.810  1.0933  2.8072  0.5859
  171DOPC  C21620842   5.756   5.454  14.961 -0.0202  0.4727  0.5612
  171DOPC  H16R20843   5.738   5.347  14.937 -2.1646  0.4271  2.0616
  171DOPC  H16S20844   5.661   5.504  14.991 -0.3965 -0.0855  0.3082
  171DOPC  C21720845   5.856   5.449  15.080  0.6704  0.2795 -0.2128
  171DOPC  H17R20846   5.872   5.545  15.134 -1.9679  0.2985  0.6490
  171DOPC  H17S20847   5.952   5.406  15.041  0.0292 -0.9205 -0.5239
  171DOPC  C21820848   5.802   5.352  15.187  0.2263 -0.0070 -0.4192
  171DOPC  H18R20849   5.875   5.316  15.263 -1.2021 -1.4531  0.3408
  171DOPC  H18S20850   5.766   5.259  15.136  1.1160 -0.8392  0.4213
  171DOPC  H18T20851   5.720   5.405  15.239  0.8243  1.2252 -0.6921
  171DOPC   C3320852   6.552   5.823  13.415 -0.3789 -0.3431  0.6632
  171DOPC   H3X20853   6.527   5.930  13.398  1.5928  0.0922  0.2662
  171DOPC   H3Y20854   6.649   5.821  13.469  1.1089  1.5486 -1.7184
  171DOPC   C3420855   6.446   5.734  13.485 -0.8127  0.3994 -0.5843
  171DOPC   H4X20856   6.482   5.628  13.484 -0.9462  0.3476 -0.1131
  171DOPC   H4Y20857   6.355   5.743  13.422 -1.3084 -2.6758 -0.4633
  171DOPC   C3520858   6.416   5.761  13.635  0.4030  0.3229  0.1233
  171DOPC   H5X20859   6.391   5.869  13.641 -0.3069  0.1746 -0.0978
  171DOPC   H5Y20860   6.511   5.729  13.683  1.7405  1.5264 -1.5799
  171DOPC   C3620861   6.305   5.670  13.686 -0.4852 -0.6850 -0.6336
  171DOPC   H6X20862   6.203   5.695  13.651 -0.6401  1.6278  1.2138
  171DOPC   H6Y20863   6.315   5.562  13.662  0.4588 -1.0244  1.1331
  171DOPC   C3720864   6.286   5.680  13.837  0.2203 -0.3007  0.6352
  171DOPC   H7X20865   6.380   5.689  13.895  0.6269  1.6548 -0.2495
  171DOPC   H7Y20866   6.251   5.785  13.843  2.8082  1.0023 -2.9855
  171DOPC   C3820867   6.187   5.588  13.900 -0.6002 -0.6664 -0.1302
  171DOPC   H8X20868   6.086   5.630  13.881 -0.0681  0.8083  0.1585
  171DOPC   H8Y20869   6.197   5.598  14.010  1.6191 -0.2353 -0.3258
  171DOPC   C3920870   6.186   5.439  13.869 -0.6888 -0.2081  0.8686
  171DOPC   H9X20871   6.147   5.417  13.769  0.4879  1.9818 -0.1376
  171DOPC  C31020872   6.214   5.342  13.953 -0.3249  0.3179 -0.3034
  171DOPC  H10X20873   6.207   5.242  13.908  0.7673  0.9567 -1.9671
  171DOPC  C31120874   6.267   5.344  14.095 -0.0655  0.3320 -0.2040
  171DOPC  H11X20875   6.281   5.449  14.129  0.3960  0.2526 -0.1481
  171DOPC  H11Y20876   6.363   5.291  14.113 -0.0968  0.1899 -0.4549
  171DOPC  C31220877   6.186   5.279  14.204  0.6362 -0.1665 -0.3029
  171DOPC  H12X20878   6.258   5.258  14.285  0.5038  2.8372  0.7049
  171DOPC  H12Y20879   6.147   5.180  14.171  0.9133 -0.9039  1.5025
  171DOPC  C31320880   6.071   5.371  14.252 -0.0742 -0.2877  0.4130
  171DOPC  H13X20881   6.111   5.460  14.305 -0.6778  1.4648 -1.9044
  171DOPC  H13Y20882   6.022   5.415  14.163  1.7874  1.0620 -0.0012
  171DOPC  C31420883   5.963   5.305  14.350 -0.1527  0.4387 -0.2608
  171DOPC  H14X20884   5.868   5.350  14.313 -0.5670  0.3503  0.6549
  171DOPC  H14Y20885   5.954   5.196  14.327 -2.5140  0.0813  1.8705
  171DOPC  C31520886   5.977   5.339  14.493 -0.1939  0.0862 -0.2428
  171DOPC  H15X20887   5.877   5.366  14.534 -0.2636 -0.4224 -0.0761
  171DOPC  H15Y20888   6.029   5.436  14.511 -0.1574 -0.4016  2.8286
  171DOPC  C31620889   6.030   5.229  14.579  0.4129 -0.4629  0.4244
  171DOPC  H16X20890   5.976   5.136  14.551  0.2709 -0.0676 -0.6539
  171DOPC  H16Y20891   6.135   5.214  14.548  0.7940 -0.9175  1.8649
  171DOPC  C31720892   6.022   5.247  14.731  0.3789  0.3269  0.8425
  171DOPC  H17X20893   5.922   5.286  14.758  1.2018  0.6099  3.7225
  171DOPC  H17Y20894   6.026   5.148  14.781 -1.6066 -0.1106  0.2419
  171DOPC  C31820895   6.123   5.338  14.791 -0.0888  0.1429 -0.5953
  171DOPC  H18X20896   6.227   5.308  14.767  0.6428 -0.5912  2.8834
  171DOPC  H18Y20897   6.109   5.445  14.765  0.4079 -0.4012 -3.4825
  171DOPC  H18Z20898   6.118   5.323  14.901 -1.0285  0.7745 -0.5394
  172DOPC     N20899   6.008   6.543  12.503  0.1774 -0.3893 -0.2349
  172DOPC   C1220900   6.133   6.500  12.590  0.0882  0.1505  0.1405
  172DOPC  H12A20901   6.200   6.460  12.515  1.3098  1.3635  0.5499
  172DOPC  H12B20902   6.084   6.424  12.650 -1.8225  0.1094 -1.3557
  172DOPC   C1320903   5.959   6.430  12.418  0.0820  0.7776 -0.0285
  172DOPC  H13A20904   6.044   6.387  12.367  0.4190 -1.6009  2.3269
  172DOPC  H13B20905   5.903   6.358  12.476 -0.2344  0.6395 -0.4976
  172DOPC  H13C20906   5.888   6.468  12.346 -2.0492  2.3790  2.7054
  172DOPC   C1420907   6.055   6.649  12.418  0.2241  0.0605  0.5400
  172DOPC  H14A20908   6.137   6.610  12.360 -1.4810  1.7365 -3.3847
  172DOPC  H14B20909   5.979   6.695  12.357  1.6708 -0.6712 -1.9728
  172DOPC  H14C20910   6.086   6.735  12.476  1.9626 -0.6123  0.6857
  172DOPC   C1520911   5.903   6.586  12.596  0.8320  0.0464 -0.4037
  172DOPC  H15A20912   5.814   6.620  12.545  0.8403  0.7746  0.0539
  172DOPC  H15B20913   5.939   6.669  12.654 -1.3727  0.7243  0.0832
  172DOPC  H15C20914   5.877   6.506  12.664  0.7211  1.7026  1.6064
  172DOPC   C1120915   6.210   6.601  12.675 -0.2893 -0.3359 -0.5484
  172DOPC  H11A20916   6.308   6.553  12.699 -0.3675 -0.1959  0.0649
  172DOPC  H11B20917   6.236   6.689  12.612 -0.0278 -1.3853 -1.9570
  172DOPC     P20918   6.149   6.618  12.933 -0.2083  0.2330 -0.1415
  172DOPC   O1320919   6.017   6.626  12.996  0.1943 -0.5664  0.5779
  172DOPC   O1420920   6.271   6.684  12.996  0.2346  0.2147 -0.5351
  172DOPC   O1220921   6.140   6.660  12.783  0.5146  0.0127  0.6454
  172DOPC   O1120922   6.180   6.466  12.917  0.2468  0.4052  0.1759
  172DOPC    C120923   6.117   6.350  12.975  0.8130 -0.4646 -0.4231
  172DOPC    HA20924   6.148   6.260  12.918  0.9135 -1.8783  1.7784
  172DOPC    HB20925   6.007   6.351  12.964  0.6559 -3.7217  0.0605
  172DOPC    C220926   6.137   6.349  13.126 -0.8087 -0.5196 -0.2682
  172DOPC    HS20927   6.136   6.454  13.163  3.7345 -0.9939  1.8323
  172DOPC   O2120928   6.258   6.283  13.156  0.3507 -0.2323 -0.1049
  172DOPC   C2120929   6.330   6.350  13.244 -0.6196 -0.6915  0.3438
  172DOPC   O2220930   6.317   6.464  13.271 -0.0873  0.0148 -0.4847
  172DOPC   C2220931   6.439   6.254  13.313 -0.3180  0.3282 -0.6109
  172DOPC   H2R20932   6.529   6.319  13.309  0.6370 -0.5152  3.2594
  172DOPC   H2S20933   6.450   6.165  13.248 -1.5295 -0.4083  0.1399
  172DOPC    C320934   6.018   6.269  13.198  0.5764  0.3287 -0.8307
  172DOPC    HX20935   6.039   6.160  13.186 -2.8354 -0.2587 -2.5354
  172DOPC    HY20936   5.916   6.287  13.158 -0.1231  0.0584  0.7515
  172DOPC   O3120937   6.018   6.296  13.338  0.4891  0.0980  0.0897
  172DOPC   C3120938   5.930   6.375  13.392  0.5029 -0.2107  0.0674
  172DOPC   O3220939   5.835   6.429  13.331  0.3428  0.5915 -0.1145
  172DOPC   C3220940   5.970   6.409  13.534  0.0710  0.1075 -0.0850
  172DOPC   H2X20941   5.983   6.312  13.586 -1.1968 -0.8815 -1.5414
  172DOPC   H2Y20942   6.066   6.466  13.536 -0.1065  0.4573  2.2742
  172DOPC   C2320943   6.413   6.225  13.463 -0.0570  0.4733  0.2440
  172DOPC   H3R20944   6.394   6.323  13.511 -0.4238 -0.2403  1.6199
  172DOPC   H3S20945   6.504   6.182  13.511  0.0321 -0.1764 -0.4694
  172DOPC   C2420946   6.290   6.137  13.489 -0.3496 -0.2715 -0.1056
  172DOPC   H4R20947   6.328   6.034  13.473  1.5143 -0.1460  2.6914
  172DOPC   H4S20948   6.208   6.162  13.419 -1.2187 -2.8787 -0.1133
  172DOPC   C2520949   6.245   6.153  13.630 -0.0579 -0.1469 -0.5283
  172DOPC   H5R20950   6.206   6.256  13.647  1.3205  0.0516  2.0235
  172DOPC   H5S20951   6.331   6.138  13.698 -0.4678  1.8110  0.5137
  172DOPC   C2620952   6.125   6.071  13.666 -0.1507  0.6719  0.9937
  172DOPC   H6R20953   6.147   5.963  13.650 -2.3646  0.3110  0.1304
  172DOPC   H6S20954   6.033   6.099  13.611  0.3925  1.6374  0.5437
  172DOPC   C2720955   6.086   6.068  13.814  0.2552 -0.7375  0.5913
  172DOPC   H7R20956   6.060   6.171  13.846  1.6313 -0.5410  1.1498
  172DOPC   H7S20957   6.181   6.062  13.870  1.2995  2.3275 -0.6781
  172DOPC   C2820958   5.989   5.966  13.858 -0.0598  0.8608 -0.2766
  172DOPC   H8R20959   6.021   5.859  13.862 -4.2644 -0.5386  1.0881
  172DOPC   H8S20960   5.909   5.966  13.781 -0.6036  0.0831  0.2698
  172DOPC   C2920961   5.927   6.010  13.986  0.9357 -0.2501 -0.7133
  172DOPC   H9R20962   5.870   6.104  13.976 -0.4105 -0.8312  0.9789
  172DOPC  C21020963   5.935   5.941  14.102  0.1834  0.3360 -0.0673
  172DOPC  H10R20964   5.873   5.978  14.185 -0.2893 -1.6959  0.5489
  172DOPC  C21120965   6.032   5.830  14.138 -0.0520  0.0701 -0.5901
  172DOPC  H11R20966   6.103   5.820  14.053  0.4480  0.2629 -0.2014
  172DOPC  H11S20967   5.991   5.728  14.154 -3.0847  1.4428  1.2685
  172DOPC  C21220968   6.114   5.867  14.260 -0.4906  0.2247 -0.0157
  172DOPC  H12R20969   6.166   5.965  14.248  1.2252 -0.9221 -3.5335
  172DOPC  H12S20970   6.193   5.789  14.256 -0.1124  0.4638  1.9083
  172DOPC  C21320971   6.047   5.851  14.396  0.4867 -0.8546 -0.3633
  172DOPC  H13R20972   6.035   5.742  14.413 -2.1568 -0.5629  0.0488
  172DOPC  H13S20973   5.949   5.904  14.406  0.3290 -1.1090 -0.5383
  172DOPC  C21420974   6.148   5.888  14.506 -1.0427  0.2065 -0.8171
  172DOPC  H14R20975   6.194   5.989  14.510  1.4307 -0.8596 -0.6463
  172DOPC  H14S20976   6.241   5.830  14.487 -0.0691  1.3707  0.2254
  172DOPC  C21520977   6.103   5.845  14.657 -0.3171 -0.3966  1.1465
  172DOPC  H15R20978   6.089   5.735  14.645  1.0951 -0.5459  0.6333
  172DOPC  H15S20979   6.008   5.900  14.676  0.4726  0.8629  1.5715
  172DOPC  C21620980   6.204   5.890  14.762  0.0813 -0.4816  0.5218
  172DOPC  H16R20981   6.204   6.001  14.765 -3.0137 -0.4108  0.5988
  172DOPC  H16S20982   6.304   5.853  14.731  0.3858  0.3928  0.4348
  172DOPC  C21720983   6.174   5.832  14.903 -0.6873  0.3828 -0.0133
  172DOPC  H17R20984   6.258   5.853  14.972 -1.9403 -0.2293  1.7713
  172DOPC  H17S20985   6.171   5.722  14.888  0.2226  0.4260 -0.5931
  172DOPC  C21820986   6.052   5.889  14.977  0.6951 -1.1813  0.7476
  172DOPC  H18R20987   5.955   5.880  14.923 -0.4722 -0.1718  2.5553
  172DOPC  H18S20988   6.078   5.992  15.011  1.8250 -1.6127  1.2441
  172DOPC  H18T20989   6.035   5.837  15.074 -1.0439 -0.8517  0.6565
  172DOPC   C3320990   5.859   6.485  13.608  0.2719 -0.0036 -0.2583
  172DOPC   H3X20991   5.758   6.440  13.594  0.0147  0.2729  0.6255
  172DOPC   H3Y20992   5.825   6.585  13.572 -0.4072  0.7445  2.2051
  172DOPC   C3420993   5.882   6.505  13.768  0.4479  0.9611 -0.0941
  172DOPC   H4X20994   5.974   6.564  13.782 -1.1243  4.1320 -2.0113
  172DOPC   H4Y20995   5.896   6.401  13.804  0.2559  0.0934 -2.3306
  172DOPC   C3520996   5.755   6.574  13.834 -0.0818  0.3572  0.4919
  172DOPC   H5X20997   5.669   6.511  13.802  0.1287  0.0859  0.4519
  172DOPC   H5Y20998   5.756   6.669  13.776  0.5655 -0.9749 -1.8462
  172DOPC   C3620999   5.764   6.581  13.985  0.2329  0.3434  0.3773
  172DOPC   H6X21000   5.804   6.485  14.026 -0.0109  0.5869  1.2036
  172DOPC   H6Y21001   5.837   6.662  14.007 -0.4537  1.1266 -0.1728
  172DOPC   C3721002   5.634   6.630  14.044  0.9019 -0.0306 -0.9505
  172DOPC   H7X21003   5.592   6.721  13.996  2.3552  1.1113 -0.1297
  172DOPC   H7Y21004   5.558   6.550  14.030  1.5456 -0.6675 -0.8779
  172DOPC   C3821005   5.647   6.657  14.195 -0.4759 -0.2150 -0.8755
  172DOPC   H8X21006   5.704   6.751  14.203 -0.2097 -0.4427  0.0919
  172DOPC   H8Y21007   5.712   6.575  14.234  0.9741  1.3087  0.0578
  172DOPC   C3921008   5.513   6.643  14.269 -1.2513  0.4260  0.3664
  172DOPC   H9X21009   5.456   6.552  14.248 -0.7254  0.1568  0.1028
  172DOPC  C31021010   5.436   6.748  14.328 -0.4905  0.6308  0.7842
  172DOPC  H10X21011   5.340   6.728  14.377 -1.5635 -0.4666 -1.5619
  172DOPC  C31121012   5.487   6.890  14.328  0.1170 -0.3298  0.4348
  172DOPC  H11X21013   5.422   6.958  14.268 -1.6941 -1.3990  1.0911
  172DOPC  H11Y21014   5.589   6.898  14.284  0.1825  0.0839  0.6586
  172DOPC  C31221015   5.497   6.957  14.467  0.5578  0.2532  0.2718
  172DOPC  H12X21016   5.517   7.065  14.449 -3.1520  1.1482  0.7504
  172DOPC  H12Y21017   5.582   6.909  14.522  1.0095  0.0957 -0.5557
  172DOPC  C31321018   5.361   6.953  14.545  0.0585 -0.0501 -0.6024
  172DOPC  H13X21019   5.283   6.992  14.477 -0.7330 -1.9205 -0.8187
  172DOPC  H13Y21020   5.338   6.849  14.576  1.6725 -0.4748 -0.7483
  172DOPC  C31421021   5.363   7.030  14.682  0.5471 -0.1178 -0.3469
  172DOPC  H14X21022   5.380   7.136  14.653  1.9658 -0.6152 -1.4763
  172DOPC  H14Y21023   5.265   7.029  14.734  0.6567 -1.1497 -0.1271
  172DOPC  C31521024   5.483   6.996  14.770  0.5064  0.0152  0.2192
  172DOPC  H15X21025   5.571   7.037  14.716  0.9287 -0.8609  0.2380
  172DOPC  H15Y21026   5.495   6.888  14.793 -1.8171 -0.2648  0.4511
  172DOPC  C31621027   5.466   7.072  14.904 -0.1891 -0.3483 -0.6495
  172DOPC  H16X21028   5.478   7.180  14.882  0.4843 -0.6667 -1.9187
  172DOPC  H16Y21029   5.372   7.051  14.960 -0.3845  1.5563 -0.1779
  172DOPC  C31721030   5.583   7.051  15.013 -0.2467 -0.2072 -0.0113
  172DOPC  H17X21031   5.602   6.943  15.028  2.5888 -0.2039 -2.6492
  172DOPC  H17Y21032   5.672   7.088  14.958 -0.2722 -1.1808 -0.7296
  172DOPC  C31821033   5.560   7.121  15.144  0.3238  0.1195 -0.6914
  172DOPC  H18X21034   5.649   7.110  15.208 -1.3675 -1.4452  1.5595
  172DOPC  H18Y21035   5.536   7.229  15.134  0.4415  0.2966  0.7751
  172DOPC  H18Z21036   5.481   7.061  15.195  1.4613  0.5919  1.7680
  173DOPC     N21037   3.234   5.621  12.859  0.8624 -0.3321 -0.4251
  173DOPC   C1221038   3.155   5.749  12.890 -0.4690 -0.7030 -0.4979
  173DOPC  H12A21039   3.069   5.731  12.953 -0.9522  2.0295 -0.2386
  173DOPC  H12B21040   3.117   5.780  12.794  0.0595 -1.1923 -0.8724
  173DOPC   C1321041   3.304   5.640  12.731 -0.1600  0.4556  0.4424
  173DOPC  H13A21042   3.381   5.715  12.743  0.9815 -0.7964  1.4177
  173DOPC  H13B21043   3.359   5.549  12.711 -0.0685  0.8129 -0.9963
  173DOPC  H13C21044   3.246   5.662  12.643 -0.0200 -2.8220 -0.6201
  173DOPC   C1421045   3.136   5.510  12.858 -0.0844  0.5610 -0.4686
  173DOPC  H14A21046   3.176   5.416  12.823  0.1860 -0.0876  1.4771
  173DOPC  H14B21047   3.080   5.495  12.949  0.7324  0.3733  0.0110
  173DOPC  H14C21048   3.052   5.541  12.798  1.2128  1.0914 -2.0892
  173DOPC   C1521049   3.328   5.599  12.968 -0.1288  0.2290 -0.0181
  173DOPC  H15A21050   3.278   5.593  13.064 -0.7077 -2.0135 -0.3993
  173DOPC  H15B21051   3.402   5.678  12.974 -0.8613  0.8601  0.9841
  173DOPC  H15C21052   3.387   5.510  12.955 -1.3336 -0.6108  0.1264
  173DOPC   C1121053   3.234   5.868  12.949  0.7756  0.4860 -1.2133
  173DOPC  H11A21054   3.154   5.946  12.949 -0.2105 -0.4944 -1.5155
  173DOPC  H11B21055   3.258   5.846  13.055  1.3010 -0.6857 -1.5561
  173DOPC     P21056   3.375   6.035  12.808  0.2440  0.7971  0.2804
  173DOPC   O1321057   3.333   6.012  12.662  0.2089  0.7460 -0.5001
  173DOPC   O1421058   3.514   6.076  12.824 -0.3295  0.0527  0.1335
  173DOPC   O1221059   3.353   5.903  12.891 -0.9743 -0.0199 -0.4549
  173DOPC   O1121060   3.291   6.142  12.892  0.0780 -0.1169  0.1988
  173DOPC    C121061   3.345   6.239  12.983 -0.5881 -0.3576  0.1770
  173DOPC    HA21062   3.257   6.299  13.016 -0.8991 -0.5406 -0.3104
  173DOPC    HB21063   3.425   6.305  12.942 -0.5052  0.3054  1.3539
  173DOPC    C221064   3.383   6.181  13.126 -0.1075  0.0356 -0.1137
  173DOPC    HS21065   3.465   6.108  13.110  0.8827  0.9943  0.4887
  173DOPC   O2121066   3.265   6.125  13.178  0.0327 -0.7670  0.7872
  173DOPC   C2121067   3.282   6.024  13.264 -0.0544 -0.1149 -0.6169
  173DOPC   O2221068   3.393   5.978  13.290 -0.0795  0.4035  0.1518
  173DOPC   C2221069   3.147   5.999  13.333  0.3535  0.2858  0.3082
  173DOPC   H2R21070   3.157   5.904  13.391 -0.0102 -1.1316 -1.8220
  173DOPC   H2S21071   3.072   5.977  13.255  1.3671 -1.2388 -0.2889
  173DOPC    C321072   3.420   6.299  13.211  0.3450  0.1035  0.0980
  173DOPC    HX21073   3.328   6.354  13.241  1.7167  2.8043 -0.3499
  173DOPC    HY21074   3.484   6.374  13.162  1.6532 -0.1596  1.3302
  173DOPC   O3121075   3.487   6.264  13.339 -0.1692  0.0988 -0.1266
  173DOPC   C3121076   3.613   6.214  13.330 -0.3494  0.5179  0.0783
  173DOPC   O3221077   3.676   6.198  13.226  0.1079  0.1452 -0.2346
  173DOPC   C3221078   3.666   6.177  13.464 -0.2014 -1.1812  0.0191
  173DOPC   H2X21079   3.575   6.147  13.520 -1.6097 -0.3594 -1.7077
  173DOPC   H2Y21080   3.729   6.086  13.454  3.6748  1.2738 -0.1219
  173DOPC   C2321081   3.101   6.120  13.418 -0.2675  0.4315  0.4161
  173DOPC   H3R21082   2.998   6.086  13.444 -1.1530  2.6197 -0.0669
  173DOPC   H3S21083   3.087   6.214  13.362 -2.5883  0.3406  0.7286
  173DOPC   C2421084   3.192   6.128  13.543  0.1225 -0.3020  0.5528
  173DOPC   H4R21085   3.294   6.163  13.516 -0.4799  2.2791  1.3744
  173DOPC   H4S21086   3.195   6.037  13.606 -0.6170 -0.7797 -0.0836
  173DOPC   C2521087   3.133   6.235  13.636  0.1596 -0.1126  0.5022
  173DOPC   H5R21088   3.024   6.211  13.641  0.2434 -0.3640  1.2417
  173DOPC   H5S21089   3.150   6.333  13.588  0.8861  0.0781  1.1344
  173DOPC   C2621090   3.189   6.230  13.777  0.2746 -0.3801  0.5431
  173DOPC   H6R21091   3.299   6.239  13.765  0.4208 -1.0150  1.2892
  173DOPC   H6S21092   3.181   6.126  13.816  0.4438 -0.6735 -0.1904
  173DOPC   C2721093   3.125   6.335  13.868  0.2342 -0.2125 -0.3818
  173DOPC   H7R21094   3.015   6.332  13.860  0.0671  0.7168  1.1756
  173DOPC   H7S21095   3.153   6.438  13.835 -2.1868 -0.1068 -2.4184
  173DOPC   C2821096   3.161   6.310  14.013 -0.2009 -1.1595  0.7708
  173DOPC   H8R21097   3.156   6.409  14.063  0.1519 -0.1773 -1.0652
  173DOPC   H8S21098   3.266   6.276  14.025  0.1712 -0.2520  0.1991
  173DOPC   C2921099   3.070   6.205  14.070 -0.5723 -0.3649 -0.4514
  173DOPC   H9R21100   3.017   6.147  13.994  0.6418 -0.3598 -1.3261
  173DOPC  C21021101   3.055   6.179  14.198  0.4055 -0.2579  0.8068
  173DOPC  H10R21102   2.980   6.102  14.225 -0.7658  0.2767 -0.7781
  173DOPC  C21121103   3.112   6.246  14.312  0.3103 -0.7430 -0.0216
  173DOPC  H11R21104   3.038   6.319  14.351  0.4524 -0.8961  0.5464
  173DOPC  H11S21105   3.204   6.299  14.277  0.5879 -0.1288  1.5519
  173DOPC  C21221106   3.163   6.166  14.432 -1.0034 -0.9883 -0.5713
  173DOPC  H12R21107   3.272   6.186  14.437 -1.1520  0.2143 -1.6483
  173DOPC  H12S21108   3.152   6.055  14.425 -0.5961 -1.0456 -0.3466
  173DOPC  C21321109   3.101   6.209  14.573 -0.0100  0.1408 -0.0556
  173DOPC  H13R21110   2.999   6.164  14.576  0.7889 -2.0047 -1.8748
  173DOPC  H13S21111   3.094   6.319  14.572  3.0737  0.4442 -1.4419
  173DOPC  C21421112   3.180   6.177  14.694  0.2816 -0.3219  0.6484
  173DOPC  H14R21113   3.282   6.218  14.679 -0.8034  1.7202 -1.8186
  173DOPC  H14S21114   3.185   6.068  14.713  0.4142 -0.3648  0.3708
  173DOPC  C21521115   3.123   6.240  14.827  0.2788 -0.1016  0.4682
  173DOPC  H15R21116   3.015   6.211  14.829 -0.5973  2.7516 -0.6154
  173DOPC  H15S21117   3.127   6.351  14.826 -0.7236 -0.0286 -1.2896
  173DOPC  C21621118   3.185   6.179  14.948  0.2400 -0.3079 -0.0507
  173DOPC  H16R21119   3.288   6.218  14.951  1.0283 -2.1780 -0.9282
  173DOPC  H16S21120   3.189   6.069  14.930  1.2879 -0.2399 -0.2678
  173DOPC  C21721121   3.095   6.212  15.069  0.1234 -0.1166 -0.4099
  173DOPC  H17R21122   3.123   6.156  15.160  1.1418  0.2984 -0.4516
  173DOPC  H17S21123   2.990   6.181  15.052 -0.0248  0.3067 -0.3011
  173DOPC  C21821124   3.089   6.365  15.105  0.1860 -0.1332  0.1130
  173DOPC  H18R21125   3.028   6.409  15.023  0.9257  0.6325 -0.0410
  173DOPC  H18S21126   3.186   6.418  15.091 -0.8459  1.4270 -1.6226
  173DOPC  H18T21127   3.034   6.381  15.200 -0.2566 -1.0665  0.0222
  173DOPC   C3321128   3.735   6.298  13.532  0.9640  0.5239  0.3225
  173DOPC   H3X21129   3.659   6.379  13.536  0.0778 -0.2958  0.3511
  173DOPC   H3Y21130   3.822   6.330  13.470  1.0720 -3.7612 -2.1228
  173DOPC   C3421131   3.782   6.276  13.676 -0.0896 -0.7016  0.3940
  173DOPC   H4X21132   3.855   6.354  13.706  0.8199 -1.3672 -0.0486
  173DOPC   H4Y21133   3.847   6.187  13.681  0.7986 -0.0440  0.8355
  173DOPC   C3521134   3.673   6.269  13.781 -0.0013  0.2831 -0.1775
  173DOPC   H5X21135   3.607   6.186  13.746 -0.5013  1.1972 -1.4926
  173DOPC   H5Y21136   3.614   6.363  13.780 -0.3156  0.0899 -0.9440
  173DOPC   C3621137   3.718   6.246  13.927 -0.5578 -0.8360 -0.8060
  173DOPC   H6X21138   3.791   6.163  13.933 -0.5063 -0.6791  1.2291
  173DOPC   H6Y21139   3.782   6.336  13.939  1.0338 -1.7780 -1.9155
  173DOPC   C3721140   3.606   6.246  14.028  0.4748 -0.3309  0.4370
  173DOPC   H7X21141   3.532   6.324  13.998  0.6148 -0.8937 -1.4579
  173DOPC   H7Y21142   3.552   6.151  14.044 -0.2121  0.1868  1.3157
  173DOPC   C3821143   3.660   6.295  14.166 -0.0655  0.0733  0.3065
  173DOPC   H8X21144   3.571   6.307  14.232 -1.4821 -0.9132 -1.3489
  173DOPC   H8Y21145   3.707   6.391  14.137 -0.5000  0.5600  1.1712
  173DOPC   C3921146   3.759   6.195  14.225 -0.2282 -0.0602  0.3579
  173DOPC   H9X21147   3.851   6.177  14.167 -0.2481 -0.1376  0.3511
  173DOPC  C31021148   3.732   6.124  14.339 -0.0955  0.4622  0.5781
  173DOPC  H10X21149   3.806   6.048  14.369  0.0378 -0.2090 -1.3193
  173DOPC  C31121150   3.604   6.112  14.418 -0.9396 -0.0091 -0.2984
  173DOPC  H11X21151   3.576   6.005  14.423 -1.2939  0.0071 -1.7110
  173DOPC  H11Y21152   3.523   6.169  14.367  0.0239  2.1926  0.4614
  173DOPC  C31221153   3.631   6.173  14.564  0.2181 -0.3536 -0.2201
  173DOPC  H12X21154   3.531   6.181  14.610 -0.1952 -0.9348 -0.9904
  173DOPC  H12Y21155   3.659   6.280  14.550  1.1827 -0.4802  0.6026
  173DOPC  C31321156   3.726   6.097  14.650 -0.6139  0.2301  0.2236
  173DOPC  H13X21157   3.678   5.998  14.669  1.5180 -0.4141  2.8311
  173DOPC  H13Y21158   3.822   6.072  14.598 -0.6229  0.7159 -0.0360
  173DOPC  C31421159   3.756   6.166  14.787 -0.2806  0.1532 -0.4111
  173DOPC  H14X21160   3.799   6.267  14.771 -0.9368  0.1664 -2.3439
  173DOPC  H14Y21161   3.652   6.173  14.826  0.6218  1.2524  1.9749
  173DOPC  C31521162   3.849   6.084  14.881  0.4119  0.4072 -0.1373
  173DOPC  H15X21163   3.952   6.082  14.839  0.4918  0.3877  0.0589
  173DOPC  H15Y21164   3.813   5.979  14.887 -0.5517  0.7486  0.3302
  173DOPC  C31621165   3.849   6.143  15.030  0.1014  0.0998 -0.4942
  173DOPC  H16X21166   3.745   6.127  15.064  0.4098 -1.0211 -0.0384
  173DOPC  H16Y21167   3.915   6.073  15.086 -0.4509 -0.8035 -0.9480
  173DOPC  C31721168   3.909   6.284  15.044 -0.0023  0.3911 -0.5766
  173DOPC  H17X21169   4.008   6.275  14.995 -0.9535 -2.4840 -2.1619
  173DOPC  H17Y21170   3.855   6.364  14.987  0.1180  1.5085  0.8115
  173DOPC  C31821171   3.928   6.326  15.189 -0.5192 -1.0274  0.0420
  173DOPC  H18X21172   3.971   6.427  15.206  1.2055 -1.7076 -0.1065
  173DOPC  H18Y21173   3.838   6.320  15.254  0.5795 -0.7869  1.6538
  173DOPC  H18Z21174   3.999   6.261  15.245  0.8300  3.3291  3.9842
  174DOPC     N21175   0.411   6.188  13.031 -0.2617  0.4276  0.5078
  174DOPC   C1221176   0.495   6.100  13.122  0.4755 -0.5570 -0.4795
  174DOPC  H12A21177   0.569   6.166  13.163 -0.7809  1.1103 -0.7914
  174DOPC  H12B21178   0.548   6.019  13.074  0.3293 -1.4608  0.7967
  174DOPC   C1321179   0.505   6.249  12.922 -0.3332 -0.3274  0.7333
  174DOPC  H13A21180   0.446   6.304  12.851  0.7667 -1.4650 -1.1288
  174DOPC  H13B21181   0.579   6.314  12.967 -0.4261 -1.9244  3.4192
  174DOPC  H13C21182   0.553   6.177  12.858 -0.2834 -0.5466  1.0160
  174DOPC   C1421183   0.354   6.303  13.107  0.0717 -1.2338 -0.6932
  174DOPC  H14A21184   0.336   6.382  13.036 -0.4006 -0.9038 -0.2101
  174DOPC  H14B21185   0.265   6.273  13.160  1.7419  0.3893  3.4978
  174DOPC  H14C21186   0.425   6.341  13.179 -1.4385  0.3756  0.0151
  174DOPC   C1521187   0.298   6.113  12.954 -0.1911  0.7009 -0.5451
  174DOPC  H15A21188   0.340   6.032  12.896 -0.2199  0.1675  0.1842
  174DOPC  H15B21189   0.233   6.175  12.893 -1.3093 -0.3398 -0.4479
  174DOPC  H15C21190   0.230   6.063  13.021 -0.3563  0.5973 -0.7864
  174DOPC   C1121191   0.414   6.040  13.242  0.7893  1.2799  0.0592
  174DOPC  H11A21192   0.481   5.989  13.314  1.8010  0.1336 -1.6466
  174DOPC  H11B21193   0.368   6.120  13.305 -0.6951 -1.6756  3.0695
  174DOPC     P21194   0.342   5.800  13.163  0.4191 -0.7456  0.2297
  174DOPC   O1321195   0.437   5.802  13.053  0.4567  0.0800  0.1737
  174DOPC   O1421196   0.208   5.739  13.143 -0.6485  0.2634 -0.2390
  174DOPC   O1221197   0.309   5.955  13.201 -0.1198  0.1278  0.1698
  174DOPC   O1121198   0.411   5.734  13.287  0.0098 -0.0653 -0.6996
  174DOPC    C121199   0.360   5.745  13.420  0.0398  0.1014  0.6239
  174DOPC    HA21200   0.309   5.840  13.447 -0.4797 -0.6137  2.2883
  174DOPC    HB21201   0.455   5.739  13.478  0.7477 -0.6181 -0.5833
  174DOPC    C221202   0.268   5.626  13.468 -1.0942  0.2617 -0.4026
  174DOPC    HS21203   0.179   5.629  13.402 -0.4624  0.9370 -1.2489
  174DOPC   O2121204   0.230   5.649  13.603  0.5013  0.3818  0.4174
  174DOPC   C2121205   0.127   5.573  13.649  0.1992 -0.5744  1.0659
  174DOPC   O2221206   0.069   5.489  13.581  0.5855  0.4835  0.5853
  174DOPC   C2221207   0.093   5.609  13.802  0.4711  0.2321  0.0308
  174DOPC   H2R21208   0.004   5.675  13.802  1.0925  1.1116  1.6555
  174DOPC   H2S21209   0.175   5.676  13.838  0.9486 -1.0303  1.3707
  174DOPC    C321210   0.344   5.487  13.441 -0.2563 -0.4601 -0.5563
  174DOPC    HX21211   0.349   5.464  13.333  0.2435 -0.9870 -0.4301
  174DOPC    HY21212   0.270   5.416  13.484  0.5116 -1.1444 -0.3476
  174DOPC   O3121213   0.474   5.490  13.496 -0.3856  0.4601 -0.4828
  174DOPC   C3121214   0.481   5.443  13.624  0.0842 -0.3115  0.4212
  174DOPC   O3221215   0.388   5.397  13.692  0.1395  0.2630  0.0569
  174DOPC   C3221216   0.622   5.442  13.671  0.0205  0.3183  0.4956
  174DOPC   H2X21217   0.673   5.368  13.606 -0.8394 -0.2117  0.4103
  174DOPC   H2Y21218   0.671   5.539  13.646 -0.5170  0.2233 -1.0619
  174DOPC   C2321219   0.068   5.487  13.892 -0.4010  0.0916 -0.5122
  174DOPC   H3R21220   0.151   5.417  13.867  1.7232  1.6260  1.7818
  174DOPC   H3S21221  -0.034   5.447  13.877 -0.9442  0.1368  2.4375
  174DOPC   C2421222   0.068   5.522  14.038  0.0368  0.4433 -0.6983
  174DOPC   H4R21223   0.050   5.631  14.051  0.8999  0.6159 -0.9079
  174DOPC   H4S21224   0.165   5.502  14.089  0.8539 -2.8144 -3.1853
  174DOPC   C2521225  -0.044   5.448  14.114  0.2136 -0.4957 -0.0466
  174DOPC   H5R21226  -0.019   5.340  14.114  1.4715 -0.2543 -2.0303
  174DOPC   H5S21227  -0.142   5.467  14.066  0.2363  0.0431  0.1115
  174DOPC   C2621228  -0.042   5.483  14.267  0.4331 -0.1265 -0.0263
  174DOPC   H6R21229   0.064   5.474  14.299  0.4815  1.1573  0.2454
  174DOPC   H6S21230  -0.106   5.406  14.315  1.0501  0.1642  1.3097
  174DOPC   C2721231  -0.096   5.624  14.295 -0.2113 -0.4015  1.2018
  174DOPC   H7R21232  -0.163   5.663  14.215  1.9514  0.9428 -0.0602
  174DOPC   H7S21233  -0.012   5.697  14.287 -0.0028 -0.7759 -0.4134
  174DOPC   C2821234  -0.176   5.650  14.420  0.0708 -0.0575 -0.4519
  174DOPC   H8R21235  -0.182   5.759  14.443  2.0425  0.3850 -1.7799
  174DOPC   H8S21236  -0.106   5.621  14.501  0.5146  1.1067 -0.4009
  174DOPC   C2921237  -0.313   5.580  14.427 -0.5548  0.3770  0.1289
  174DOPC   H9R21238  -0.375   5.592  14.337  1.7006 -0.6269 -1.6515
  174DOPC  C21021239  -0.338   5.480  14.506  0.3562  0.2803 -0.7912
  174DOPC  H10R21240  -0.444   5.453  14.506 -0.1014  1.7865  1.5151
  174DOPC  C21121241  -0.248   5.424  14.612  0.1175 -0.7893 -0.5837
  174DOPC  H11R21242  -0.142   5.415  14.579 -0.1227  1.5201 -2.2396
  174DOPC  H11S21243  -0.284   5.321  14.634  1.1654 -0.9271  0.5961
  174DOPC  C21221244  -0.252   5.531  14.731 -0.1741  0.7213  0.3285
  174DOPC  H12R21245  -0.356   5.542  14.767 -0.2164  0.4328  0.2973
  174DOPC  H12S21246  -0.207   5.627  14.697 -1.5007  2.3283  2.8605
  174DOPC  C21321247  -0.168   5.486  14.854 -0.3129 -0.4876 -0.8725
  174DOPC  H13R21248  -0.060   5.478  14.828 -0.2372 -1.4709 -0.2901
  174DOPC  H13S21249  -0.209   5.388  14.886 -1.1700  0.3730  0.7396
  174DOPC  C21421250  -0.184   5.575  14.978 -0.0776  1.0763 -0.1049
  174DOPC  H14R21251  -0.190   5.680  14.941 -1.3904  0.6270 -1.2622
  174DOPC  H14S21252  -0.095   5.555  15.041  0.5195 -1.8117 -1.6403
  174DOPC  C21521253  -0.320   5.541  15.045  0.1898 -0.1629 -0.2169
  174DOPC  H15R21254  -0.319   5.433  15.074  0.4017 -0.3765 -0.9876
  174DOPC  H15S21255  -0.398   5.555  14.968 -0.6105 -0.1321  0.5814
  174DOPC  C21621256  -0.347   5.634  15.168 -0.2255  0.3593  0.1480
  174DOPC  H16R21257  -0.333   5.737  15.128  0.2954 -0.3714 -1.6644
  174DOPC  H16S21258  -0.265   5.633  15.243  0.5135  1.6998 -0.6080
  174DOPC  C21721259  -0.485   5.604  15.229 -0.8144  0.6780 -1.2088
  174DOPC  H17R21260  -0.571   5.594  15.161 -1.8812 -0.2149  0.2182
  174DOPC  H17S21261  -0.509   5.694  15.290 -0.8116  0.8867 -1.5129
  174DOPC  C21821262  -0.476   5.482  15.327  0.0054 -0.4479  0.1708
  174DOPC  H18R21263  -0.573   5.458  15.374 -0.5150  0.8822 -0.1855
  174DOPC  H18S21264  -0.405   5.506  15.409 -1.0642  2.7067  0.2638
  174DOPC  H18T21265  -0.446   5.396  15.263  1.5425  1.4795 -1.8732
  174DOPC   C3321266   0.644   5.414  13.817  0.1898  0.1424 -0.5196
  174DOPC   H3X21267   0.752   5.387  13.826  0.1138 -0.8755 -2.1415
  174DOPC   H3Y21268   0.585   5.324  13.847 -0.3942  1.0288  1.1311
  174DOPC   C3421269   0.609   5.534  13.912 -0.7083  0.7077 -0.2665
  174DOPC   H4X21270   0.523   5.582  13.860 -1.0679  0.8845  0.4883
  174DOPC   H4Y21271   0.692   5.607  13.914 -0.5305  0.4834  0.7765
  174DOPC   C3521272   0.562   5.504  14.052 -0.2067 -0.6246  0.5318
  174DOPC   H5X21273   0.632   5.429  14.095  0.0422 -0.1612  0.9476
  174DOPC   H5Y21274   0.460   5.460  14.047 -0.7889  0.6899  0.4699
  174DOPC   C3621275   0.557   5.617  14.146 -0.0745  0.4339 -0.1416
  174DOPC   H6X21276   0.660   5.648  14.174  0.6602 -3.7978  2.8697
  174DOPC   H6Y21277   0.504   5.701  14.097  0.5872  0.5335 -0.7193
  174DOPC   C3721278   0.485   5.576  14.283 -0.5285 -0.9484  0.6991
  174DOPC   H7X21279   0.388   5.526  14.262 -1.3598  0.2454  1.6090
  174DOPC   H7Y21280   0.555   5.505  14.332 -0.2043  0.2759  2.0870
  174DOPC   C3821281   0.466   5.683  14.395  0.0434 -0.4924 -0.0379
  174DOPC   H8X21282   0.548   5.756  14.379  0.4846 -0.9299  0.1745
  174DOPC   H8Y21283   0.482   5.634  14.494 -0.8244  0.2769  0.5060
  174DOPC   C3921284   0.333   5.753  14.399 -0.3564  0.0766 -0.2243
  174DOPC   H9X21285   0.310   5.801  14.303  0.9856 -1.1894 -1.2310
  174DOPC  C31021286   0.251   5.770  14.498 -0.3182  0.2743 -0.0146
  174DOPC  H10X21287   0.155   5.819  14.475 -0.2027  0.8316  0.6678
  174DOPC  C31121288   0.266   5.711  14.635 -0.3038  0.0665 -0.1224
  174DOPC  H11X21289   0.361   5.659  14.659 -0.3605 -0.3505 -0.8018
  174DOPC  H11Y21290   0.188   5.633  14.651 -0.4720  0.1290 -0.6189
  174DOPC  C31221291   0.245   5.823  14.746 -0.3805  1.4583 -0.3376
  174DOPC  H12X21292   0.141   5.859  14.735 -0.3857  1.3428 -0.6769
  174DOPC  H12Y21293   0.314   5.909  14.737 -1.9580  2.6275 -1.9680
  174DOPC  C31321294   0.264   5.769  14.891 -0.2395  0.0746  0.3127
  174DOPC  H13X21295   0.249   5.857  14.957 -1.9205  0.6528 -0.7512
  174DOPC  H13Y21296   0.180   5.703  14.922 -1.2059  1.3932  0.5957
  174DOPC  C31421297   0.402   5.706  14.921 -0.3194  0.7523  0.4248
  174DOPC  H14X21298   0.406   5.609  14.867  1.5475  0.6017  0.7788
  174DOPC  H14Y21299   0.483   5.765  14.874 -0.1297 -0.8885 -1.4317
  174DOPC  C31521300   0.424   5.658  15.067  0.1935  0.4220 -0.4417
  174DOPC  H15X21301   0.490   5.568  15.065  1.2384  1.1702 -1.7818
  174DOPC  H15Y21302   0.321   5.654  15.108  0.1605  1.5846 -0.3755
  174DOPC  C31621303   0.491   5.763  15.152  0.3988  0.1148 -0.9584
  174DOPC  H16X21304   0.579   5.803  15.099  0.3215  0.5828 -0.7407
  174DOPC  H16Y21305   0.418   5.847  15.156 -0.0379 -0.2924  0.2231
  174DOPC  C31721306   0.502   5.712  15.292  0.4136  0.3044 -0.0128
  174DOPC  H17X21307   0.552   5.614  15.307  0.3978  0.3338  0.2222
  174DOPC  H17Y21308   0.560   5.781  15.357 -0.1101  1.4384 -0.7216
  174DOPC  C31821309   0.368   5.695  15.368 -0.5307 -0.4593 -0.1993
  174DOPC  H18X21310   0.383   5.642  15.464 -2.1538 -0.1161  0.2716
  174DOPC  H18Y21311   0.314   5.791  15.384  2.5394  1.1985  1.0381
  174DOPC  H18Z21312   0.294   5.634  15.311 -0.1750  0.9397 -2.2857
  175DOPC     N21313   5.081   1.035  12.765 -0.3854  0.3101 -0.2782
  175DOPC   C1221314   5.181   0.926  12.767 -0.2486 -0.0979  0.5003
  175DOPC  H12A21315   5.249   0.936  12.684 -2.5597  0.5062 -1.4404
  175DOPC  H12B21316   5.130   0.831  12.758  1.1981 -1.0255  1.5047
  175DOPC   C1321317   4.997   1.009  12.887 -0.6389  0.2787 -0.2404
  175DOPC  H13A21318   5.059   1.006  12.975 -0.3586 -1.7191 -0.4449
  175DOPC  H13B21319   4.924   1.085  12.911  0.5563  0.5541  2.9631
  175DOPC  H13C21320   4.952   0.910  12.896 -0.2628  0.3104  4.1875
  175DOPC   C1421321   4.995   1.037  12.645 -0.1154 -0.1379 -0.2105
  175DOPC  H14A21322   4.919   1.114  12.641  1.6142  1.8302  2.0397
  175DOPC  H14B21323   5.046   1.037  12.549  1.0935 -0.2597  0.4152
  175DOPC  H14C21324   4.938   0.945  12.651  0.1631 -0.2170  2.1373
  175DOPC   C1521325   5.141   1.168  12.768  0.6965  0.5963 -0.1010
  175DOPC  H15A21326   5.060   1.240  12.779  0.3715  0.3522 -0.8419
  175DOPC  H15B21327   5.185   1.183  12.671  1.5143 -0.9425  0.0002
  175DOPC  H15C21328   5.214   1.178  12.847  1.0493  0.7122 -0.4414
  175DOPC   C1121329   5.257   0.906  12.899  0.0388 -0.4874 -0.2790
  175DOPC  H11A21330   5.354   0.859  12.871  0.4602 -0.3353  0.8514
  175DOPC  H11B21331   5.287   1.008  12.934  3.3498 -1.4429  0.0335
  175DOPC     P21332   5.182   0.675  12.992  0.4263 -0.2508 -0.2858
  175DOPC   O1321333   5.318   0.625  12.970  0.0032  0.4901  0.1086
  175DOPC   O1421334   5.071   0.639  12.897  0.3804 -0.3439  0.4768
  175DOPC   O1221335   5.191   0.832  12.998  0.6215 -0.4749 -0.3857
  175DOPC   O1121336   5.142   0.643  13.139  0.4370 -0.5522  0.5287
  175DOPC    C121337   5.004   0.650  13.185  0.4748 -0.5305 -0.1361
  175DOPC    HA21338   4.939   0.575  13.134 -0.3786 -1.7782  2.5938
  175DOPC    HB21339   4.964   0.754  13.177  2.2449  0.3172  1.3287
  175DOPC    C221340   4.987   0.614  13.332 -0.0103 -0.4652  0.4304
  175DOPC    HS21341   4.880   0.629  13.358  0.0055  1.5430 -0.4306
  175DOPC   O2121342   5.074   0.701  13.408 -0.0072 -0.3786 -0.3141
  175DOPC   C2121343   5.032   0.822  13.435 -0.4763 -0.4143 -0.3419
  175DOPC   O2221344   4.923   0.865  13.412  0.1110 -0.6155 -0.1488
  175DOPC   C2221345   5.146   0.909  13.504 -0.1079  0.7287 -0.3089
  175DOPC   H2R21346   5.152   1.012  13.464 -1.0294  0.9285  0.0371
  175DOPC   H2S21347   5.240   0.850  13.492  0.2294  0.6858  2.0708
  175DOPC    C321348   5.016   0.460  13.364 -0.3239 -0.3294 -0.0819
  175DOPC    HX21349   5.117   0.432  13.328 -0.9513 -2.1174 -0.5253
  175DOPC    HY21350   4.938   0.404  13.308  0.3214 -0.6816 -0.6436
  175DOPC   O3121351   4.997   0.422  13.506  0.3464  0.2246 -0.6555
  175DOPC   C3121352   5.083   0.336  13.561 -0.4544 -0.6172  0.5428
  175DOPC   O3221353   5.172   0.278  13.497  0.4576 -0.6773 -0.0558
  175DOPC   C3221354   5.050   0.322  13.703 -0.7690 -0.3157 -0.3052
  175DOPC   H2X21355   4.947   0.359  13.720 -0.0207  1.3213  0.8738
  175DOPC   H2Y21356   5.066   0.221  13.745 -0.1609 -0.1060 -0.0264
  175DOPC   C2321357   5.116   0.922  13.656  0.5776 -0.0549 -0.1789
  175DOPC   H3R21358   5.017   0.880  13.683  0.8372 -1.8888 -1.8784
  175DOPC   H3S21359   5.113   1.030  13.685 -1.0978 -0.8280  2.9619
  175DOPC   C2421360   5.227   0.856  13.738  0.0346  1.0592  0.2205
  175DOPC   H4R21361   5.329   0.853  13.693 -0.2256 -0.4375 -0.3263
  175DOPC   H4S21362   5.198   0.749  13.728 -2.8230  1.9067 -1.5182
  175DOPC   C2521363   5.227   0.902  13.887 -0.4927 -0.0460 -0.2592
  175DOPC   H5R21364   5.287   0.830  13.946  0.0666  1.1713  0.7219
  175DOPC   H5S21365   5.124   0.911  13.927 -0.2623 -0.5465  0.4625
  175DOPC   C2621366   5.305   1.035  13.899 -0.0836 -0.7192 -0.1716
  175DOPC   H6R21367   5.262   1.121  13.844  0.4910  0.7367  1.5471
  175DOPC   H6S21368   5.403   1.015  13.850 -0.0306  0.6470 -0.6503
  175DOPC   C2721369   5.347   1.077  14.050 -0.3412  0.4220  0.0877
  175DOPC   H7R21370   5.382   0.982  14.095  2.3470  0.8348 -0.9269
  175DOPC   H7S21371   5.267   1.121  14.113 -0.1900  0.3766  0.3126
  175DOPC   C2821372   5.471   1.166  14.063 -0.0758 -0.5114  0.0630
  175DOPC   H8R21373   5.547   1.138  13.987 -0.7845 -2.6017  0.0663
  175DOPC   H8S21374   5.523   1.143  14.158 -1.4259 -1.0048  0.7131
  175DOPC   C2921375   5.442   1.315  14.040  0.7279  0.6887  0.2217
  175DOPC   H9R21376   5.408   1.353  13.942  0.8412  0.7232  0.1948
  175DOPC  C21021377   5.444   1.406  14.139 -0.2911 -0.5193 -0.0541
  175DOPC  H10R21378   5.411   1.509  14.118  1.0706  0.0843  0.6054
  175DOPC  C21121379   5.469   1.395  14.293  0.1586 -0.2709 -0.0607
  175DOPC  H11R21380   5.455   1.492  14.344  0.3166 -0.4360  0.2987
  175DOPC  H11S21381   5.576   1.367  14.309 -0.2967 -1.3690  1.1869
  175DOPC  C21221382   5.392   1.285  14.369 -0.0588 -0.2133  0.5391
  175DOPC  H12R21383   5.386   1.190  14.311 -0.1679  0.1405 -0.0405
  175DOPC  H12S21384   5.286   1.317  14.357  0.6390  1.4701 -1.9183
  175DOPC  C21321385   5.442   1.264  14.510 -0.1002 -0.2448 -0.6152
  175DOPC  H13R21386   5.539   1.210  14.508 -0.1629 -0.6187  2.1681
  175DOPC  H13S21387   5.368   1.190  14.549 -1.7952 -0.2437 -3.4974
  175DOPC  C21421388   5.443   1.383  14.606  0.0864 -0.1195  0.2075
  175DOPC  H14R21389   5.339   1.421  14.617  0.0778 -0.2018  0.4187
  175DOPC  H14S21390   5.513   1.462  14.573  0.8097  0.2914  2.5346
  175DOPC  C21521391   5.497   1.349  14.749  0.4540  0.4118  0.6818
  175DOPC  H15R21392   5.606   1.371  14.739  0.0648  2.4513  0.5203
  175DOPC  H15S21393   5.468   1.246  14.781 -1.7049  0.5375 -0.7070
  175DOPC  C21621394   5.447   1.440  14.864  0.0118  0.0447 -0.1648
  175DOPC  H16R21395   5.495   1.538  14.845  0.8663 -0.5895 -1.4681
  175DOPC  H16S21396   5.490   1.398  14.958  0.0810 -0.0748 -0.2490
  175DOPC  C21721397   5.295   1.446  14.875 -0.4128 -0.1383 -0.0541
  175DOPC  H17R21398   5.260   1.500  14.785  0.2456 -0.9446 -0.8081
  175DOPC  H17S21399   5.282   1.504  14.969  1.5094 -1.1062  0.8866
  175DOPC  C21821400   5.224   1.309  14.894 -0.1977 -0.1238 -0.2037
  175DOPC  H18R21401   5.290   1.237  14.947  0.0760 -1.0718 -1.7913
  175DOPC  H18S21402   5.192   1.260  14.800 -1.8455 -1.5704  1.0433
  175DOPC  H18T21403   5.134   1.338  14.953 -0.5640 -1.0214 -0.3158
  175DOPC   C3321404   5.137   0.408  13.805 -0.2259  0.7319  0.0164
  175DOPC   H3X21405   5.149   0.512  13.769  1.1872  0.6440  0.1648
  175DOPC   H3Y21406   5.233   0.354  13.823 -1.6608 -1.6771  0.8759
  175DOPC   C3421407   5.077   0.404  13.946 -0.1086  0.2557  0.3851
  175DOPC   H4X21408   5.085   0.295  13.966 -0.3816  0.0463 -0.5990
  175DOPC   H4Y21409   4.972   0.438  13.952  0.0483  0.9492 -0.4287
  175DOPC   C3521410   5.173   0.491  14.031 -0.7895  0.4529 -0.0833
  175DOPC   H5X21411   5.179   0.598  14.002  0.0725  0.5374  0.4064
  175DOPC   H5Y21412   5.274   0.446  14.021 -0.7298  0.2463  1.2367
  175DOPC   C3621413   5.130   0.476  14.177  0.1803 -0.1033  0.2033
  175DOPC   H6X21414   5.032   0.527  14.189 -0.2187 -1.0794  1.3303
  175DOPC   H6Y21415   5.118   0.368  14.202 -2.1410  0.0484 -0.0191
  175DOPC   C3721416   5.229   0.540  14.276  0.3570  0.3335 -0.4719
  175DOPC   H7X21417   5.184   0.529  14.377 -1.1670 -2.1617 -1.3281
  175DOPC   H7Y21418   5.322   0.480  14.283  0.8153  1.2331  1.9266
  175DOPC   C3821419   5.254   0.687  14.241 -0.7574 -0.1384  0.1487
  175DOPC   H8X21420   5.155   0.738  14.237  1.2277  4.1816 -0.0700
  175DOPC   H8Y21421   5.289   0.705  14.137  1.7988 -0.9487  0.8049
  175DOPC   C3921422   5.343   0.754  14.334  0.4391 -0.1352 -0.9152
  175DOPC   H9X21423   5.449   0.757  14.306  1.1423  2.1153  1.5591
  175DOPC  C31021424   5.312   0.817  14.449 -0.1264  0.8238  0.5521
  175DOPC  H10X21425   5.393   0.851  14.515  2.7942 -1.2188 -1.7227
  175DOPC  C31121426   5.165   0.832  14.501 -1.0702  0.2403 -0.2407
  175DOPC  H11X21427   5.115   0.734  14.519  0.2537 -0.2030  1.1569
  175DOPC  H11Y21428   5.105   0.884  14.423 -1.4692 -0.2915 -0.2909
  175DOPC  C31221429   5.138   0.917  14.626 -0.4422 -0.0405  0.7499
  175DOPC  H12X21430   5.035   0.956  14.615  0.1414  1.1896 -0.7765
  175DOPC  H12Y21431   5.198   1.010  14.612  0.3689 -0.6081  0.3695
  175DOPC  C31321432   5.154   0.842  14.759  0.3213 -0.6949  0.2760
  175DOPC  H13X21433   5.112   0.910  14.837 -2.6539 -1.4864 -0.4958
  175DOPC  H13Y21434   5.083   0.756  14.754  0.4541 -0.7304 -2.5472
  175DOPC  C31421435   5.300   0.819  14.798  0.2050 -0.2836  0.2258
  175DOPC  H14X21436   5.347   0.740  14.735 -1.8534 -0.8224 -0.7279
  175DOPC  H14Y21437   5.361   0.907  14.770  1.1622 -1.0674 -0.2480
  175DOPC  C31521438   5.325   0.803  14.950 -0.2883 -0.2470 -1.0819
  175DOPC  H15X21439   5.286   0.703  14.976 -0.8069  0.2115 -0.0466
  175DOPC  H15Y21440   5.261   0.873  15.009 -2.5419 -2.1591 -1.1234
  175DOPC  C31621441   5.479   0.815  14.983  0.2005 -0.3403 -0.0404
  175DOPC  H16X21442   5.535   0.724  14.951  1.5691  0.4417  0.0452
  175DOPC  H16Y21443   5.520   0.908  14.938 -1.2770 -0.5275 -1.8658
  175DOPC  C31721444   5.501   0.827  15.132  0.3299 -0.4622  0.0441
  175DOPC  H17X21445   5.458   0.921  15.172 -0.0885 -0.7675  0.3288
  175DOPC  H17Y21446   5.440   0.745  15.176 -1.5298  0.7919 -0.0390
  175DOPC  C31821447   5.641   0.800  15.198  0.5507 -0.2915  0.1389
  175DOPC  H18X21448   5.624   0.776  15.305  0.9276 -1.0511  0.0351
  175DOPC  H18Y21449   5.696   0.716  15.151  1.5743  0.8577 -0.7760
  175DOPC  H18Z21450   5.698   0.894  15.205  1.5404 -0.9235  0.7375
  176DOPC     N21451   0.238   4.195  12.544 -0.4781  0.5267 -0.5017
  176DOPC   C1221452   0.296   4.251  12.671 -0.4735 -0.0861 -0.1478
  176DOPC  H12A21453   0.217   4.298  12.727  1.0512  1.3728  0.8605
  176DOPC  H12B21454   0.364   4.332  12.648  2.3941 -1.7866  1.5686
  176DOPC   C1321455   0.131   4.286  12.491 -0.9800 -0.0182  0.1593
  176DOPC  H13A21456   0.048   4.284  12.560  0.4305 -1.8236  1.9485
  176DOPC  H13B21457   0.172   4.386  12.486  2.9773 -1.5394 -1.6362
  176DOPC  H13C21458   0.102   4.254  12.392  0.3935  1.2039 -0.6832
  176DOPC   C1421459   0.173   4.060  12.563  0.1957  0.6428  0.1400
  176DOPC  H14A21460   0.087   4.069  12.627 -0.6499 -1.1319 -0.6641
  176DOPC  H14B21461   0.150   4.007  12.471  0.9074 -1.2528  0.9970
  176DOPC  H14C21462   0.238   3.991  12.615  1.4990 -1.1578 -3.5284
  176DOPC   C1521463   0.342   4.185  12.433  0.7856  0.4041 -0.0686
  176DOPC  H15A21464   0.301   4.153  12.338  2.1500  0.0558 -0.5699
  176DOPC  H15B21465   0.427   4.130  12.470 -0.0273  0.6018  2.2666
  176DOPC  H15C21466   0.387   4.280  12.410  0.9894  0.6916  1.4373
  176DOPC   C1121467   0.379   4.154  12.757  0.4207 -0.4104  0.1608
  176DOPC  H11A21468   0.407   4.213  12.847  0.1808 -0.9601  0.6000
  176DOPC  H11B21469   0.316   4.064  12.774 -0.3052  0.1313  0.3792
  176DOPC     P21470   0.635   4.177  12.714 -0.0231  0.0235  0.2944
  176DOPC   O1321471   0.638   4.320  12.685  0.2803 -0.1643  0.4803
  176DOPC   O1421472   0.733   4.090  12.643 -0.2293 -0.1994 -0.1692
  176DOPC   O1221473   0.493   4.110  12.685 -0.1623 -0.6163 -0.7332
  176DOPC   O1121474   0.660   4.156  12.863 -0.2910  0.7087  0.4645
  176DOPC    C121475   0.640   4.025  12.920  0.4185  0.0637 -0.0367
  176DOPC    HA21476   0.737   3.975  12.903  0.4139 -1.4178  3.4901
  176DOPC    HB21477   0.557   3.975  12.865 -0.1095  1.3678 -0.4613
  176DOPC    C221478   0.618   4.023  13.073  0.2048 -0.2236  0.0626
  176DOPC    HS21479   0.619   3.917  13.109 -2.1798 -0.0882  0.6877
  176DOPC   O2121480   0.500   4.081  13.114 -0.3970 -0.5756  0.1690
  176DOPC   C2121481   0.388   4.034  13.067 -0.2564 -0.4521 -0.3499
  176DOPC   O2221482   0.374   3.924  13.020 -0.4448  0.1698 -0.1728
  176DOPC   C2221483   0.271   4.133  13.106  0.2222 -0.2908  0.0354
  176DOPC   H2R21484   0.174   4.078  13.098  0.0813  0.0959 -0.9858
  176DOPC   H2S21485   0.260   4.209  13.026 -2.5738 -0.5014  0.1266
  176DOPC    C321486   0.732   4.099  13.153 -0.3258 -0.0996  0.9398
  176DOPC    HX21487   0.756   4.202  13.120 -0.7838 -0.4204 -0.4563
  176DOPC    HY21488   0.815   4.035  13.117 -1.2877 -1.2572  0.7104
  176DOPC   O3121489   0.714   4.086  13.298  0.0603 -0.3242 -0.2510
  176DOPC   C3121490   0.647   4.175  13.363  0.0769 -1.0216  0.1900
  176DOPC   O3221491   0.624   4.288  13.325 -0.0954 -0.0190 -0.3254
  176DOPC   C3221492   0.618   4.128  13.502  0.1157  0.2391 -0.2231
  176DOPC   H2X21493   0.510   4.120  13.525  0.0067  0.3041 -0.7001
  176DOPC   H2Y21494   0.666   4.029  13.506  2.4060  1.2777 -0.3421
  176DOPC   C2321495   0.288   4.204  13.240 -0.5324  0.3511 -0.5294
  176DOPC   H3R21496   0.216   4.288  13.243  1.8695  2.4907  0.4523
  176DOPC   H3S21497   0.390   4.244  13.254  0.1676 -1.5046 -0.0489
  176DOPC   C2421498   0.256   4.120  13.366  0.1747 -0.2442 -0.0116
  176DOPC   H4R21499   0.341   4.054  13.393 -0.7397 -0.6023  2.1727
  176DOPC   H4S21500   0.174   4.050  13.339  0.1340 -0.2128  0.0288
  176DOPC   C2521501   0.240   4.202  13.492  0.6232  0.4766  0.0815
  176DOPC   H5R21502   0.147   4.260  13.475 -0.0497 -0.1893  1.3764
  176DOPC   H5S21503   0.325   4.273  13.504  0.5758  0.1580  3.0808
  176DOPC   C2621504   0.222   4.113  13.619 -0.5520 -0.1925 -0.0218
  176DOPC   H6R21505   0.316   4.054  13.632  0.9830  2.0119 -0.4966
  176DOPC   H6S21506   0.138   4.042  13.602 -1.0278  0.1546  0.8098
  176DOPC   C2721507   0.209   4.192  13.750  0.0654  0.0297  0.7560
  176DOPC   H7R21508   0.107   4.233  13.762 -1.0077 -1.8083 -1.2867
  176DOPC   H7S21509   0.282   4.276  13.746 -0.3337  0.3789  0.7538
  176DOPC   C2821510   0.232   4.096  13.869  0.7012 -0.5282  0.1592
  176DOPC   H8R21511   0.309   4.025  13.831 -0.4001 -1.9149  0.4444
  176DOPC   H8S21512   0.141   4.036  13.888  0.5881 -0.6225 -0.6542
  176DOPC   C2921513   0.285   4.165  13.988  0.0914  0.0344  0.3860
  176DOPC   H9R21514   0.384   4.209  13.969  0.2322 -0.5429 -0.2479
  176DOPC  C21021515   0.220   4.190  14.103  0.0410 -0.3037 -0.2755
  176DOPC  H10R21516   0.279   4.256  14.169  1.3536  0.1736 -1.8581
  176DOPC  C21121517   0.090   4.138  14.153 -0.3800 -0.0465 -0.3582
  176DOPC  H11R21518   0.033   4.078  14.079 -2.0717  1.3122 -0.2082
  176DOPC  H11S21519   0.027   4.220  14.194  0.1623  0.1732  0.0531
  176DOPC  C21221520   0.109   4.048  14.276  0.7152  0.3481  0.7839
  176DOPC  H12R21521   0.198   3.983  14.259  1.1879  1.0016  0.7475
  176DOPC  H12S21522   0.022   3.979  14.283  2.7408 -2.4953 -0.0567
  176DOPC  C21321523   0.131   4.117  14.411  0.6529 -0.1632  0.0526
  176DOPC  H13R21524   0.043   4.180  14.435 -0.7160 -1.3705 -1.5387
  176DOPC  H13S21525   0.221   4.182  14.414 -0.4963  1.4794  0.6967
  176DOPC  C21421526   0.140   4.011  14.520 -0.2712  0.0033  0.2603
  176DOPC  H14R21527   0.236   3.956  14.511 -0.1884 -0.0546  1.4180
  176DOPC  H14S21528   0.056   3.938  14.514  0.9311 -1.3876 -0.2649
  176DOPC  C21521529   0.123   4.071  14.664 -0.0106 -0.0278 -0.1991
  176DOPC  H15R21530   0.093   3.983  14.724 -0.4030  0.6852  0.6808
  176DOPC  H15S21531   0.037   4.142  14.659 -1.1917 -1.3280  0.8156
  176DOPC  C21621532   0.249   4.141  14.702  0.3821  0.7434 -0.1128
  176DOPC  H16R21533   0.292   4.201  14.619  0.2637  2.9297  1.3234
  176DOPC  H16S21534   0.328   4.068  14.727  1.4815  1.3081 -1.7436
  176DOPC  C21721535   0.216   4.243  14.808 -0.3551  0.4871  0.5292
  176DOPC  H17R21536   0.135   4.300  14.760 -0.5162 -1.9055 -2.3029
  176DOPC  H17S21537   0.310   4.300  14.829  0.0659 -0.0447  0.1215
  176DOPC  C21821538   0.168   4.177  14.940 -0.7507  0.5497  0.5831
  176DOPC  H18R21539   0.251   4.110  14.972 -0.1061  0.3713 -1.3813
  176DOPC  H18S21540   0.076   4.117  14.924 -0.1921 -0.4295  0.9725
  176DOPC  H18T21541   0.143   4.249  15.021 -1.2149 -0.6459  1.5416
  176DOPC   C3321542   0.672   4.227  13.608  0.2014  0.4292  0.3268
  176DOPC   H3X21543   0.626   4.322  13.574 -1.8020 -0.0651  1.5132
  176DOPC   H3Y21544   0.782   4.238  13.596 -0.0695  0.4060 -2.9233
  176DOPC   C3421545   0.629   4.191  13.749  0.1427  0.0049  0.3437
  176DOPC   H4X21546   0.660   4.086  13.768 -0.3997 -0.4802 -1.3062
  176DOPC   H4Y21547   0.521   4.181  13.772 -0.0497  1.8145  0.3446
  176DOPC   C3521548   0.695   4.275  13.852  0.0109  0.1586 -0.1424
  176DOPC   H5X21549   0.660   4.381  13.861 -0.4098 -0.0739  1.2094
  176DOPC   H5Y21550   0.804   4.288  13.833 -0.0858  2.5940  0.6449
  176DOPC   C3621551   0.684   4.214  13.989 -0.5165  0.3665  0.3501
  176DOPC   H6X21552   0.582   4.201  14.029  0.6655 -1.9681  2.9356
  176DOPC   H6Y21553   0.737   4.116  13.998  0.0446  0.3795 -2.0391
  176DOPC   C3721554   0.741   4.304  14.098  0.1582 -0.9762 -0.2625
  176DOPC   H7X21555   0.844   4.343  14.084 -0.7372  1.1892 -1.1122
  176DOPC   H7Y21556   0.678   4.395  14.094  0.3673 -0.7766  0.7023
  176DOPC   C3821557   0.732   4.246  14.241 -0.0429 -0.2829 -0.2163
  176DOPC   H8X21558   0.795   4.155  14.242  3.2394  1.7765  2.4723
  176DOPC   H8Y21559   0.628   4.212  14.264  0.1338 -0.7402 -0.0879
  176DOPC   C3921560   0.786   4.344  14.341  0.3046  1.0665 -0.6891
  176DOPC   H9X21561   0.865   4.406  14.296  0.5302 -0.5208 -2.5923
  176DOPC  C31021562   0.755   4.351  14.471  0.5298  0.1504 -0.0665
  176DOPC  H10X21563   0.807   4.415  14.544 -0.0159 -0.8003  1.1982
  176DOPC  C31121564   0.651   4.270  14.540  0.4777  0.2026  0.7273
  176DOPC  H11X21565   0.697   4.193  14.605 -1.1282  0.6673  2.5094
  176DOPC  H11Y21566   0.572   4.222  14.478  2.5105 -2.8832  0.3530
  176DOPC  C31221567   0.559   4.360  14.628 -0.2268 -0.4469  0.3685
  176DOPC  H12X21568   0.482   4.287  14.662 -0.1776 -0.7661 -0.1827
  176DOPC  H12Y21569   0.516   4.439  14.564  2.0099  0.7389  0.2600
  176DOPC  C31321570   0.637   4.409  14.752  0.0875  0.1753 -0.0201
  176DOPC  H13X21571   0.695   4.321  14.786  1.0134  0.8361  0.1818
  176DOPC  H13Y21572   0.721   4.476  14.720  0.5766 -0.3630  0.1210
  176DOPC  C31421573   0.558   4.484  14.856  0.2963 -0.2928 -0.6744
  176DOPC  H14X21574   0.472   4.430  14.899 -0.3213  2.9574  2.7541
  176DOPC  H14Y21575   0.630   4.502  14.939  1.2821 -2.2819 -1.0301
  176DOPC  C31521576   0.509   4.621  14.809  0.0741 -0.0640  0.1417
  176DOPC  H15X21577   0.448   4.621  14.716  0.5015  0.8510 -0.1527
  176DOPC  H15Y21578   0.605   4.676  14.797  0.8845 -1.0416  1.7812
  176DOPC  C31621579   0.436   4.685  14.923 -0.0316  0.6143 -0.5959
  176DOPC  H16X21580   0.391   4.777  14.881  0.1247  0.5953 -0.8054
  176DOPC  H16Y21581   0.355   4.621  14.964 -0.9792  2.7716  1.0790
  176DOPC  C31721582   0.515   4.720  15.054  0.3445  0.0163 -0.1335
  176DOPC  H17X21583   0.536   4.632  15.119 -0.6250 -0.8622 -0.9673
  176DOPC  H17Y21584   0.604   4.776  15.019 -0.4298  1.1508 -0.3454
  176DOPC  C31821585   0.434   4.812  15.141  0.1518 -0.0274 -0.4025
  176DOPC  H18X21586   0.377   4.889  15.085 -1.1925 -0.4500  0.3549
  176DOPC  H18Y21587   0.356   4.760  15.200 -0.3836  1.0119 -0.1782
  176DOPC  H18Z21588   0.490   4.865  15.221 -0.0857  2.0512 -1.5320
  177DOPC     N21589   0.544   1.935  12.395  0.3698 -0.0224  0.4135
  177DOPC   C1221590   0.467   2.000  12.511  0.0517 -0.2830 -0.1512
  177DOPC  H12A21591   0.428   1.917  12.569 -0.0580 -0.7830 -0.9300
  177DOPC  H12B21592   0.386   2.059  12.471  1.9754  0.6757 -2.9356
  177DOPC   C1321593   0.604   2.035  12.305 -0.2787 -0.7829 -0.1847
  177DOPC  H13A21594   0.692   1.998  12.254  0.7618  0.6138  0.5159
  177DOPC  H13B21595   0.536   2.058  12.224 -0.3379 -3.2006 -0.8896
  177DOPC  H13C21596   0.630   2.120  12.366 -1.3522 -1.0145  0.6161
  177DOPC   C1421597   0.458   1.839  12.322 -0.2790  0.7083 -0.9057
  177DOPC  H14A21598   0.419   1.759  12.383  0.7701  1.2171  0.4799
  177DOPC  H14B21599   0.368   1.890  12.290 -0.9134  1.8427  2.2962
  177DOPC  H14C21600   0.511   1.789  12.242 -0.0778 -2.0213  0.8137
  177DOPC   C1521601   0.649   1.850  12.459 -0.3297  0.4363 -0.0550
  177DOPC  H15A21602   0.714   1.805  12.385  1.6665 -0.6580  2.2205
  177DOPC  H15B21603   0.601   1.767  12.509  0.0824 -0.4464 -1.0631
  177DOPC  H15C21604   0.717   1.898  12.527  2.2369 -0.5740 -1.7200
  177DOPC   C1121605   0.550   2.089  12.605  0.2015  0.5678 -0.5044
  177DOPC  H11A21606   0.487   2.140  12.681 -0.8248  2.8810 -2.7612
  177DOPC  H11B21607   0.620   2.026  12.664 -0.7376  0.6143  0.6873
  177DOPC     P21608   0.574   2.338  12.542  0.6147 -0.1911  0.0311
  177DOPC   O1321609   0.433   2.340  12.492  0.0580 -0.6513 -0.0350
  177DOPC   O1421610   0.666   2.427  12.472  0.0064  0.8346  0.7105
  177DOPC   O1221611   0.629   2.187  12.531 -0.3521  0.0270  0.1554
  177DOPC   O1121612   0.580   2.357  12.694 -0.3436  0.3246 -0.1569
  177DOPC    C121613   0.691   2.389  12.771 -0.3225  0.0909 -0.5201
  177DOPC    HA21614   0.773   2.447  12.724  2.2268 -0.8933  2.4114
  177DOPC    HB21615   0.732   2.287  12.783 -1.6494 -0.4215 -0.1434
  177DOPC    C221616   0.649   2.445  12.908 -0.1758  0.1723  0.4591
  177DOPC    HS21617   0.744   2.445  12.966  0.1374  2.6173  0.0579
  177DOPC   O2121618   0.548   2.370  12.973  0.1813  0.1385  0.0578
  177DOPC   C2121619   0.563   2.243  12.993 -0.1389  0.1141  0.0066
  177DOPC   O2221620   0.670   2.185  12.969 -0.3578  0.5218  0.3221
  177DOPC   C2221621   0.438   2.188  13.056 -0.3251 -0.7459  0.1657
  177DOPC   H2R21622   0.446   2.079  13.077 -0.5284 -0.8192 -0.1392
  177DOPC   H2S21623   0.362   2.194  12.975  0.6786 -0.9891 -0.8239
  177DOPC    C321624   0.605   2.590  12.902 -0.0298 -0.1222 -0.1729
  177DOPC    HX21625   0.515   2.597  12.837  0.6313  0.2992 -1.0662
  177DOPC    HY21626   0.689   2.635  12.845  1.9421 -1.2342  1.7082
  177DOPC   O3121627   0.605   2.651  13.033  0.3370  0.1451  0.3237
  177DOPC   C3121628   0.484   2.665  13.085 -0.1535 -0.3760 -0.0693
  177DOPC   O3221629   0.377   2.626  13.042  0.4204  0.2771 -0.1108
  177DOPC   C3221630   0.499   2.744  13.214 -0.3196  0.0688 -0.3088
  177DOPC   H2X21631   0.596   2.719  13.262  1.1553  1.5063 -2.3541
  177DOPC   H2Y21632   0.503   2.853  13.194 -1.6481 -0.0057 -1.1139
  177DOPC   C2321633   0.399   2.259  13.187 -0.2638  0.5719  0.0095
  177DOPC   H3R21634   0.297   2.230  13.220  0.4178 -2.6980 -0.3829
  177DOPC   H3S21635   0.390   2.365  13.157  0.1879  0.0996 -1.9632
  177DOPC   C2421636   0.494   2.242  13.307 -0.8631 -0.2397 -0.4130
  177DOPC   H4R21637   0.588   2.277  13.260 -0.4353 -0.6327  0.1485
  177DOPC   H4S21638   0.517   2.135  13.322  2.4228  0.3522 -0.4832
  177DOPC   C2521639   0.463   2.326  13.431 -0.5366 -0.6443 -0.3439
  177DOPC   H5R21640   0.372   2.295  13.487 -0.2568  1.5893  1.5196
  177DOPC   H5S21641   0.446   2.429  13.393 -3.1594 -1.3458 -1.2373
  177DOPC   C2621642   0.586   2.308  13.529  0.1543 -0.0411 -0.3531
  177DOPC   H6R21643   0.592   2.398  13.594 -2.2205  0.6232 -0.9565
  177DOPC   H6S21644   0.674   2.299  13.462  0.0302 -0.7131 -0.4385
  177DOPC   C2721645   0.568   2.189  13.612  0.2460  0.5402 -0.0649
  177DOPC   H7R21646   0.543   2.100  13.550  0.5642 -0.0226  0.6024
  177DOPC   H7S21647   0.482   2.207  13.681 -0.6965  2.0417 -1.5539
  177DOPC   C2821648   0.700   2.144  13.685  0.1656  0.1499  0.0672
  177DOPC   H8R21649   0.751   2.232  13.730  4.6952 -2.1009 -0.0592
  177DOPC   H8S21650   0.765   2.102  13.605  1.3475  0.5181  0.8005
  177DOPC   C2921651   0.680   2.026  13.783 -0.1437 -0.3660 -0.7416
  177DOPC   H9R21652   0.638   1.944  13.724 -1.5667 -0.6591  0.5981
  177DOPC  C21021653   0.690   2.033  13.917 -0.5410  0.4283 -0.1111
  177DOPC  H10R21654   0.671   1.949  13.985 -0.1888  0.6148  0.2255
  177DOPC  C21121655   0.746   2.152  13.998  0.1151 -0.6405 -0.2146
  177DOPC  H11R21656   0.669   2.228  14.023 -0.2567 -1.3617  0.8653
  177DOPC  H11S21657   0.813   2.204  13.927  0.6174 -2.4160 -1.1136
  177DOPC  C21221658   0.831   2.097  14.123 -0.1857  0.3546  0.1425
  177DOPC  H12R21659   0.923   2.048  14.085  0.7779  1.1045  1.4213
  177DOPC  H12S21660   0.760   2.027  14.173  0.5912 -1.0274 -0.6074
  177DOPC  C21321661   0.874   2.214  14.213 -0.0208  0.1582  0.2619
  177DOPC  H13R21662   0.782   2.276  14.227 -0.8348 -1.2558  1.4496
  177DOPC  H13S21663   0.946   2.278  14.158  0.2660  0.0830  0.5475
  177DOPC  C21421664   0.937   2.187  14.354  0.3070  0.0631 -0.3420
  177DOPC  H14R21665   0.982   2.282  14.387 -2.7605  0.7486  2.3189
  177DOPC  H14S21666   1.012   2.108  14.330  0.3091 -0.0649  0.0854
  177DOPC  C21521667   0.838   2.121  14.454  0.0686  0.1299 -0.4621
  177DOPC  H15R21668   0.790   2.040  14.396 -2.2828  1.7955 -0.9590
  177DOPC  H15S21669   0.767   2.205  14.467  2.8242  2.7258 -0.9915
  177DOPC  C21621670   0.890   2.072  14.592  0.6425 -0.0727  0.0824
  177DOPC  H16R21671   0.809   2.046  14.664 -0.3263 -2.3706 -1.6778
  177DOPC  H16S21672   0.960   2.149  14.631  1.2847 -0.1302 -0.9228
  177DOPC  C21721673   0.967   1.940  14.575  0.6211 -0.2618  0.3201
  177DOPC  H17R21674   1.067   1.972  14.539  1.1684 -3.0118 -0.8264
  177DOPC  H17S21675   0.920   1.861  14.513  0.7003  0.0701 -0.1665
  177DOPC  C21821676   0.980   1.862  14.708  0.4304  0.1665 -0.3776
  177DOPC  H18R21677   1.027   1.925  14.786 -0.7824 -0.1325  0.6297
  177DOPC  H18S21678   1.036   1.767  14.691 -0.7643 -0.8933  1.2832
  177DOPC  H18T21679   0.879   1.843  14.752  1.0800  2.2423  2.2316
  177DOPC   C3321680   0.376   2.707  13.300 -0.0992  0.0252  0.7267
  177DOPC   H3X21681   0.378   2.600  13.329  2.0864 -0.7627 -1.8645
  177DOPC   H3Y21682   0.287   2.723  13.235  1.3360  0.7410 -1.1772
  177DOPC   C3421683   0.359   2.776  13.438 -0.2315  0.1146 -0.5628
  177DOPC   H4X21684   0.261   2.747  13.483  0.2742  1.2053  1.3427
  177DOPC   H4Y21685   0.361   2.885  13.416 -0.3011  0.6240  1.7333
  177DOPC   C3521686   0.467   2.732  13.543 -0.0037  0.6182  0.1882
  177DOPC   H5X21687   0.565   2.758  13.499  0.0073 -0.0765 -0.2040
  177DOPC   H5Y21688   0.456   2.622  13.552 -0.4443  0.7367  1.2500
  177DOPC   C3621689   0.455   2.807  13.677 -0.0034 -0.1345  0.3471
  177DOPC   H6X21690   0.470   2.915  13.658  0.2765 -0.5794 -2.4732
  177DOPC   H6Y21691   0.357   2.793  13.728  0.4426  1.7411  1.8414
  177DOPC   C3721692   0.559   2.766  13.775  0.1577  0.7593  0.1213
  177DOPC   H7X21693   0.569   2.657  13.792 -1.1532  0.8051  1.3587
  177DOPC   H7Y21694   0.663   2.799  13.750  0.7548  0.2652  1.8219
  177DOPC   C3821695   0.537   2.825  13.918  0.8457  0.0539  0.6283
  177DOPC   H8X21696   0.513   2.932  13.905  1.0275 -0.0637 -0.8601
  177DOPC   H8Y21697   0.637   2.814  13.966  0.2746 -0.6706  1.7169
  177DOPC   C3921698   0.430   2.757  14.003 -0.4196  0.2227  0.0675
  177DOPC   H9X21699   0.327   2.767  13.967  0.4816  0.8336 -2.6262
  177DOPC  C31021700   0.446   2.684  14.120  0.7534  0.0507 -0.7006
  177DOPC  H10X21701   0.351   2.653  14.166 -0.2653  0.5800 -2.3393
  177DOPC  C31121702   0.570   2.655  14.201  0.6740 -0.2337  0.3592
  177DOPC  H11X21703   0.656   2.707  14.154  0.2374 -0.6626 -0.9334
  177DOPC  H11Y21704   0.584   2.546  14.188 -2.5141 -0.7659  0.7186
  177DOPC  C31221705   0.559   2.681  14.350  0.2023 -0.1581 -0.3281
  177DOPC  H12X21706   0.643   2.634  14.406  1.0544  0.7481 -0.8150
  177DOPC  H12Y21707   0.465   2.632  14.385  1.1941 -1.4458  0.6237
  177DOPC  C31321708   0.554   2.830  14.396  0.0277  0.6457 -0.3531
  177DOPC  H13X21709   0.647   2.887  14.375 -0.6640  0.8500 -3.2197
  177DOPC  H13Y21710   0.469   2.861  14.332 -0.1655 -1.9506 -1.4575
  177DOPC  C31421711   0.522   2.840  14.545 -0.1697  0.1172 -0.4221
  177DOPC  H14X21712   0.528   2.945  14.581  1.1975  0.6544 -2.0721
  177DOPC  H14Y21713   0.416   2.809  14.558 -0.0509 -0.0351  0.2297
  177DOPC  C31521714   0.626   2.756  14.635  0.6986 -0.5080  0.3839
  177DOPC  H15X21715   0.726   2.793  14.602  0.0923 -0.8893 -2.1430
  177DOPC  H15Y21716   0.611   2.648  14.614  0.3328 -0.2736 -0.6537
  177DOPC  C31621717   0.619   2.784  14.790 -0.5630 -0.2373 -0.2829
  177DOPC  H16X21718   0.619   2.894  14.806  0.3821 -0.0191 -1.6415
  177DOPC  H16Y21719   0.526   2.732  14.821 -0.8392 -0.0947 -0.8597
  177DOPC  C31721720   0.740   2.722  14.852 -0.4797 -0.7417  0.3594
  177DOPC  H17X21721   0.823   2.774  14.798 -1.5649 -0.8575 -1.4896
  177DOPC  H17Y21722   0.740   2.743  14.961  0.3510  1.5674 -0.0163
  177DOPC  C31821723   0.754   2.572  14.829  0.5030  0.1893 -0.2115
  177DOPC  H18X21724   0.759   2.546  14.720 -2.5477  1.3509 -0.7170
  177DOPC  H18Y21725   0.847   2.534  14.877 -0.6292  0.5413  2.3864
  177DOPC  H18Z21726   0.663   2.517  14.860  0.7951 -0.8545 -1.1131
  178DOPC     N21727   4.633   3.537  12.402  0.4787 -0.1088  0.3287
  178DOPC   C1221728   4.679   3.665  12.460 -0.3901  0.5496 -0.5922
  178DOPC  H12A21729   4.599   3.728  12.495 -0.3107  0.6471 -0.5834
  178DOPC  H12B21730   4.724   3.727  12.383 -0.4666  1.2326 -0.1019
  178DOPC   C1321731   4.747   3.468  12.326  0.8896  0.0074 -0.3559
  178DOPC  H13A21732   4.701   3.373  12.301 -1.0919  0.6220  0.7322
  178DOPC  H13B21733   4.776   3.525  12.239  2.4750 -0.3237 -0.0582
  178DOPC  H13C21734   4.833   3.452  12.389  0.6196 -0.5960 -0.1380
  178DOPC   C1421735   4.523   3.567  12.303 -0.4488 -0.7250  0.0577
  178DOPC  H14A21736   4.431   3.604  12.347  0.0998  1.6878 -0.6536
  178DOPC  H14B21737   4.558   3.646  12.237 -1.8416  0.9560  1.2218
  178DOPC  H14C21738   4.497   3.479  12.246 -1.0052 -1.2029  1.0316
  178DOPC   C1521739   4.584   3.442  12.505 -1.1957 -0.8737  0.6130
  178DOPC  H15A21740   4.520   3.367  12.461 -0.3544 -1.0272 -0.3840
  178DOPC  H15B21741   4.517   3.495  12.570 -0.4063  0.6757  0.2110
  178DOPC  H15C21742   4.665   3.404  12.565 -1.1633 -2.2311 -0.2432
  178DOPC   C1121743   4.793   3.660  12.574 -0.4622  0.3766  0.4885
  178DOPC  H11A21744   4.793   3.758  12.626  0.1580 -0.5537  2.3303
  178DOPC  H11B21745   4.760   3.583  12.647  1.8919 -1.7776 -0.5660
  178DOPC     P21746   5.004   3.731  12.447  0.0872 -0.0592 -0.0046
  178DOPC   O1321747   4.920   3.826  12.366  0.0404  0.0316 -0.1106
  178DOPC   O1421748   5.113   3.664  12.375  0.1448  0.0033 -0.0792
  178DOPC   O1221749   4.920   3.615  12.517 -0.2278  0.2599  0.3687
  178DOPC   O1121750   5.068   3.801  12.581  0.6441  0.5360  0.2712
  178DOPC    C121751   5.157   3.741  12.666  0.7014  0.1389  0.7282
  178DOPC    HA21752   5.258   3.782  12.645 -0.7142  2.6385 -2.0554
  178DOPC    HB21753   5.157   3.630  12.654 -1.6858  0.0389  1.0320
  178DOPC    C221754   5.125   3.762  12.812 -0.2063  0.5790 -0.1130
  178DOPC    HS21755   5.213   3.722  12.867 -0.4009  2.7546  1.9852
  178DOPC   O2121756   4.995   3.708  12.849  0.1850  0.2738 -0.0313
  178DOPC   C2121757   4.990   3.650  12.969 -1.1394 -0.2171  0.0774
  178DOPC   O2221758   5.081   3.649  13.049 -0.0220  0.0777 -0.0208
  178DOPC   C2221759   4.857   3.602  12.994 -0.5561  0.1124 -0.2518
  178DOPC   H2R21760   4.797   3.623  12.903 -1.5195  1.0141  0.5551
  178DOPC   H2S21761   4.815   3.644  13.089 -2.3413  0.8643 -1.3187
  178DOPC    C321762   5.135   3.905  12.855  0.2557 -0.4630  0.6456
  178DOPC    HX21763   5.051   3.958  12.805  0.7739  0.2450  0.5005
  178DOPC    HY21764   5.228   3.954  12.817  0.1452  0.1371  1.1170
  178DOPC   O3121765   5.126   3.925  12.998 -0.1116 -0.5519 -0.2089
  178DOPC   C3121766   5.231   3.915  13.070 -0.3244 -0.0698 -0.0657
  178DOPC   O3221767   5.349   3.900  13.032  0.1305  0.1464 -0.1535
  178DOPC   C3221768   5.199   3.936  13.212 -0.1775  0.7273 -0.2523
  178DOPC   H2X21769   5.155   4.037  13.228 -3.6308 -0.9787  2.6341
  178DOPC   H2Y21770   5.116   3.865  13.231  1.0880 -0.4893  0.9789
  178DOPC   C2321771   4.860   3.453  13.027  0.0468  0.0013 -0.2443
  178DOPC   H3R21772   4.908   3.390  12.949 -2.6323  0.2239 -2.2372
  178DOPC   H3S21773   4.755   3.418  13.017  0.8191 -2.1720 -1.3895
  178DOPC   C2421774   4.924   3.418  13.163  0.1568  0.2301 -0.0933
  178DOPC   H4R21775   4.894   3.487  13.244 -0.2382 -0.8373  0.6919
  178DOPC   H4S21776   5.033   3.437  13.151  0.0300  2.0340  1.1870
  178DOPC   C2521777   4.912   3.276  13.211 -0.3248 -0.2269 -0.3350
  178DOPC   H5R21778   5.011   3.239  13.246 -0.3561  0.3070  0.3408
  178DOPC   H5S21779   4.876   3.222  13.121 -0.2615  0.9054 -1.0454
  178DOPC   C2621780   4.816   3.262  13.329  0.6945 -0.2802 -0.1622
  178DOPC   H6R21781   4.775   3.159  13.334  1.6601 -0.7447 -1.3210
  178DOPC   H6S21782   4.739   3.342  13.325 -0.8945 -1.6673  1.2511
  178DOPC   C2721783   4.877   3.285  13.473  0.5267 -0.4991  0.3923
  178DOPC   H7R21784   4.914   3.389  13.487 -0.9380  0.3897 -1.7935
  178DOPC   H7S21785   4.964   3.217  13.482 -0.3458 -1.8012 -0.5648
  178DOPC   C2821786   4.777   3.266  13.591  0.0727 -0.2545  0.2483
  178DOPC   H8R21787   4.743   3.160  13.584  1.6154 -0.7304 -0.7784
  178DOPC   H8S21788   4.698   3.343  13.581 -0.1175 -0.4001  0.6190
  178DOPC   C2921789   4.853   3.290  13.720  0.2879 -0.0434  0.4024
  178DOPC   H9R21790   4.963   3.297  13.726  0.1914  0.9360  1.4411
  178DOPC  C21021791   4.791   3.293  13.835 -0.3599 -0.8739 -0.4039
  178DOPC  H10R21792   4.854   3.301  13.925  0.5982 -2.4812 -0.8986
  178DOPC  C21121793   4.642   3.281  13.857  0.6314  0.3612 -0.0497
  178DOPC  H11R21794   4.590   3.273  13.759  1.9590 -1.3790 -0.6611
  178DOPC  H11S21795   4.611   3.377  13.904  1.1032  0.8691 -0.7489
  178DOPC  C21221796   4.612   3.162  13.947  0.5340 -0.3616 -0.0158
  178DOPC  H12R21797   4.646   3.064  13.910  2.0429  0.6767 -1.5273
  178DOPC  H12S21798   4.502   3.170  13.959  0.6931  2.0577  0.5254
  178DOPC  C21321799   4.671   3.181  14.092 -0.3739  0.4209  0.1908
  178DOPC  H13R21800   4.666   3.287  14.121  0.3988  0.1451  1.3979
  178DOPC  H13S21801   4.781   3.164  14.096 -0.3695  0.6443  1.1215
  178DOPC  C21421802   4.609   3.098  14.204  0.0350  0.3157 -0.0341
  178DOPC  H14R21803   4.621   2.989  14.181 -1.1268  0.1925 -0.0904
  178DOPC  H14S21804   4.500   3.111  14.191 -0.0479 -1.0919 -1.0399
  178DOPC  C21521805   4.662   3.145  14.342 -0.2959  0.8519  0.0271
  178DOPC  H15R21806   4.653   3.256  14.351  1.3689  0.9454  1.1204
  178DOPC  H15S21807   4.771   3.125  14.348 -0.7221 -2.5045 -1.4399
  178DOPC  C21621808   4.599   3.081  14.467  0.5327 -0.9411  0.4818
  178DOPC  H16R21809   4.647   2.981  14.471  0.5101 -1.0073 -0.7315
  178DOPC  H16S21810   4.494   3.059  14.439  0.9277 -1.4929 -0.6021
  178DOPC  C21721811   4.609   3.169  14.591 -0.0373  0.0622 -0.7020
  178DOPC  H17R21812   4.542   3.255  14.570 -1.6735 -0.2534  2.6291
  178DOPC  H17S21813   4.712   3.198  14.620  0.4794 -3.3431  1.5242
  178DOPC  C21821814   4.546   3.103  14.714 -0.3423  0.3313  0.6210
  178DOPC  H18R21815   4.549   3.173  14.801  0.4140  1.3594 -0.2038
  178DOPC  H18S21816   4.608   3.012  14.727  1.8619  1.6685  0.0794
  178DOPC  H18T21817   4.443   3.079  14.683  0.4974 -1.1877 -1.1490
  178DOPC   C3321818   5.318   3.909  13.307  0.0461  0.0287  0.3930
  178DOPC   H3X21819   5.290   3.946  13.408 -3.3355  0.1732 -0.4893
  178DOPC   H3Y21820   5.398   3.983  13.284  1.1086 -0.9179  0.9482
  178DOPC   C3421821   5.381   3.773  13.316  0.6490  0.1419  0.4359
  178DOPC   H4X21822   5.463   3.784  13.390  0.5528  3.0404  0.2336
  178DOPC   H4Y21823   5.430   3.753  13.219  0.4919 -0.6944  0.5184
  178DOPC   C3521824   5.287   3.660  13.348  0.4053  0.0778  0.1074
  178DOPC   H5X21825   5.332   3.560  13.327 -1.4179 -1.0001  1.1173
  178DOPC   H5Y21826   5.198   3.659  13.281  0.0175 -2.7913  0.5135
  178DOPC   C3621827   5.249   3.654  13.497 -0.1155  0.7494  0.1332
  178DOPC   H6X21828   5.328   3.684  13.570 -2.0038 -0.3078  2.7566
  178DOPC   H6Y21829   5.162   3.723  13.508 -0.1200  0.9096 -0.8102
  178DOPC   C3721830   5.210   3.508  13.545  0.2032  0.4681  0.0645
  178DOPC   H7X21831   5.126   3.515  13.618 -0.1962 -1.9233 -0.0681
  178DOPC   H7Y21832   5.177   3.447  13.458 -0.1255  2.0176 -0.9419
  178DOPC   C3821833   5.319   3.437  13.633 -0.2005  0.3219  0.1370
  178DOPC   H8X21834   5.348   3.508  13.713 -1.1799 -1.8026  2.5032
  178DOPC   H8Y21835   5.409   3.429  13.569 -0.1529  1.2503  0.0666
  178DOPC   C3921836   5.291   3.303  13.688 -0.1428  0.2036 -0.0446
  178DOPC   H9X21837   5.314   3.217  13.623 -2.7054 -0.2567 -0.4387
  178DOPC  C31021838   5.229   3.281  13.806 -0.0900  0.3197 -0.0683
  178DOPC  H10X21839   5.213   3.175  13.831 -0.4487  0.5341  0.6360
  178DOPC  C31121840   5.186   3.380  13.906 -0.3440 -0.1052 -0.4057
  178DOPC  H11X21841   5.096   3.431  13.864 -0.5463 -0.0218  0.1203
  178DOPC  H11Y21842   5.275   3.446  13.918  0.3777 -1.2998  1.1536
  178DOPC  C31221843   5.168   3.303  14.038  0.3101  0.4654 -0.3174
  178DOPC  H12X21844   5.262   3.262  14.081  0.0542  1.0329  0.8245
  178DOPC  H12Y21845   5.095   3.220  14.027  1.9777 -1.2481  0.9912
  178DOPC  C31321846   5.095   3.386  14.152 -0.1104  0.5662  0.1555
  178DOPC  H13X21847   5.148   3.481  14.174  0.4714 -0.1641  2.1658
  178DOPC  H13Y21848   4.989   3.410  14.127 -0.1568  1.8239  1.4745
  178DOPC  C31421849   5.085   3.296  14.277 -0.3245  0.0803  0.1336
  178DOPC  H14X21850   5.016   3.213  14.250  0.4555 -1.1634  1.7898
  178DOPC  H14Y21851   5.186   3.253  14.296 -1.0600 -1.4304  0.8743
  178DOPC  C31521852   5.049   3.376  14.403 -0.3761 -0.5259 -0.5493
  178DOPC  H15X21853   4.945   3.411  14.418 -0.0394  0.2734 -0.0305
  178DOPC  H15Y21854   5.113   3.466  14.416  0.9782 -1.4016 -0.9324
  178DOPC  C31621855   5.078   3.278  14.516 -0.2961  0.5955  0.6960
  178DOPC  H16X21856   5.018   3.185  14.517  1.3832 -0.5949 -1.2070
  178DOPC  H16Y21857   5.184   3.245  14.520 -0.4250 -0.1559 -1.0202
  178DOPC  C31721858   5.041   3.348  14.651 -0.1223  0.1129  0.5802
  178DOPC  H17X21859   5.133   3.405  14.678  1.0252 -0.7989 -1.2074
  178DOPC  H17Y21860   4.952   3.411  14.633  0.3698  0.4371 -0.8397
  178DOPC  C31821861   5.021   3.250  14.764  0.1074  0.1387  0.4399
  178DOPC  H18X21862   5.110   3.184  14.754 -1.2510 -1.5152 -1.6674
  178DOPC  H18Y21863   5.026   3.293  14.866  0.1548 -0.8426  0.8642
  178DOPC  H18Z21864   4.927   3.192  14.749 -0.1216  0.3992  0.8732
  179DOPC     N21865   2.671   1.904  12.123  0.5099 -0.1573  0.1785
  179DOPC   C1221866   2.665   1.761  12.151 -0.8033 -0.2717  0.8823
  179DOPC  H12A21867   2.766   1.722  12.154 -0.5455  0.1544 -0.8113
  179DOPC  H12B21868   2.611   1.711  12.071  0.3159 -0.8722  0.4769
  179DOPC   C1321869   2.545   1.977  12.156  0.0071 -0.1793  0.3036
  179DOPC  H13A21870   2.537   1.981  12.264 -1.8618  1.6310  0.1751
  179DOPC  H13B21871   2.561   2.079  12.125  0.3873 -0.2019  0.4259
  179DOPC  H13C21872   2.464   1.920  12.114  0.0937  0.4286 -0.7292
  179DOPC   C1421873   2.710   1.925  11.981  0.0482  0.0702 -0.1152
  179DOPC  H14A21874   2.694   2.027  11.950  1.3639  0.2030 -0.4319
  179DOPC  H14B21875   2.815   1.901  11.970  0.5871  2.6437 -1.2840
  179DOPC  H14C21876   2.650   1.861  11.918  4.2324 -2.4202 -2.0029
  179DOPC   C1521877   2.782   1.963  12.205  0.0180  0.5372 -0.4298
  179DOPC  H15A21878   2.750   1.979  12.307 -0.4624 -1.6941 -0.1685
  179DOPC  H15B21879   2.813   2.058  12.165  1.9718  0.9143  1.7500
  179DOPC  H15C21880   2.872   1.903  12.209 -1.5734 -1.9329  0.5117
  179DOPC   C1121881   2.610   1.721  12.280 -0.0765  0.4593 -0.1313
  179DOPC  H11A21882   2.636   1.613  12.286 -0.7241  0.3214  4.8901
  179DOPC  H11B21883   2.660   1.772  12.365  0.1313 -0.7353  0.4889
  179DOPC     P21884   2.398   1.733  12.420 -0.0241 -0.3640  0.3008
  179DOPC   O1321885   2.362   1.593  12.445  0.1681  0.2705 -0.0746
  179DOPC   O1421886   2.280   1.823  12.412 -0.1444 -0.7537  0.4566
  179DOPC   O1221887   2.470   1.740  12.280 -0.5679  0.1395 -0.3925
  179DOPC   O1121888   2.504   1.776  12.528  0.5873  0.1296  0.0884
  179DOPC    C121889   2.481   1.743  12.664  0.0149  0.1025 -0.0559
  179DOPC    HA21890   2.374   1.756  12.690 -0.0630  0.0741 -0.3636
  179DOPC    HB21891   2.530   1.822  12.726 -0.7486 -0.6615  1.5801
  179DOPC    C221892   2.550   1.607  12.704 -0.2841  0.3302  1.1425
  179DOPC    HS21893   2.497   1.530  12.645 -0.9704  1.9378 -0.4338
  179DOPC   O2121894   2.515   1.589  12.842 -0.2079  0.0056  0.2700
  179DOPC   C2121895   2.557   1.470  12.889  0.7555  0.4310 -0.7109
  179DOPC   O2221896   2.601   1.382  12.817  0.4312  0.0837 -0.3720
  179DOPC   C2221897   2.560   1.468  13.038 -0.1899  0.8919 -0.6597
  179DOPC   H2R21898   2.650   1.518  13.077 -0.4876  1.1550 -0.3044
  179DOPC   H2S21899   2.569   1.359  13.059 -0.7151  1.0665  0.5170
  179DOPC    C321900   2.698   1.613  12.678  0.0597  0.0382  0.1071
  179DOPC    HX21901   2.710   1.633  12.569  0.3527 -1.2173 -0.1067
  179DOPC    HY21902   2.747   1.516  12.700 -0.6077  0.0158  1.5771
  179DOPC   O3121903   2.757   1.718  12.761  0.2058 -0.2717 -0.0498
  179DOPC   C3121904   2.876   1.762  12.729 -0.3933  0.7991 -0.4545
  179DOPC   O3221905   2.942   1.719  12.633  0.1922  0.0971 -0.1586
  179DOPC   C3221906   2.924   1.871  12.834  0.1224  0.0408  0.6816
  179DOPC   H2X21907   3.031   1.873  12.805 -0.7290 -0.4789 -2.9512
  179DOPC   H2Y21908   2.883   1.970  12.807  0.0386  0.0803  0.9471
  179DOPC   C2321909   2.434   1.523  13.103 -0.4214 -0.7550 -0.0932
  179DOPC   H3R21910   2.343   1.483  13.054 -2.9297  1.2954  2.5736
  179DOPC   H3S21911   2.432   1.634  13.093 -0.7534 -0.8685 -1.4198
  179DOPC   C2421912   2.430   1.503  13.250 -0.4286  0.6071 -0.6143
  179DOPC   H4R21913   2.495   1.570  13.310 -1.5297  1.9802 -0.8994
  179DOPC   H4S21914   2.456   1.397  13.271  0.0274  0.6492 -0.9372
  179DOPC   C2521915   2.297   1.537  13.295  0.0035  0.1798 -0.1937
  179DOPC   H5R21916   2.229   1.499  13.216  1.5235 -1.2316 -0.8935
  179DOPC   H5S21917   2.289   1.648  13.294  1.4873  0.3162 -1.5464
  179DOPC   C2621918   2.256   1.483  13.430  0.0180  0.6547 -0.1633
  179DOPC   H6R21919   2.237   1.374  13.435 -0.8552  0.8553  2.5406
  179DOPC   H6S21920   2.155   1.527  13.445 -0.3704 -0.2294 -0.1506
  179DOPC   C2721921   2.344   1.541  13.533  1.1247 -0.8683 -0.9759
  179DOPC   H7R21922   2.363   1.649  13.518 -0.2230 -0.4764 -0.0598
  179DOPC   H7S21923   2.448   1.503  13.526  1.5340  0.0224  0.1058
  179DOPC   C2821924   2.306   1.528  13.678  0.4377  0.4993 -0.4576
  179DOPC   H8R21925   2.202   1.567  13.686  0.9627  1.7492  0.7289
  179DOPC   H8S21926   2.373   1.597  13.734  0.7193  0.0741 -0.2628
  179DOPC   C2921927   2.311   1.389  13.733  0.0859 -0.0324  0.6235
  179DOPC   H9R21928   2.355   1.311  13.670 -0.2128  0.6205 -0.4124
  179DOPC  C21021929   2.265   1.350  13.851  0.8552  0.1446  0.2500
  179DOPC  H10R21930   2.288   1.246  13.877  3.3046  0.4010 -0.6753
  179DOPC  C21121931   2.199   1.426  13.966 -0.2443 -0.0829 -0.0917
  179DOPC  H11R21932   2.090   1.409  13.972 -0.1927 -0.2658  0.4378
  179DOPC  H11S21933   2.209   1.537  13.956  2.8439 -0.2479  0.2313
  179DOPC  C21221934   2.239   1.378  14.108 -0.0053  0.7447 -0.5251
  179DOPC  H12R21935   2.348   1.399  14.115  0.2423 -0.8645  0.9190
  179DOPC  H12S21936   2.243   1.268  14.119 -0.7864  0.6240 -1.2705
  179DOPC  C21321937   2.166   1.439  14.225 -0.1715  0.0170 -0.1254
  179DOPC  H13R21938   2.068   1.388  14.238  0.0183 -0.0621  1.1648
  179DOPC  H13S21939   2.147   1.545  14.199  1.4494 -0.1431 -2.1409
  179DOPC  C21421940   2.239   1.431  14.362  0.3827 -0.7096  0.3155
  179DOPC  H14R21941   2.307   1.519  14.364 -0.7072  0.4145 -3.7154
  179DOPC  H14S21942   2.286   1.330  14.366  2.5784  0.2917  0.9946
  179DOPC  C21521943   2.145   1.446  14.482 -0.7301  0.5294  0.5151
  179DOPC  H15R21944   2.083   1.356  14.462  0.9130 -0.1778 -1.9639
  179DOPC  H15S21945   2.082   1.537  14.476 -2.0220 -0.4252 -3.6253
  179DOPC  C21621946   2.231   1.444  14.604 -0.9532  0.1266 -0.6809
  179DOPC  H16R21947   2.303   1.528  14.592  2.1767 -1.9096  2.0313
  179DOPC  H16S21948   2.293   1.352  14.614  1.9227  1.8311 -1.3810
  179DOPC  C21721949   2.165   1.472  14.739  0.9154  0.1182  0.1559
  179DOPC  H17R21950   2.118   1.572  14.749 -0.8452 -0.8649  3.3304
  179DOPC  H17S21951   2.242   1.470  14.818  0.1254 -2.2433  0.9774
  179DOPC  C21821952   2.058   1.369  14.789 -0.2642  0.7421  0.0533
  179DOPC  H18R21953   1.975   1.353  14.717  0.2353 -1.6065 -0.0926
  179DOPC  H18S21954   2.022   1.404  14.888 -0.6396 -1.3334  0.7187
  179DOPC  H18T21955   2.104   1.268  14.799 -1.4114  0.0125 -1.6484
  179DOPC   C3321956   2.902   1.825  12.985  0.1547  0.9466  0.0691
  179DOPC   H3X21957   2.793   1.835  13.004  0.0195 -1.1172  0.6205
  179DOPC   H3Y21958   2.958   1.901  13.044  0.9956  0.0151  0.5020
  179DOPC   C3421959   2.952   1.688  13.013 -0.9144  0.1645 -0.2474
  179DOPC   H4X21960   3.036   1.672  12.942 -0.5319  3.2681 -0.6441
  179DOPC   H4Y21961   2.873   1.614  12.989 -0.3611 -0.6195  0.2873
  179DOPC   C3521962   2.999   1.662  13.161 -0.4505 -0.2620  0.2369
  179DOPC   H5X21963   3.100   1.707  13.166 -1.3229  1.6944  1.5943
  179DOPC   H5Y21964   3.020   1.555  13.184 -0.4413  0.0742  1.9098
  179DOPC   C3621965   2.905   1.718  13.270  0.0228  0.8882  0.0043
  179DOPC   H6X21966   2.890   1.825  13.245 -0.2085  0.6567 -0.9079
  179DOPC   H6Y21967   2.807   1.667  13.271 -0.1283  1.0381 -2.0068
  179DOPC   C3721968   2.965   1.711  13.421 -0.4028  0.0292 -1.1033
  179DOPC   H7X21969   2.970   1.602  13.443  0.7386  0.3572  0.3990
  179DOPC   H7Y21970   3.067   1.753  13.418 -1.3171  2.3846 -1.2560
  179DOPC   C3821971   2.885   1.790  13.530 -0.4909 -0.2076  0.6342
  179DOPC   H8X21972   2.885   1.900  13.511  1.3889 -0.1749  0.6415
  179DOPC   H8Y21973   2.944   1.767  13.621  0.7705  1.9992  0.4559
  179DOPC   C3921974   2.742   1.742  13.532  0.3834 -0.8023  0.3847
  179DOPC   H9X21975   2.696   1.707  13.438 -1.4273 -0.8524  1.2436
  179DOPC  C31021976   2.661   1.725  13.641 -0.3509  0.0669  0.0026
  179DOPC  H10X21977   2.555   1.698  13.639 -0.1788 -1.1827  2.8199
  179DOPC  C31121978   2.709   1.744  13.782  0.4541  0.4412 -0.0473
  179DOPC  H11X21979   2.764   1.839  13.801 -1.5413  1.5905  0.2736
  179DOPC  H11Y21980   2.784   1.663  13.797  0.5124  0.0481 -2.2133
  179DOPC  C31221981   2.603   1.735  13.887  0.1913  0.0960 -0.6548
  179DOPC  H12X21982   2.543   1.642  13.891  2.0208 -1.3192  5.2170
  179DOPC  H12Y21983   2.534   1.821  13.877  2.8563  2.3900 -0.4533
  179DOPC  C31321984   2.656   1.745  14.030  0.1067 -0.1224  0.0454
  179DOPC  H13X21985   2.716   1.655  14.052  2.5442  1.4131  0.0874
  179DOPC  H13Y21986   2.728   1.830  14.037  2.0558 -1.7924  1.0210
  179DOPC  C31421987   2.550   1.747  14.140 -0.2019 -0.7133 -0.0065
  179DOPC  H14X21988   2.463   1.813  14.126 -1.0013 -1.0916  2.5873
  179DOPC  H14Y21989   2.509   1.645  14.154 -0.8876 -0.2333  1.7098
  179DOPC  C31521990   2.616   1.787  14.273 -0.1964 -0.5315 -0.7342
  179DOPC  H15X21991   2.636   1.896  14.277 -0.1525 -0.5278 -0.9920
  179DOPC  H15Y21992   2.712   1.731  14.279  0.3972  0.5597  0.3038
  179DOPC  C31621993   2.520   1.761  14.393 -0.2100 -0.3189  0.8101
  179DOPC  H16X21994   2.431   1.827  14.387 -1.6707 -2.2654 -0.0329
  179DOPC  H16Y21995   2.469   1.662  14.395 -0.7549 -0.0424  0.7366
  179DOPC  C31721996   2.589   1.782  14.529  0.7193  0.1341  0.8311
  179DOPC  H17X21997   2.662   1.701  14.549  1.3482  0.3010 -0.6908
  179DOPC  H17Y21998   2.639   1.881  14.526  0.5361  0.2015 -0.0968
  179DOPC  C31821999   2.483   1.786  14.644 -0.5481 -0.2179 -0.1510
  179DOPC  H18X22000   2.399   1.713  14.636 -0.4534 -0.3501  0.0500
  179DOPC  H18Y22001   2.532   1.766  14.741 -0.0901  0.7312 -0.1713
  179DOPC  H18Z22002   2.436   1.884  14.665  2.6608  1.2144  0.8835
  180DOPC     N22003   1.968   6.634  12.832  0.0123 -0.3020  0.1857
  180DOPC   C1222004   1.876   6.616  12.949 -0.8345  0.0990  0.0490
  180DOPC  H12A22005   1.814   6.532  12.920  2.1001 -1.4850 -2.1938
  180DOPC  H12B22006   1.809   6.698  12.967  1.2610  1.7032  1.0235
  180DOPC   C1322007   2.040   6.506  12.808 -0.0141  0.1252  0.7280
  180DOPC  H13A22008   2.084   6.511  12.709  0.3400  1.8956  0.9370
  180DOPC  H13B22009   2.119   6.491  12.880  2.0689 -1.8841 -1.7501
  180DOPC  H13C22010   1.964   6.430  12.809 -0.4176  0.4930 -0.5252
  180DOPC   C1422011   2.068   6.739  12.838 -0.2853 -0.2184 -0.4628
  180DOPC  H14A22012   2.145   6.708  12.907 -1.2189 -1.6616  0.0004
  180DOPC  H14B22013   2.109   6.747  12.739 -0.0509  0.2818 -0.3253
  180DOPC  H14C22014   2.015   6.829  12.866  1.0690  0.3814  0.2670
  180DOPC   C1522015   1.889   6.667  12.708  0.4738  0.2134 -0.1749
  180DOPC  H15A22016   1.949   6.676  12.618  1.1541 -0.2895  0.2249
  180DOPC  H15B22017   1.843   6.764  12.724 -1.2934 -0.2600 -1.9222
  180DOPC  H15C22018   1.805   6.601  12.691  0.1913  0.4525  0.2722
  180DOPC   C1122019   1.946   6.581  13.085  0.3381  0.4617 -0.1934
  180DOPC  H11A22020   2.018   6.662  13.108  0.9415 -0.7063  2.2484
  180DOPC  H11B22021   1.866   6.584  13.162 -0.0551 -1.0271 -0.5152
  180DOPC     P22022   1.930   6.314  13.131  0.1650 -0.1935 -0.2604
  180DOPC   O1322023   2.025   6.198  13.118 -0.3759 -0.3247  0.0304
  180DOPC   O1422024   1.803   6.302  13.048  0.0981  0.4182 -0.1175
  180DOPC   O1222025   2.005   6.449  13.084 -0.5477  0.3958 -0.1362
  180DOPC   O1122026   1.896   6.340  13.284 -0.0424  0.3039  0.0913
  180DOPC    C122027   2.006   6.372  13.371 -0.4640 -0.1584 -0.3611
  180DOPC    HA22028   2.046   6.475  13.354  1.3758 -0.6144  0.8968
  180DOPC    HB22029   2.094   6.307  13.354  1.3709  2.5688 -2.2328
  180DOPC    C222030   1.957   6.374  13.516  0.8075 -0.1846 -0.0901
  180DOPC    HS22031   2.048   6.397  13.576  0.1285 -1.5414  1.5497
  180DOPC   O2122032   1.914   6.241  13.545 -0.0437  0.1713 -0.0763
  180DOPC   C2122033   1.881   6.205  13.669  0.1154  0.2007  0.2651
  180DOPC   O2222034   1.901   6.275  13.769  0.1267 -0.4364 -0.5352
  180DOPC   C2222035   1.815   6.066  13.662 -0.3559  0.0124  0.6756
  180DOPC   H2R22036   1.826   6.022  13.561  0.8198  0.5464  0.5522
  180DOPC   H2S22037   1.708   6.067  13.691 -0.2004 -0.0375  1.2835
  180DOPC    C322038   1.853   6.489  13.541 -1.0551  0.2401 -0.2366
  180DOPC    HX22039   1.772   6.449  13.606  0.6130 -0.9793  1.1940
  180DOPC    HY22040   1.815   6.506  13.438 -1.3827  0.3995 -0.0913
  180DOPC   O3122041   1.923   6.603  13.592 -0.0926 -0.2795 -0.4778
  180DOPC   C3122042   1.846   6.682  13.669  0.3119  0.0650 -0.8083
  180DOPC   O3222043   1.727   6.675  13.691 -0.0255  0.1059  0.4066
  180DOPC   C3222044   1.935   6.798  13.721  0.0037  0.7565  0.3552
  180DOPC   H2X22045   2.014   6.767  13.792  0.0088  0.6960  0.3234
  180DOPC   H2Y22046   1.985   6.822  13.625  0.1628  4.0678  1.1322
  180DOPC   C2322047   1.896   5.969  13.748 -1.1325  0.4141 -0.2363
  180DOPC   H3R22048   2.006   5.969  13.734 -1.0977  1.7486 -0.0477
  180DOPC   H3S22049   1.871   5.870  13.703  0.8324  0.6392 -1.9599
  180DOPC   C2422050   1.843   5.972  13.893 -0.0510  0.6722  0.2255
  180DOPC   H4R22051   1.738   6.008  13.891 -0.3710 -0.2640 -1.0784
  180DOPC   H4S22052   1.901   6.053  13.943 -1.3738  0.5611  2.0046
  180DOPC   C2522053   1.860   5.837  13.964  0.5486  0.0549  0.2980
  180DOPC   H5R22054   1.961   5.802  13.935  1.0537  1.5452  0.1570
  180DOPC   H5S22055   1.782   5.771  13.919  0.4084  0.6782 -0.3953
  180DOPC   C2622056   1.853   5.838  14.115 -0.2785 -0.0315  1.3291
  180DOPC   H6R22057   1.830   5.735  14.150  1.3325 -0.7073  0.4834
  180DOPC   H6S22058   1.763   5.893  14.149 -1.4635 -1.1934  0.2318
  180DOPC   C2722059   1.987   5.876  14.176 -0.4404  0.1860 -0.1124
  180DOPC   H7R22060   2.003   5.985  14.164 -1.9428  0.4435  0.0475
  180DOPC   H7S22061   2.061   5.826  14.110  0.9929  0.5329  1.1793
  180DOPC   C2822062   2.001   5.828  14.320  0.3357  0.0484 -0.3146
  180DOPC   H8R22063   2.094   5.883  14.344 -0.9782  2.0029  0.5577
  180DOPC   H8S22064   2.029   5.720  14.321 -0.4082 -0.1536  0.0279
  180DOPC   C2922065   1.892   5.881  14.413  0.2580 -0.1829 -0.0342
  180DOPC   H9R22066   1.890   5.990  14.401 -0.6525 -0.2375 -0.4044
  180DOPC  C21022067   1.789   5.815  14.481 -0.2362  0.0832  0.7460
  180DOPC  H10R22068   1.711   5.874  14.531  0.2072  0.1863  1.3238
  180DOPC  C21122069   1.783   5.665  14.521  0.3304 -0.1425  0.3957
  180DOPC  H11R22070   1.885   5.627  14.544  0.3381  0.7777  2.0400
  180DOPC  H11S22071   1.745   5.601  14.438  1.7487  0.7424 -0.9725
  180DOPC  C21222072   1.698   5.647  14.645  0.2419 -0.7530 -0.1922
  180DOPC  H12R22073   1.698   5.536  14.660 -0.1462 -1.3380 -3.6592
  180DOPC  H12S22074   1.594   5.683  14.644  1.2123  2.3103  0.0567
  180DOPC  C21322075   1.754   5.720  14.771  0.3419 -0.1894 -0.3062
  180DOPC  H13R22076   1.754   5.829  14.752 -1.8069 -0.2353 -0.8271
  180DOPC  H13S22077   1.855   5.679  14.794 -0.2030 -1.5748 -0.2768
  180DOPC  C21422078   1.667   5.706  14.892 -0.3301 -0.2033 -0.0088
  180DOPC  H14R22079   1.686   5.611  14.947 -1.3987  0.1765  1.0723
  180DOPC  H14S22080   1.556   5.705  14.884 -0.3679  1.9068 -0.2394
  180DOPC  C21522081   1.714   5.813  14.988 -0.3582 -0.2549 -0.1220
  180DOPC  H15R22082   1.700   5.907  14.931 -1.9193 -0.9498 -0.9391
  180DOPC  H15S22083   1.822   5.808  15.017 -1.2289  0.4031  3.7975
  180DOPC  C21622084   1.627   5.816  15.116  0.0821 -0.4980  0.5236
  180DOPC  H16R22085   1.522   5.818  15.079  0.4154 -0.6341 -0.4417
  180DOPC  H16S22086   1.647   5.911  15.171 -1.0553 -0.9389  1.7780
  180DOPC  C21722087   1.642   5.698  15.219  0.0231  0.2919 -0.2698
  180DOPC  H17R22088   1.752   5.692  15.235 -0.0547 -0.1568  0.1126
  180DOPC  H17S22089   1.599   5.607  15.174 -2.2840  1.6978 -1.0588
  180DOPC  C21822090   1.568   5.721  15.353  0.5337 -0.9618 -0.7419
  180DOPC  H18R22091   1.556   5.627  15.411 -0.5543 -0.6703 -0.4612
  180DOPC  H18S22092   1.462   5.744  15.326  0.1371  0.1736  1.5476
  180DOPC  H18T22093   1.612   5.801  15.416 -0.5331 -0.9950  0.0769
  180DOPC   C3322094   1.860   6.918  13.764  0.2455  0.4096 -0.5481
  180DOPC   H3X22095   1.775   6.939  13.695 -0.4710 -1.6397 -0.3434
  180DOPC   H3Y22096   1.920   7.012  13.765 -1.0782  1.2874 -0.5591
  180DOPC   C3422097   1.813   6.889  13.911  0.3763  0.0421  0.3969
  180DOPC   H4X22098   1.796   6.780  13.922  3.4010 -0.3491  2.1646
  180DOPC   H4Y22099   1.730   6.959  13.938 -0.2209 -1.6072  3.1766
  180DOPC   C3522100   1.924   6.928  14.015 -0.7482 -0.1456 -0.2264
  180DOPC   H5X22101   1.932   7.039  14.012 -3.2953  0.1120 -0.0628
  180DOPC   H5Y22102   2.020   6.880  13.989 -0.0477  1.4608 -0.7239
  180DOPC   C3622103   1.895   6.896  14.158  0.3623  0.2616  0.7487
  180DOPC   H6X22104   1.798   6.941  14.188 -0.4964 -0.4066 -0.8877
  180DOPC   H6Y22105   1.877   6.786  14.149 -0.5606  0.4983 -0.6823
  180DOPC   C3722106   2.004   6.923  14.266 -0.2930 -0.6653  0.3590
  180DOPC   H7X22107   2.099   6.938  14.211 -1.2852  0.1846 -1.1912
  180DOPC   H7Y22108   1.977   7.018  14.317 -2.7336 -0.5548 -0.9731
  180DOPC   C3822109   2.028   6.815  14.378 -0.5502  0.8585 -0.1546
  180DOPC   H8X22110   2.109   6.851  14.445 -0.3223  2.0961 -1.0559
  180DOPC   H8Y22111   2.059   6.719  14.333 -0.2561 -0.4148  2.5681
  180DOPC   C3922112   1.897   6.804  14.457 -0.8736  0.3806  0.4981
  180DOPC   H9X22113   1.811   6.812  14.388  0.9126  0.0990 -1.9090
  180DOPC  C31022114   1.883   6.791  14.589  0.3815  0.7403  0.6929
  180DOPC  H10X22115   1.781   6.786  14.630 -0.6006  2.5952 -1.3539
  180DOPC  C31122116   2.000   6.781  14.686  0.9623 -0.0579 -0.9849
  180DOPC  H11X22117   2.051   6.877  14.710  1.4495 -0.7529  0.8911
  180DOPC  H11Y22118   2.078   6.710  14.651 -0.0159 -0.7087 -1.9129
  180DOPC  C31222119   1.950   6.733  14.826 -0.0091  0.1580  0.0373
  180DOPC  H12X22120   1.888   6.642  14.823  1.7112 -1.0760  0.3469
  180DOPC  H12Y22121   1.892   6.819  14.867  0.0385 -0.3319  1.1633
  180DOPC  C31322122   2.067   6.725  14.921 -0.6190  0.3187 -0.0564
  180DOPC  H13X22123   2.135   6.650  14.875  0.4514  1.5067 -0.4761
  180DOPC  H13Y22124   2.120   6.822  14.911 -1.7788  0.7501 -2.7439
  180DOPC  C31422125   2.037   6.688  15.061  0.3165 -0.4379 -0.3178
  180DOPC  H14X22126   1.985   6.778  15.102  0.5885 -0.6806  0.5889
  180DOPC  H14Y22127   1.977   6.595  15.067 -1.8782  0.8721 -0.6457
  180DOPC  C31522128   2.160   6.685  15.142  0.1614 -0.3866 -0.2554
  180DOPC  H15X22129   2.210   6.785  15.144 -1.7803  0.6309  0.6273
  180DOPC  H15Y22130   2.239   6.617  15.104  1.2369 -0.0784  1.2909
  180DOPC  C31622131   2.142   6.643  15.287 -0.2338 -0.2747  0.3018
  180DOPC  H16X22132   2.062   6.701  15.338 -0.5250  0.6698 -1.1776
  180DOPC  H16Y22133   2.101   6.541  15.292 -3.2796  0.7067 -2.0234
  180DOPC  C31722134   2.276   6.648  15.361 -0.5045  0.8682 -0.5394
  180DOPC  H17X22135   2.341   6.583  15.298  0.2673  2.1176 -1.0730
  180DOPC  H17Y22136   2.332   6.744  15.359 -2.0096  1.7696 -0.9423
  180DOPC  C31822137   2.265   6.604  15.504  0.5706 -0.2738 -0.2615
  180DOPC  H18X22138   2.236   6.498  15.517  0.6323 -0.2811 -0.1833
  180DOPC  H18Y22139   2.368   6.614  15.543  1.0242 -0.8709 -1.2895
  180DOPC  H18Z22140   2.191   6.666  15.560  1.4729  1.4692 -0.9314
  181DOPC     N22141   3.254   4.694  13.090 -0.1579 -0.2672  0.4104
  181DOPC   C1222142   3.134   4.776  13.129 -0.4961  0.1896  0.2266
  181DOPC  H12A22143   3.061   4.716  13.181  2.0246 -2.4532  0.9562
  181DOPC  H12B22144   3.093   4.813  13.036 -1.1179 -1.7502 -0.3266
  181DOPC   C1322145   3.336   4.773  12.997  0.7964 -0.0767 -0.1957
  181DOPC  H13A22146   3.290   4.781  12.900 -1.1983  0.6658  0.7667
  181DOPC  H13B22147   3.354   4.867  13.048  2.2489 -0.2101 -0.4213
  181DOPC  H13C22148   3.434   4.729  12.984  0.4901 -0.5962 -0.7635
  181DOPC   C1422149   3.220   4.558  13.031  0.4986  0.4258 -0.9802
  181DOPC  H14A22150   3.308   4.499  13.008  0.3892 -1.7065  3.1374
  181DOPC  H14B22151   3.172   4.500  13.109  0.5627  3.1671  1.2218
  181DOPC  H14C22152   3.152   4.568  12.947 -0.1009  2.2176 -0.3142
  181DOPC   C1522153   3.342   4.668  13.216 -0.1018  0.6265 -0.0888
  181DOPC  H15A22154   3.372   4.762  13.261 -0.5656  0.2641  0.9969
  181DOPC  H15B22155   3.426   4.609  13.183 -2.1482 -2.2286 -0.5870
  181DOPC  H15C22156   3.274   4.609  13.276 -1.5301  1.6591 -0.6164
  181DOPC   C1122157   3.166   4.909  13.207 -0.3669 -0.4546 -0.5091
  181DOPC  H11A22158   3.069   4.961  13.223  0.4211  0.5994  1.0635
  181DOPC  H11B22159   3.210   4.875  13.303 -1.8829 -2.7897 -0.5611
  181DOPC     P22160   3.215   5.108  13.044 -0.4563  0.1339  0.2103
  181DOPC   O1322161   3.124   5.044  12.938 -0.1540  0.3424  0.2303
  181DOPC   O1422162   3.341   5.171  12.997 -0.6945  0.0337  0.0865
  181DOPC   O1222163   3.261   4.989  13.144 -0.1152  0.4561 -0.9869
  181DOPC   O1122164   3.125   5.202  13.133  0.1646 -0.4548  0.1861
  181DOPC    C122165   3.179   5.295  13.230  0.1932 -0.0368  0.5930
  181DOPC    HA22166   3.131   5.395  13.221  1.8109  0.7833  0.6716
  181DOPC    HB22167   3.287   5.312  13.214  0.2965 -1.3949 -0.3585
  181DOPC    C222168   3.167   5.241  13.371  0.3518  0.0846  0.4215
  181DOPC    HS22169   3.246   5.164  13.373 -0.3963 -0.9398 -2.6476
  181DOPC   O2122170   3.033   5.192  13.389  0.3869 -0.4190 -0.1947
  181DOPC   C2122171   3.025   5.086  13.477  0.2732 -0.4279  0.0206
  181DOPC   O2222172   3.121   5.037  13.529  0.1938  0.0934  0.3763
  181DOPC   C2222173   2.875   5.062  13.502 -0.0786 -0.4154 -0.0751
  181DOPC   H2R22174   2.817   5.033  13.412 -1.3359  2.7345 -0.4006
  181DOPC   H2S22175   2.832   5.161  13.527  0.3625  0.5981 -2.9742
  181DOPC    C322176   3.188   5.358  13.469  0.6844 -0.4615  0.2975
  181DOPC    HX22177   3.108   5.430  13.439 -0.5396 -1.8757  0.0062
  181DOPC    HY22178   3.284   5.412  13.456 -0.0531  1.3114  1.8109
  181DOPC   O3122179   3.177   5.320  13.612  0.0201 -0.4673 -0.0488
  181DOPC   C3122180   3.307   5.283  13.661  0.2383 -0.4397  0.8071
  181DOPC   O3222181   3.411   5.286  13.598 -0.1259  0.8569  0.6593
  181DOPC   C3222182   3.295   5.248  13.804 -0.3343 -0.1584  0.1174
  181DOPC   H2X22183   3.401   5.233  13.836  0.0205  0.9539 -0.4856
  181DOPC   H2Y22184   3.246   5.335  13.852  0.6435  0.0302  0.8014
  181DOPC   C2322185   2.862   4.958  13.612 -0.4818 -0.1548  0.0868
  181DOPC   H3R22186   2.901   4.991  13.711 -0.7880 -0.1021  0.1888
  181DOPC   H3S22187   2.925   4.869  13.589 -0.0631  0.5007 -1.3961
  181DOPC   C2422188   2.718   4.924  13.642 -0.1466  0.0834  0.3163
  181DOPC   H4R22189   2.682   4.844  13.574 -1.7694  1.6377 -0.7556
  181DOPC   H4S22190   2.654   5.014  13.629 -2.4899 -1.8521 -3.2521
  181DOPC   C2522191   2.702   4.864  13.777  0.0265  0.1499 -0.5311
  181DOPC   H5R22192   2.600   4.823  13.792 -0.1443  1.4435  2.4247
  181DOPC   H5S22193   2.718   4.943  13.853  2.4119 -0.4985 -0.2590
  181DOPC   C2622194   2.804   4.750  13.799 -0.2930  0.0148 -0.8690
  181DOPC   H6R22195   2.905   4.796  13.802 -0.9250  1.4626 -0.5775
  181DOPC   H6S22196   2.787   4.699  13.702 -2.1797  1.3523 -1.2925
  181DOPC   C2722197   2.773   4.656  13.920  0.0490 -0.2537  0.0437
  181DOPC   H7R22198   2.848   4.575  13.931  0.2053 -0.2823 -1.1392
  181DOPC   H7S22199   2.690   4.593  13.881  0.3280 -0.9859  0.6255
  181DOPC   C2822200   2.738   4.720  14.054  0.4718 -0.1574 -0.1147
  181DOPC   H8R22201   2.707   4.638  14.123 -1.0543 -0.4938 -1.1713
  181DOPC   H8S22202   2.666   4.804  14.051  0.5148 -0.1318 -0.4597
  181DOPC   C2922203   2.863   4.793  14.099 -0.3880 -0.0291  0.6036
  181DOPC   H9R22204   2.904   4.858  14.020 -2.6852  1.8034  0.8155
  181DOPC  C21022205   2.925   4.780  14.217  0.0595  0.0784 -0.1574
  181DOPC  H10R22206   3.008   4.851  14.227  1.0042 -0.3627 -3.4324
  181DOPC  C21122207   2.872   4.690  14.324 -0.3415 -0.0310 -0.2891
  181DOPC  H11R22208   2.844   4.586  14.299  1.2654 -0.6035  0.1795
  181DOPC  H11S22209   2.776   4.737  14.354 -0.9025 -0.4105 -1.4284
  181DOPC  C21222210   2.958   4.704  14.457 -0.5304 -0.1791 -0.2181
  181DOPC  H12R22211   2.970   4.810  14.485  0.6735 -0.1020 -0.9747
  181DOPC  H12S22212   3.058   4.660  14.435 -1.0477 -1.3771 -0.2629
  181DOPC  C21322213   2.883   4.634  14.576 -0.0108 -0.0212  0.4523
  181DOPC  H13R22214   2.839   4.536  14.549 -1.2407  0.1828  1.6061
  181DOPC  H13S22215   2.794   4.697  14.593  1.6921  2.6420  0.0789
  181DOPC  C21422216   2.970   4.626  14.694 -0.3258 -0.0134 -0.3332
  181DOPC  H14R22217   3.002   4.729  14.718 -0.4797 -0.0988  0.2574
  181DOPC  H14S22218   3.049   4.559  14.655 -0.9639 -1.1808  0.3187
  181DOPC  C21522219   2.911   4.563  14.818 -0.4379 -0.5157  0.3024
  181DOPC  H15R22220   2.872   4.463  14.787  0.8159 -0.4418 -1.7269
  181DOPC  H15S22221   2.826   4.628  14.847  1.0028  0.4115  2.8105
  181DOPC  C21622222   3.012   4.543  14.938  0.7734 -0.4460 -1.0964
  181DOPC  H16R22223   3.068   4.637  14.954 -1.3147  0.4936  1.3450
  181DOPC  H16S22224   3.085   4.464  14.909  3.1776  0.1342  2.7394
  181DOPC  C21722225   2.935   4.518  15.071 -0.1877 -0.0685  0.9763
  181DOPC  H17R22226   2.869   4.429  15.078 -2.8266  1.1611 -3.6090
  181DOPC  H17S22227   2.856   4.597  15.074 -0.4686 -0.3706  2.0598
  181DOPC  C21822228   3.027   4.534  15.188  0.1470  0.6241 -0.0969
  181DOPC  H18R22229   3.105   4.455  15.185  0.8345  1.2862 -0.0349
  181DOPC  H18S22230   2.979   4.522  15.288  0.4416 -2.4177 -0.2062
  181DOPC  H18T22231   3.095   4.622  15.189  0.8083  0.1223  0.4135
  181DOPC   C3322232   3.227   5.112  13.826 -0.0393 -0.3708 -0.1272
  181DOPC   H3X22233   3.305   5.035  13.806  2.0321  1.5788  0.1084
  181DOPC   H3Y22234   3.142   5.107  13.755 -0.9423 -1.1984  0.9624
  181DOPC   C3422235   3.173   5.079  13.966  0.6990  0.0041  0.6040
  181DOPC   H4X22236   3.118   4.983  13.972 -0.2909  0.6607  3.0865
  181DOPC   H4Y22237   3.106   5.161  14.001 -0.9160 -0.9188 -0.2346
  181DOPC   C3522238   3.286   5.073  14.066  0.2169  0.1682 -0.2527
  181DOPC   H5X22239   3.348   5.166  14.062 -0.4075  0.6430  0.7836
  181DOPC   H5Y22240   3.348   4.988  14.031  0.4687  0.8594 -1.5512
  181DOPC   C3622241   3.239   5.055  14.211  0.2439 -0.6316 -0.0712
  181DOPC   H6X22242   3.177   5.144  14.237 -1.6646 -1.4178 -1.6229
  181DOPC   H6Y22243   3.169   4.969  14.210 -0.9345  0.2367  1.9318
  181DOPC   C3722244   3.359   5.036  14.301 -0.2948 -0.0234  0.3091
  181DOPC   H7X22245   3.415   4.945  14.272  1.5711  1.7369 -2.0171
  181DOPC   H7Y22246   3.423   5.124  14.279 -0.0703 -0.3912 -0.5455
  181DOPC   C3822247   3.326   5.036  14.450 -0.1874 -0.1004 -0.4121
  181DOPC   H8X22248   3.279   5.134  14.476  4.1355  1.6746  1.7649
  181DOPC   H8Y22249   3.429   5.034  14.493  0.2604 -1.2229 -1.4925
  181DOPC   C3922250   3.257   4.914  14.504 -0.1036  0.4738 -0.5610
  181DOPC   H9X22251   3.234   4.838  14.428 -1.4658 -1.9181  2.0372
  181DOPC  C31022252   3.242   4.884  14.639 -1.4415 -0.6123  0.4301
  181DOPC  H10X22253   3.187   4.791  14.660 -0.2837 -0.9378  2.2231
  181DOPC  C31122254   3.266   4.979  14.751 -0.1070  0.9582 -1.1817
  181DOPC  H11X22255   3.200   4.957  14.838  1.1963  0.2322 -0.3562
  181DOPC  H11Y22256   3.238   5.078  14.710  0.4351  1.6306  0.0195
  181DOPC  C31222257   3.405   4.975  14.810 -0.3103  0.7663  0.0538
  181DOPC  H12X22258   3.483   5.019  14.745  2.0451 -0.8201  1.6194
  181DOPC  H12Y22259   3.436   4.870  14.827 -0.5058  0.5497 -0.8829
  181DOPC  C31322260   3.421   5.041  14.952 -0.4772  0.8942  0.0211
  181DOPC  H13X22261   3.387   5.146  14.945 -0.8861  0.6645 -2.5843
  181DOPC  H13Y22262   3.347   4.980  15.007  0.1520  0.6079  0.5677
  181DOPC  C31422263   3.559   5.025  15.022 -0.4953  0.2895  0.2972
  181DOPC  H14X22264   3.588   4.918  15.031  0.0246  0.4015 -0.0367
  181DOPC  H14Y22265   3.638   5.078  14.966  0.6990  0.4295  2.0286
  181DOPC  C31522266   3.550   5.067  15.169  0.2161  0.9932 -1.3927
  181DOPC  H15X22267   3.642   5.037  15.224 -2.1297  0.8321  2.8097
  181DOPC  H15Y22268   3.475   5.008  15.226  0.6971  0.2312 -1.5399
  181DOPC  C31622269   3.532   5.217  15.193  0.5237 -0.4694  0.2719
  181DOPC  H16X22270   3.603   5.262  15.120 -2.2903  0.3975 -2.1424
  181DOPC  H16Y22271   3.427   5.242  15.165  1.0125 -0.0610 -1.3234
  181DOPC  C31722272   3.571   5.271  15.331 -0.5211 -0.4375  0.4603
  181DOPC  H17X22273   3.681   5.260  15.325 -0.5057  0.4289 -2.6623
  181DOPC  H17Y22274   3.549   5.379  15.341 -1.8180 -0.7934  1.7515
  181DOPC  C31822275   3.501   5.190  15.442  0.3446 -0.6631  0.3620
  181DOPC  H18X22276   3.516   5.236  15.542 -2.7404 -1.6829  1.4225
  181DOPC  H18Y22277   3.395   5.164  15.422  1.2059 -3.6923 -0.9156
  181DOPC  H18Z22278   3.552   5.092  15.449 -2.6491 -2.6377 -2.3535
  182DOPC     N22279   5.034   4.476  12.467 -0.9122 -0.1763 -0.3196
  182DOPC   C1222280   5.007   4.497  12.611  0.0832 -0.0490 -0.3796
  182DOPC  H12A22281   4.995   4.400  12.655 -0.5782  0.7043  1.1975
  182DOPC  H12B22282   4.915   4.553  12.615  0.4618  0.5737 -0.2128
  182DOPC   C1322283   5.174   4.421  12.457 -0.0191 -0.8670  0.0086
  182DOPC  H13A22284   5.175   4.333  12.520  2.0901 -0.1846  1.0005
  182DOPC  H13B22285   5.204   4.391  12.358  0.3641 -0.8643  0.1226
  182DOPC  H13C22286   5.245   4.492  12.496  0.1523 -1.2221  0.3610
  182DOPC   C1422287   5.039   4.607  12.397  0.0904  0.1213  1.2262
  182DOPC  H14A22288   5.037   4.605  12.289  0.2301 -1.7711  1.2302
  182DOPC  H14B22289   4.946   4.658  12.418  0.0804  0.5623  0.1776
  182DOPC  H14C22290   5.120   4.674  12.424 -0.6846  0.9482  1.5505
  182DOPC   C1522291   4.945   4.375  12.396  0.1453  0.2995  0.2851
  182DOPC  H15A22292   4.955   4.366  12.289  0.7225 -3.1298  0.5137
  182DOPC  H15B22293   4.840   4.389  12.414 -0.1929 -1.3131 -0.2876
  182DOPC  H15C22294   4.964   4.274  12.429  3.3209 -0.1759 -2.3961
  182DOPC   C1122295   5.106   4.587  12.687  0.0501 -0.1390  0.0921
  182DOPC  H11A22296   5.107   4.554  12.793 -1.9067 -1.7363 -0.3150
  182DOPC  H11B22297   5.209   4.573  12.648 -0.5379 -0.7482 -1.3377
  182DOPC     P22298   5.153   4.838  12.737 -0.1583  0.3005  0.0465
  182DOPC   O1322299   5.088   4.970  12.716  0.1506  0.0099 -0.0515
  182DOPC   O1422300   5.297   4.818  12.709  0.5264  0.1882  0.2689
  182DOPC   O1222301   5.067   4.720  12.665  0.0598 -0.2961  0.0129
  182DOPC   O1122302   5.129   4.806  12.893  0.1376 -0.2348  0.3430
  182DOPC    C122303   4.992   4.797  12.941 -0.2383  1.3031  0.2306
  182DOPC    HA22304   4.933   4.722  12.884  0.2984  0.9358  0.1499
  182DOPC    HB22305   4.940   4.891  12.967 -1.2608  1.2443 -1.4218
  182DOPC    C222306   4.995   4.718  13.075  0.7612 -0.3074 -0.6877
  182DOPC    HS22307   4.891   4.683  13.088  1.3003 -1.5594  0.4988
  182DOPC   O2122308   5.049   4.798  13.179 -0.2001  0.2641 -0.7637
  182DOPC   C2122309   5.001   4.780  13.300 -0.6815  0.4137  0.4329
  182DOPC   O2222310   4.918   4.693  13.321  0.0560 -0.0611  0.4077
  182DOPC   C2222311   5.064   4.883  13.387  0.0781 -0.4397  0.3311
  182DOPC   H2R22312   4.984   4.941  13.438 -0.8449 -1.3737  0.0082
  182DOPC   H2S22313   5.122   4.952  13.322 -1.5204  0.2985 -0.3883
  182DOPC    C322314   5.078   4.593  13.061 -0.4692  1.1000 -0.3079
  182DOPC    HX22315   5.172   4.623  13.009  0.4702  0.6144  1.0450
  182DOPC    HY22316   5.021   4.529  12.992 -0.5730  2.6878 -1.7749
  182DOPC   O3122317   5.117   4.536  13.187 -0.1172 -0.2865  0.1020
  182DOPC   C3122318   5.048   4.435  13.238 -0.2891  0.1038 -0.6542
  182DOPC   O3222319   4.957   4.380  13.182  0.2045  0.1353 -0.5157
  182DOPC   C3222320   5.095   4.414  13.375  0.7464 -0.0828  0.2774
  182DOPC   H2X22321   5.202   4.386  13.369  0.0613 -3.1261  0.6307
  182DOPC   H2Y22322   5.078   4.509  13.431  0.6499 -0.1771  0.4109
  182DOPC   C2322323   5.161   4.813  13.496  0.3170 -0.0682  0.4004
  182DOPC   H3R22324   5.235   4.888  13.531  0.9568 -0.3478 -0.3210
  182DOPC   H3S22325   5.233   4.741  13.451  0.9977 -0.8950  2.6480
  182DOPC   C2422326   5.089   4.740  13.607 -0.1848  0.6433  0.0972
  182DOPC   H4R22327   5.006   4.679  13.564 -0.6035  1.5426 -0.3993
  182DOPC   H4S22328   5.035   4.810  13.675  0.7619 -0.1228  1.6775
  182DOPC   C2522329   5.180   4.664  13.699 -0.9102 -0.3532  0.6201
  182DOPC   H5R22330   5.269   4.722  13.730  1.2584 -2.9805 -0.3279
  182DOPC   H5S22331   5.227   4.574  13.655 -1.2000 -0.4249  0.4517
  182DOPC   C2622332   5.118   4.619  13.837 -0.4252  0.2003 -0.2206
  182DOPC   H6R22333   5.054   4.531  13.815 -1.3509  0.3187  1.8504
  182DOPC   H6S22334   5.046   4.694  13.875 -1.2624 -0.2465 -0.8929
  182DOPC   C2722335   5.220   4.594  13.950 -0.0065  0.3932  0.0715
  182DOPC   H7R22336   5.268   4.689  13.982  0.5377  0.5786 -1.2305
  182DOPC   H7S22337   5.304   4.533  13.911  0.5143  0.9509  0.3169
  182DOPC   C2822338   5.166   4.532  14.077  0.1778 -0.2927 -0.5504
  182DOPC   H8R22339   5.079   4.591  14.114  0.5188 -0.0319 -0.1557
  182DOPC   H8S22340   5.249   4.551  14.149 -0.9178 -0.4477  0.7969
  182DOPC   C2922341   5.132   4.387  14.072 -0.0113  0.0489  0.3266
  182DOPC   H9R22342   5.091   4.353  13.975  1.4169 -0.3500 -0.1560
  182DOPC  C21022343   5.142   4.292  14.162  0.2999 -0.3835  0.2995
  182DOPC  H10R22344   5.099   4.193  14.139 -1.1071 -0.4103  2.7038
  182DOPC  C21122345   5.192   4.310  14.298  0.2535 -0.2159  0.1799
  182DOPC  H11R22346   5.244   4.407  14.312 -1.6151  0.4383  3.6710
  182DOPC  H11S22347   5.262   4.224  14.301 -0.9391 -1.3624 -1.9325
  182DOPC  C21222348   5.095   4.289  14.414  0.2564  0.1056 -0.0916
  182DOPC  H12R22349   5.076   4.181  14.430 -3.7308  0.9927  2.5082
  182DOPC  H12S22350   5.002   4.343  14.386  1.3088  1.5720 -0.9305
  182DOPC  C21322351   5.142   4.358  14.542 -0.6086  0.2410 -0.3143
  182DOPC  H13R22352   5.160   4.466  14.524 -0.5832  0.4751  1.0207
  182DOPC  H13S22353   5.236   4.302  14.563 -1.6131 -0.4652  2.8788
  182DOPC  C21422354   5.053   4.330  14.663 -0.2757 -0.0523 -0.3295
  182DOPC  H14R22355   5.020   4.224  14.666  0.2017 -0.1720  1.7287
  182DOPC  H14S22356   4.959   4.390  14.663 -0.7258 -0.7480 -0.8258
  182DOPC  C21522357   5.116   4.357  14.799  0.9491 -0.4991 -0.6385
  182DOPC  H15R22358   5.127   4.461  14.838  2.0361 -1.4332  1.7659
  182DOPC  H15S22359   5.222   4.326  14.809  1.8989  2.9393  3.3385
  182DOPC  C21622360   5.046   4.274  14.906 -0.4976 -0.1785  0.0862
  182DOPC  H16R22361   5.063   4.171  14.869 -1.3526 -0.3122  0.0488
  182DOPC  H16S22362   4.936   4.282  14.903 -0.4825  0.1874  0.3632
  182DOPC  C21722363   5.103   4.295  15.050  0.6721 -0.0644 -0.3562
  182DOPC  H17R22364   5.092   4.403  15.075  1.8693 -0.3160  1.3931
  182DOPC  H17S22365   5.211   4.274  15.039  0.3676 -2.4829  0.7301
  182DOPC  C21822366   5.040   4.203  15.148  0.3551 -0.8831 -0.0037
  182DOPC  H18R22367   5.108   4.206  15.235  0.5521  0.1522 -0.1840
  182DOPC  H18S22368   5.052   4.100  15.108  1.2720 -1.3465  1.4292
  182DOPC  H18T22369   4.938   4.230  15.183  0.7278 -0.9801  1.1950
  182DOPC   C3322370   5.026   4.292  13.443 -0.6136  0.0109  0.1365
  182DOPC   H3X22371   5.026   4.208  13.371  0.2722 -0.8898  1.1496
  182DOPC   H3Y22372   4.920   4.326  13.449 -0.5601  0.5824 -1.6103
  182DOPC   C3422373   5.080   4.265  13.584  0.3949  0.1727 -0.6879
  182DOPC   H4X22374   5.025   4.331  13.655 -0.5387 -0.1781 -1.0713
  182DOPC   H4Y22375   5.188   4.292  13.582  0.0418  1.8939  0.5781
  182DOPC   C3522376   5.083   4.112  13.630 -0.0351 -0.4188 -0.1252
  182DOPC   H5X22377   5.074   4.054  13.535 -1.9756  0.8259 -0.7737
  182DOPC   H5Y22378   4.981   4.088  13.668 -0.7203  0.0692 -1.5484
  182DOPC   C3622379   5.212   4.079  13.717  0.4678 -0.0349 -0.5587
  182DOPC   H6X22380   5.304   4.093  13.656 -0.0881  1.3695 -1.1250
  182DOPC   H6Y22381   5.213   4.148  13.804 -0.6036 -1.7484  0.8879
  182DOPC   C3722382   5.206   3.932  13.763  0.2740 -0.4912 -0.6090
  182DOPC   H7X22383   5.115   3.931  13.827 -1.6812 -1.1202 -3.2427
  182DOPC   H7Y22384   5.180   3.852  13.690  1.1256 -1.7647  0.4450
  182DOPC   C3822385   5.340   3.907  13.828  0.5428 -0.5794 -0.2493
  182DOPC   H8X22386   5.367   3.978  13.909 -1.5031 -1.6815  1.4864
  182DOPC   H8Y22387   5.422   3.910  13.753 -0.4422 -1.4222 -1.4031
  182DOPC   C3922388   5.329   3.767  13.884 -0.0125  0.7697  0.3107
  182DOPC   H9X22389   5.343   3.687  13.810  2.9717  0.4546  1.0704
  182DOPC  C31022390   5.326   3.736  14.015 -0.0767 -0.1216 -0.3424
  182DOPC  H10X22391   5.342   3.630  14.042 -2.5838  0.3311  3.7873
  182DOPC  C31122392   5.322   3.827  14.135  0.5254 -0.3147  0.5114
  182DOPC  H11X22393   5.274   3.920  14.096 -0.0048 -1.7070 -2.4777
  182DOPC  H11Y22394   5.415   3.857  14.188  1.6456 -0.9544 -1.0189
  182DOPC  C31222395   5.220   3.781  14.240 -0.1267  0.0518 -0.0451
  182DOPC  H12X22396   5.260   3.721  14.326 -1.6824  0.9535  1.3614
  182DOPC  H12Y22397   5.130   3.733  14.196 -0.2084 -0.4307  0.6160
  182DOPC  C31322398   5.155   3.904  14.315  0.0044  0.4103  0.4040
  182DOPC  H13X22399   5.237   3.957  14.367 -1.1432  1.8946  0.7967
  182DOPC  H13Y22400   5.116   3.979  14.243  1.7243  0.1189 -0.8674
  182DOPC  C31422401   5.052   3.866  14.420 -0.5671 -0.6251 -0.7198
  182DOPC  H14X22402   5.022   3.961  14.468  0.2842 -0.1868 -1.0254
  182DOPC  H14Y22403   4.957   3.837  14.371 -0.3310 -0.1525 -1.4782
  182DOPC  C31522404   5.112   3.783  14.538  0.0392 -0.1255 -0.5400
  182DOPC  H15X22405   5.221   3.804  14.546 -0.3633  2.8155 -1.3476
  182DOPC  H15Y22406   5.105   3.673  14.526 -1.6112  0.0066 -0.9322
  182DOPC  C31622407   5.058   3.822  14.678 -0.2898 -0.1597  0.2922
  182DOPC  H16X22408   5.084   3.928  14.701 -1.0998 -0.0999  0.9871
  182DOPC  H16Y22409   4.947   3.822  14.667 -0.2113 -0.1667 -0.5491
  182DOPC  C31722410   5.113   3.739  14.795 -0.2050  0.1925 -0.4603
  182DOPC  H17X22411   5.107   3.633  14.761  1.2513 -0.0762  0.0813
  182DOPC  H17Y22412   5.220   3.758  14.817 -0.0536 -0.8868 -0.1963
  182DOPC  C31822413   5.045   3.774  14.932  0.2576 -0.0323 -0.1240
  182DOPC  H18X22414   5.080   3.708  15.014 -0.4958  0.7203  0.8408
  182DOPC  H18Y22415   5.060   3.881  14.957 -0.6311  0.6259 -2.1890
  182DOPC  H18Z22416   4.938   3.748  14.919  0.5374  0.1086 -3.7031
  183DOPC     N22417   3.455   1.172  12.442  1.1965  0.6684 -0.3709
  183DOPC   C1222418   3.543   1.103  12.332  0.6487 -0.1771  0.4603
  183DOPC  H12A22419   3.539   1.165  12.243 -0.0317 -0.6264  0.1667
  183DOPC  H12B22420   3.503   1.006  12.304 -0.5931 -0.6747  3.5952
  183DOPC   C1322421   3.460   1.085  12.562 -0.3750 -0.3877 -0.6640
  183DOPC  H13A22422   3.562   1.091  12.599 -0.6912  1.0933  0.0392
  183DOPC  H13B22423   3.396   1.127  12.638  0.5758 -1.0868  0.5774
  183DOPC  H13C22424   3.430   0.982  12.547  0.5848 -0.5998 -1.2262
  183DOPC   C1422425   3.311   1.187  12.393  0.0652 -0.3395 -0.3082
  183DOPC  H14A22426   3.263   1.091  12.384  0.3703 -0.3897 -1.7174
  183DOPC  H14B22427   3.259   1.270  12.438 -0.2915  0.5127 -2.1923
  183DOPC  H14C22428   3.311   1.228  12.293  0.4523  0.8046  0.1382
  183DOPC   C1522429   3.503   1.308  12.477 -0.4163  0.6693  0.9321
  183DOPC  H15A22430   3.608   1.302  12.503 -0.5999 -1.3034  1.4161
  183DOPC  H15B22431   3.447   1.339  12.564 -1.7905 -1.5378  0.9389
  183DOPC  H15C22432   3.482   1.377  12.398 -0.8268 -1.5275 -1.0012
  183DOPC   C1122433   3.697   1.078  12.365  1.3143 -0.4832 -0.5424
  183DOPC  H11A22434   3.722   0.996  12.436  2.3904  1.2082  1.1263
  183DOPC  H11B22435   3.747   1.064  12.267 -0.5137  2.4475 -2.0250
  183DOPC     P22436   3.890   1.184  12.512  0.3983  0.0584 -0.3589
  183DOPC   O1322437   3.983   1.295  12.500 -0.8304 -0.3076  0.1072
  183DOPC   O1422438   3.946   1.044  12.520 -0.1397  0.6230  0.0494
  183DOPC   O1222439   3.771   1.196  12.410  0.0026 -0.0389 -0.3348
  183DOPC   O1122440   3.803   1.199  12.648 -0.1854  0.1908 -0.9907
  183DOPC    C122441   3.797   1.327  12.719 -0.1594 -0.2965 -0.8944
  183DOPC    HA22442   3.754   1.413  12.665 -0.6730  0.4117  0.5801
  183DOPC    HB22443   3.896   1.362  12.758 -1.3660  0.7608  1.4445
  183DOPC    C222444   3.726   1.324  12.859 -0.8153  0.0827  0.4439
  183DOPC    HS22445   3.787   1.247  12.912  0.3581 -0.4655 -1.6071
  183DOPC   O2122446   3.592   1.273  12.856  0.2232 -0.0239 -0.2696
  183DOPC   C2122447   3.548   1.220  12.969 -0.6020 -0.6321  0.4133
  183DOPC   O2222448   3.613   1.181  13.064 -0.0692 -0.2316 -0.2664
  183DOPC   C2222449   3.393   1.202  12.943 -0.4218  0.1659  0.5308
  183DOPC   H2R22450   3.390   1.127  12.861  2.1871  1.1466 -0.5649
  183DOPC   H2S22451   3.351   1.300  12.911 -0.5514  0.1605  0.6821
  183DOPC    C322452   3.727   1.461  12.930 -0.0183 -0.1348 -0.8183
  183DOPC    HX22453   3.656   1.529  12.879 -0.1017  0.8824  0.5941
  183DOPC    HY22454   3.829   1.504  12.928 -0.5284  1.0990 -1.9026
  183DOPC   O3122455   3.677   1.452  13.071 -0.1866 -0.0661 -0.1216
  183DOPC   C3122456   3.765   1.424  13.165  0.7614  0.0410  0.4247
  183DOPC   O3222457   3.878   1.394  13.148 -0.1209  0.6277 -0.3411
  183DOPC   C3222458   3.703   1.433  13.300 -0.0982  0.3334 -0.2877
  183DOPC   H2X22459   3.701   1.543  13.315 -0.7156  0.3094 -0.1539
  183DOPC   H2Y22460   3.596   1.403  13.302 -0.7317  2.1614  3.4156
  183DOPC   C2322461   3.312   1.151  13.064 -0.7947  0.6572  0.4931
  183DOPC   H3R22462   3.362   1.061  13.106 -3.1019 -0.1966  1.6026
  183DOPC   H3S22463   3.210   1.122  13.030 -0.0766  0.0839 -1.2679
  183DOPC   C2422464   3.300   1.248  13.182 -0.8174 -0.0465  0.4874
  183DOPC   H4R22465   3.270   1.351  13.153  0.6906  0.3447  0.2186
  183DOPC   H4S22466   3.401   1.279  13.217 -1.1118  1.4054  0.1112
  183DOPC   C2522467   3.217   1.192  13.293  0.7080 -0.8920 -0.7311
  183DOPC   H5R22468   3.235   1.083  13.308 -2.1533 -1.4653 -0.8104
  183DOPC   H5S22469   3.108   1.203  13.272  0.2973  0.3571  1.7366
  183DOPC   C2622470   3.229   1.278  13.427 -0.0432  0.2543  0.6146
  183DOPC   H6R22471   3.212   1.383  13.395 -0.7811  0.6552  2.2065
  183DOPC   H6S22472   3.332   1.263  13.466  1.2501  0.0436 -2.6095
  183DOPC   C2722473   3.129   1.252  13.541  0.1758  0.5887 -0.2289
  183DOPC   H7R22474   3.152   1.159  13.597 -0.5166  0.4124 -0.2227
  183DOPC   H7S22475   3.024   1.239  13.505 -0.4333 -1.5422  2.0693
  183DOPC   C2822476   3.143   1.356  13.647  0.4413  0.5131  0.3096
  183DOPC   H8R22477   3.063   1.330  13.719  2.0182  1.3537  2.4574
  183DOPC   H8S22478   3.117   1.456  13.606  0.9771  0.2176 -0.8214
  183DOPC   C2922479   3.275   1.364  13.724  0.5595 -0.1356 -0.2522
  183DOPC   H9R22480   3.362   1.398  13.667  1.8826 -0.8489  1.2745
  183DOPC  C21022481   3.296   1.300  13.841 -0.0369 -0.1590  0.3162
  183DOPC  H10R22482   3.391   1.324  13.892  1.4690 -0.7198 -2.0829
  183DOPC  C21122483   3.204   1.217  13.921  0.3126 -0.3195 -0.1999
  183DOPC  H11R22484   3.254   1.119  13.910  1.8613  0.1700  1.8452
  183DOPC  H11S22485   3.102   1.212  13.876 -0.1611  1.1839  0.6330
  183DOPC  C21222486   3.167   1.250  14.069  0.2062 -0.3123  0.4294
  183DOPC  H12R22487   3.087   1.184  14.110  0.5830  0.1474  1.9622
  183DOPC  H12S22488   3.121   1.352  14.068  2.3752  0.7216 -1.3624
  183DOPC  C21322489   3.280   1.237  14.170  0.0873  0.2056 -0.0292
  183DOPC  H13R22490   3.368   1.298  14.140  1.2220 -1.7859 -0.9747
  183DOPC  H13S22491   3.301   1.128  14.165  0.8977  0.3659 -0.3791
  183DOPC  C21422492   3.242   1.266  14.318 -0.2928 -0.2930  0.0281
  183DOPC  H14R22493   3.167   1.187  14.341 -0.6083 -0.0219 -0.0689
  183DOPC  H14S22494   3.192   1.364  14.329  0.7932  0.2407  0.3211
  183DOPC  C21522495   3.355   1.259  14.413 -0.3520 -0.3538  0.2072
  183DOPC  H15R22496   3.436   1.325  14.376 -0.6174 -1.0091 -1.6683
  183DOPC  H15S22497   3.398   1.157  14.419  2.1904  0.6741  0.7043
  183DOPC  C21622498   3.315   1.307  14.548  0.2653 -0.0679  0.1818
  183DOPC  H16R22499   3.226   1.257  14.591 -0.1523 -0.0838 -0.6701
  183DOPC  H16S22500   3.297   1.416  14.543  2.0519  0.2190 -0.8069
  183DOPC  C21722501   3.437   1.305  14.649  0.4644 -0.6545 -0.0390
  183DOPC  H17R22502   3.527   1.340  14.593  2.3997 -1.6589  2.2894
  183DOPC  H17S22503   3.458   1.198  14.667  1.2732 -0.3233  1.0833
  183DOPC  C21822504   3.411   1.373  14.774 -0.2426  0.4849 -0.1663
  183DOPC  H18R22505   3.423   1.483  14.764 -0.1271  0.6006  1.1143
  183DOPC  H18S22506   3.484   1.355  14.855 -0.3366 -0.8929 -0.3696
  183DOPC  H18T22507   3.308   1.352  14.810 -0.0659 -0.5696 -0.2440
  183DOPC   C3322508   3.775   1.362  13.414 -0.5097  0.4040  0.1829
  183DOPC   H3X22509   3.856   1.436  13.431  1.3765 -0.9510 -2.2432
  183DOPC   H3Y22510   3.819   1.272  13.366 -1.7282  0.8010 -1.7890
  183DOPC   C3422511   3.690   1.339  13.544  0.1214 -0.7072 -0.5072
  183DOPC   H4X22512   3.629   1.247  13.547 -0.2727 -0.5077 -1.7493
  183DOPC   H4Y22513   3.627   1.430  13.558 -0.2945 -0.8479 -1.4355
  183DOPC   C3522514   3.787   1.302  13.659  0.5047  0.1797 -0.2910
  183DOPC   H5X22515   3.868   1.377  13.659  1.3340 -0.6366  1.6291
  183DOPC   H5Y22516   3.833   1.202  13.644  0.3664  0.2263 -1.0964
  183DOPC   C3622517   3.726   1.293  13.799 -0.1696 -0.3698  0.0146
  183DOPC   H6X22518   3.691   1.392  13.837  0.5935 -0.8943  2.2571
  183DOPC   H6Y22519   3.632   1.234  13.797 -0.6821  0.3115  1.5921
  183DOPC   C3722520   3.817   1.230  13.913  0.7424 -0.0568  0.2762
  183DOPC   H7X22521   3.837   1.126  13.882 -0.3685  0.2092 -1.5332
  183DOPC   H7Y22522   3.916   1.281  13.908  1.9201 -2.2648 -0.0623
  183DOPC   C3822523   3.749   1.244  14.052  0.7121 -0.3911  0.1029
  183DOPC   H8X22524   3.644   1.211  14.037  0.5656 -0.8148  1.8454
  183DOPC   H8Y22525   3.736   1.353  14.072  1.8790 -0.1006 -0.6827
  183DOPC   C3922526   3.813   1.164  14.159  0.7992  0.2430 -0.2807
  183DOPC   H9X22527   3.860   1.072  14.122  0.0234  0.7022 -2.5399
  183DOPC  C31022528   3.815   1.200  14.287 -0.4930  0.2562  0.2795
  183DOPC  H10X22529   3.877   1.143  14.359 -3.1339 -0.6029  2.0324
  183DOPC  C31122530   3.786   1.340  14.340 -0.2339  0.5240  0.1908
  183DOPC  H11X22531   3.676   1.354  14.330 -0.4237 -0.6019  0.5533
  183DOPC  H11Y22532   3.856   1.408  14.286  0.6470 -1.1806 -0.9415
  183DOPC  C31222533   3.816   1.349  14.490 -0.6970 -0.6689 -0.0802
  183DOPC  H12X22534   3.921   1.317  14.506 -0.3643  0.0187 -0.7820
  183DOPC  H12Y22535   3.745   1.283  14.544  0.4714 -0.6988  1.4759
  183DOPC  C31322536   3.806   1.492  14.539  0.6033  0.3398  0.2796
  183DOPC  H13X22537   3.893   1.552  14.505  1.2456 -0.5417  0.3346
  183DOPC  H13Y22538   3.719   1.545  14.495 -0.2709 -1.9519 -0.9122
  183DOPC  C31422539   3.802   1.493  14.695  0.2564  0.1897  0.5345
  183DOPC  H14X22540   3.722   1.423  14.727  1.1172 -1.5960 -1.0660
  183DOPC  H14Y22541   3.900   1.448  14.722 -0.2764 -1.2718  0.1399
  183DOPC  C31522542   3.773   1.626  14.765  0.0355 -0.3739 -0.0838
  183DOPC  H15X22543   3.667   1.651  14.741  0.6929  2.6511 -0.3078
  183DOPC  H15Y22544   3.828   1.716  14.730 -3.8144  1.8677 -0.9628
  183DOPC  C31622545   3.795   1.624  14.915  0.3239  0.0830  0.6889
  183DOPC  H16X22546   3.900   1.594  14.939  0.4680  0.0295  0.0194
  183DOPC  H16Y22547   3.783   1.725  14.959  1.6401  0.2501  0.7027
  183DOPC  C31722548   3.696   1.528  14.985 -0.2309 -0.1581 -0.1547
  183DOPC  H17X22549   3.596   1.576  14.979 -1.2827 -2.1084  0.7795
  183DOPC  H17Y22550   3.683   1.433  14.929 -2.5480  0.1743 -0.3128
  183DOPC  C31822551   3.721   1.495  15.133  0.2040 -0.8030 -0.1910
  183DOPC  H18X22552   3.649   1.418  15.168  0.6963 -0.7788  0.8926
  183DOPC  H18Y22553   3.820   1.447  15.148  0.6302  0.0205 -0.3073
  183DOPC  H18Z22554   3.708   1.583  15.201  1.0463 -1.1259  0.3926
  184DOPC     N22555   6.684   3.009  12.429 -0.1360 -0.0844 -0.4129
  184DOPC   C1222556   6.765   3.027  12.550 -0.0026 -0.3321  0.5104
  184DOPC  H12A22557   6.787   3.131  12.566 -0.6206 -0.1442  0.1728
  184DOPC  H12B22558   6.862   2.981  12.543  0.4863  0.5888  1.0615
  184DOPC   C1322559   6.645   2.865  12.428  1.0163 -0.3206 -0.1155
  184DOPC  H13A22560   6.559   2.858  12.363  0.6920 -0.6497  0.3470
  184DOPC  H13B22561   6.715   2.799  12.380 -1.9882 -1.5371 -3.2786
  184DOPC  H13C22562   6.607   2.826  12.521  1.0569  1.5706  0.7394
  184DOPC   C1422563   6.754   3.046  12.299 -0.0238  0.3414 -0.2021
  184DOPC  H14A22564   6.770   3.153  12.303  1.5911  0.0843  2.0849
  184DOPC  H14B22565   6.852   3.004  12.282 -0.8780 -1.7229 -0.3064
  184DOPC  H14C22566   6.702   3.005  12.214  1.2090 -3.0907  0.5591
  184DOPC   C1522567   6.554   3.095  12.435  0.4414 -0.0730 -0.5389
  184DOPC  H15A22568   6.472   3.052  12.380  0.4254 -2.9488  1.5250
  184DOPC  H15B22569   6.568   3.201  12.419  0.0601  0.2077  0.8313
  184DOPC  H15C22570   6.525   3.099  12.539  1.6311  1.1998 -0.2323
  184DOPC   C1122571   6.690   2.973  12.677  0.1006 -0.1984  0.1454
  184DOPC  H11A22572   6.735   3.024  12.765 -1.1452  1.1797  0.0139
  184DOPC  H11B22573   6.587   3.014  12.672 -0.3826 -1.4917 -0.9175
  184DOPC     P22574   6.623   2.762  12.813  0.5036 -0.0256  0.6824
  184DOPC   O1322575   6.679   2.627  12.840 -0.1211  0.7143 -0.5996
  184DOPC   O1422576   6.475   2.767  12.786 -0.2806 -0.1830  0.4584
  184DOPC   O1222577   6.700   2.832  12.697 -0.0943 -0.0967 -0.6073
  184DOPC   O1122578   6.645   2.855  12.934 -0.3256  0.4807 -0.1925
  184DOPC    C122579   6.776   2.870  12.995 -0.0501  0.9515  0.2930
  184DOPC    HA22580   6.848   2.924  12.931  0.8650 -0.4453  0.1118
  184DOPC    HB22581   6.815   2.770  13.024 -2.9435 -0.3454  0.0887
  184DOPC    C222582   6.761   2.949  13.126 -0.3239  0.5034 -0.2899
  184DOPC    HS22583   6.864   2.971  13.163  0.0432  0.3446 -1.1715
  184DOPC   O2122584   6.670   2.872  13.208 -0.0209  0.1925  0.5198
  184DOPC   C2122585   6.686   2.887  13.345 -0.4484  0.4600  0.0641
  184DOPC   O2222586   6.778   2.948  13.402  0.5652  0.4556 -0.3420
  184DOPC   C2222587   6.574   2.809  13.419  0.1777  0.1574 -0.0880
  184DOPC   H2R22588   6.622   2.774  13.513 -0.5535  1.3351  0.7472
  184DOPC   H2S22589   6.545   2.723  13.355  2.3338  0.4713 -1.6133
  184DOPC    C322590   6.705   3.089  13.093  0.4002 -0.3287 -0.4124
  184DOPC    HX22591   6.606   3.062  13.052  0.1441  0.0730 -0.0691
  184DOPC    HY22592   6.758   3.132  13.005  0.2744  0.7181  0.0054
  184DOPC   O3122593   6.698   3.183  13.211 -0.3183  0.3509 -0.0595
  184DOPC   C3122594   6.812   3.230  13.253 -0.6030  0.0572 -1.2674
  184DOPC   O3222595   6.912   3.250  13.181  0.5780  0.0031  0.5078
  184DOPC   C3222596   6.802   3.266  13.403 -0.1516  0.2690 -0.5449
  184DOPC   H2X22597   6.706   3.229  13.445  0.4045  0.3015  0.7706
  184DOPC   H2Y22598   6.880   3.228  13.471 -1.4646 -0.5261  0.5684
  184DOPC   C2322599   6.461   2.904  13.461  0.6961  0.5115 -0.2013
  184DOPC   H3R22600   6.384   2.840  13.508  1.1075  0.7226  0.7847
  184DOPC   H3S22601   6.419   2.950  13.369  1.9246 -0.3965 -1.2411
  184DOPC   C2422602   6.495   3.011  13.566  0.0459  0.3510 -0.3097
  184DOPC   H4R22603   6.403   3.071  13.584 -0.6053 -1.0730  1.4440
  184DOPC   H4S22604   6.572   3.082  13.528  0.2262  1.5731  2.1195
  184DOPC   C2522605   6.553   2.958  13.700  0.1526  0.8594  0.3985
  184DOPC   H5R22606   6.652   2.914  13.673 -0.1908  0.8856 -0.9903
  184DOPC   H5S22607   6.495   2.878  13.751 -0.3758  0.8102 -0.2675
  184DOPC   C2622608   6.594   3.067  13.797  0.3097  0.3386  0.3210
  184DOPC   H6R22609   6.499   3.102  13.841 -0.5597 -1.2821 -0.1905
  184DOPC   H6S22610   6.651   3.148  13.747  1.9619 -0.8136  0.2269
  184DOPC   C2722611   6.674   3.014  13.915 -0.3376 -0.7226 -0.4308
  184DOPC   H7R22612   6.777   2.976  13.896  1.0488  2.4228 -0.0328
  184DOPC   H7S22613   6.617   2.924  13.947 -3.3202  1.2542  0.2342
  184DOPC   C2822614   6.697   3.120  14.033 -0.6236 -0.3912  0.4175
  184DOPC   H8R22615   6.736   3.213  13.985 -0.7212  0.7499  2.4500
  184DOPC   H8S22616   6.771   3.090  14.111 -0.9020 -0.3707  0.6891
  184DOPC   C2922617   6.567   3.139  14.099  0.2072 -0.3327 -0.0999
  184DOPC   H9R22618   6.473   3.168  14.051 -0.7272 -1.5003  0.9587
  184DOPC  C21022619   6.550   3.116  14.226 -0.4211 -0.1873  0.3645
  184DOPC  H10R22620   6.460   3.156  14.276  1.1797  1.6027  2.0007
  184DOPC  C21122621   6.638   3.057  14.327  0.0080  0.3556 -0.3299
  184DOPC  H11R22622   6.720   2.990  14.291 -0.1408 -0.5099  0.8605
  184DOPC  H11S22623   6.577   2.996  14.397 -0.4130  0.2691 -0.7674
  184DOPC  C21222624   6.696   3.163  14.417 -0.7264 -0.3305 -0.4254
  184DOPC  H12R22625   6.612   3.222  14.459 -1.7308 -0.1113 -2.6123
  184DOPC  H12S22626   6.757   3.236  14.360 -0.9557 -1.1928 -1.8371
  184DOPC  C21322627   6.785   3.098  14.525 -0.4810 -0.1055 -0.5085
  184DOPC  H13R22628   6.861   3.034  14.474 -0.6716 -1.2323  0.5611
  184DOPC  H13S22629   6.719   3.026  14.579  0.1276 -0.6158 -0.4263
  184DOPC  C21422630   6.851   3.185  14.627 -0.3719 -0.0760  0.6006
  184DOPC  H14R22631   6.775   3.243  14.683  0.3879  1.4663  0.1294
  184DOPC  H14S22632   6.918   3.265  14.587 -0.1266  0.6445  2.3527
  184DOPC  C21522633   6.933   3.106  14.733  0.0659  0.0076  0.2357
  184DOPC  H15R22634   6.987   3.024  14.680 -1.3262  0.0463 -1.3065
  184DOPC  H15S22635   6.847   3.056  14.783 -1.8342  1.3247 -1.5556
  184DOPC  C21622636   7.019   3.193  14.820  0.2102  0.7733 -0.0610
  184DOPC  H16R22637   6.973   3.294  14.825 -3.1858 -0.6800  0.3778
  184DOPC  H16S22638   7.119   3.209  14.774  0.0393  0.7401 -0.4404
  184DOPC  C21722639   7.034   3.133  14.962  0.8033 -0.0606 -0.2921
  184DOPC  H17R22640   6.935   3.095  14.995  0.8764 -0.3627 -0.4167
  184DOPC  H17S22641   7.052   3.213  15.037  1.5986  0.2892 -0.8433
  184DOPC  C21822642   7.131   3.016  14.972  0.2784  0.3517  0.5457
  184DOPC  H18R22643   7.101   2.942  14.894 -3.1697 -0.0455  2.0606
  184DOPC  H18S22644   7.118   2.969  15.071  0.2902 -0.9937 -0.0650
  184DOPC  H18T22645   7.238   3.037  14.954  0.2814  0.3451  0.5561
  184DOPC   C3322646   6.793   3.420  13.411 -0.2746  0.4594 -0.3367
  184DOPC   H3X22647   6.701   3.455  13.360 -1.5695  1.6477  2.6373
  184DOPC   H3Y22648   6.881   3.465  13.361 -0.7598  1.5156 -0.2654
  184DOPC   C3422649   6.783   3.460  13.563  0.0866  0.0829  0.6795
  184DOPC   H4X22650   6.883   3.438  13.605  0.1344 -0.4964  0.2815
  184DOPC   H4Y22651   6.712   3.389  13.609  0.9127 -1.2819 -0.0907
  184DOPC   C3522652   6.739   3.601  13.584 -0.5792 -0.3450 -0.2450
  184DOPC   H5X22653   6.636   3.630  13.553 -0.0167  1.3095 -0.6728
  184DOPC   H5Y22654   6.805   3.667  13.525 -0.3316 -1.1426 -0.8861
  184DOPC   C3622655   6.748   3.657  13.723  0.3402  0.1764  0.2018
  184DOPC   H6X22656   6.853   3.670  13.754  0.1182  0.8234  0.7010
  184DOPC   H6Y22657   6.699   3.757  13.729 -2.4626 -0.9328 -1.8292
  184DOPC   C3722658   6.700   3.565  13.829  0.5517 -0.5245  0.0581
  184DOPC   H7X22659   6.594   3.540  13.809  1.2969 -3.3996 -0.7050
  184DOPC   H7Y22660   6.759   3.471  13.830 -1.6474 -1.9686 -0.3982
  184DOPC   C3822661   6.704   3.623  13.972  0.2623 -0.2717  0.2409
  184DOPC   H8X22662   6.638   3.560  14.036  1.3480 -0.0720  1.6301
  184DOPC   H8Y22663   6.651   3.721  13.973 -1.5856 -1.2276  0.2953
  184DOPC   C3922664   6.840   3.631  14.027  0.2306  0.0206  0.4754
  184DOPC   H9X22665   6.916   3.648  13.949 -1.2889 -1.6642 -1.4696
  184DOPC  C31022666   6.868   3.596  14.147  0.3744  0.0371 -0.1960
  184DOPC  H10X22667   6.974   3.601  14.176  0.5338  0.5864 -0.8483
  184DOPC  C31122668   6.776   3.554  14.258  0.2018  0.2960  0.3903
  184DOPC  H11X22669   6.724   3.459  14.232  0.7727  0.7580 -2.8854
  184DOPC  H11Y22670   6.701   3.636  14.257 -0.1103  0.0329  0.9997
  184DOPC  C31222671   6.832   3.536  14.400  0.5120  0.3558  0.7217
  184DOPC  H12X22672   6.926   3.477  14.397  0.0780 -0.3410  0.5069
  184DOPC  H12Y22673   6.762   3.472  14.458  2.2428 -0.2747  2.1892
  184DOPC  C31322674   6.870   3.668  14.470 -0.5309 -0.9541 -0.5616
  184DOPC  H13X22675   6.933   3.731  14.404  1.2152 -0.3365  1.5876
  184DOPC  H13Y22676   6.783   3.730  14.499  0.1706 -0.1363 -0.1644
  184DOPC  C31422677   6.952   3.635  14.588 -0.4415  0.0054  0.0136
  184DOPC  H14X22678   7.016   3.549  14.561  1.1402  1.7123 -1.9852
  184DOPC  H14Y22679   7.027   3.714  14.610 -1.0978  0.8523 -0.7127
  184DOPC  C31522680   6.864   3.590  14.706 -0.0600  0.0671  0.5944
  184DOPC  H15X22681   6.836   3.482  14.698  0.2642  0.1221 -2.4634
  184DOPC  H15Y22682   6.777   3.659  14.700  0.8516  1.2452  0.7237
  184DOPC  C31622683   6.923   3.622  14.847 -0.2293  0.9287  0.6805
  184DOPC  H16X22684   7.013   3.557  14.856 -0.8828 -0.3678 -1.3369
  184DOPC  H16Y22685   6.956   3.727  14.837  0.6845  0.4515 -2.1372
  184DOPC  C31722686   6.811   3.619  14.959 -0.2738  0.5610 -0.2939
  184DOPC  H17X22687   6.860   3.633  15.058  1.4387 -1.0338 -0.8637
  184DOPC  H17Y22688   6.741   3.702  14.936 -2.7309 -0.8357  1.5904
  184DOPC  C31822689   6.711   3.497  14.967 -0.4663  0.1224  0.3284
  184DOPC  H18X22690   6.662   3.491  14.867  1.8301  4.9364 -1.3706
  184DOPC  H18Y22691   6.769   3.403  14.984  1.1340  0.9095 -0.5032
  184DOPC  H18Z22692   6.642   3.527  15.048  0.7360  3.5530  0.2367
  185DOPC     N22693   1.953   0.635  12.445 -0.5378  0.2672  0.7478
  185DOPC   C1222694   2.022   0.650  12.582  0.4794  1.3282  0.0752
  185DOPC  H12A22695   2.059   0.551  12.605 -1.8457  0.4431  0.2345
  185DOPC  H12B22696   1.948   0.665  12.659 -1.5324 -1.3659 -1.1865
  185DOPC   C1322697   1.876   0.758  12.405  0.0767  0.2173 -0.0246
  185DOPC  H13A22698   1.838   0.755  12.304 -0.1168  1.2425  0.0102
  185DOPC  H13B22699   1.794   0.772  12.474 -1.3560  0.0590 -1.6326
  185DOPC  H13C22700   1.942   0.844  12.407  2.5601 -1.5687 -0.1554
  185DOPC   C1422701   1.860   0.516  12.451 -0.3068 -0.2419  0.2638
  185DOPC  H14A22702   1.770   0.513  12.512 -0.0539 -1.7083  0.6112
  185DOPC  H14B22703   1.821   0.492  12.354 -0.4797 -0.2036  0.3220
  185DOPC  H14C22704   1.920   0.429  12.474  1.0590  0.2848 -1.1646
  185DOPC   C1522705   2.056   0.606  12.346  0.0160  0.9021  0.0082
  185DOPC  H15A22706   2.014   0.592  12.247 -1.3200 -0.7902  0.7603
  185DOPC  H15B22707   2.110   0.517  12.372  0.1824  0.8451 -0.5195
  185DOPC  H15C22708   2.136   0.679  12.341  1.0549 -0.2555 -1.0606
  185DOPC   C1122709   2.128   0.755  12.606 -0.6749  0.2339 -0.8547
  185DOPC  H11A22710   2.157   0.764  12.713 -1.4972  3.3955 -0.8170
  185DOPC  H11B22711   2.222   0.730  12.551  0.7211  0.4950  1.3069
  185DOPC     P22712   2.014   0.983  12.662 -0.4824 -0.1455 -0.2906
  185DOPC   O1322713   1.886   0.920  12.703 -0.7145  0.0547  0.1440
  185DOPC   O1422714   2.006   1.117  12.603  0.5128 -0.1467  0.0454
  185DOPC   O1222715   2.095   0.888  12.559  0.6346  0.1170  0.1737
  185DOPC   O1122716   2.115   1.002  12.785 -0.3735  0.0166 -0.1832
  185DOPC    C122717   2.257   1.044  12.767 -0.2410  0.1399  0.4145
  185DOPC    HA22718   2.287   1.067  12.663  1.9982 -1.3901  0.6491
  185DOPC    HB22719   2.326   0.966  12.804 -0.0820  0.1116  0.0524
  185DOPC    C222720   2.290   1.180  12.845  0.0886  0.2021  0.1211
  185DOPC    HS22721   2.397   1.200  12.826 -0.1987  0.8036 -0.9221
  185DOPC   O2122722   2.248   1.175  12.983 -0.3831  0.3321  0.3154
  185DOPC   C2122723   2.317   1.101  13.064  0.2795  0.0476 -0.3469
  185DOPC   O2222724   2.409   1.031  13.034 -0.4104  0.7575 -0.5263
  185DOPC   C2222725   2.259   1.126  13.200 -0.1071  0.0054 -0.3880
  185DOPC   H2R22726   2.151   1.104  13.189  0.2175 -1.0476 -1.5712
  185DOPC   H2S22727   2.265   1.233  13.230 -0.6840 -0.0154 -0.1972
  185DOPC    C322728   2.213   1.293  12.772  0.8128 -0.7874 -0.9742
  185DOPC    HX22729   2.107   1.258  12.775  0.6057 -0.1098 -0.1249
  185DOPC    HY22730   2.264   1.289  12.674  3.0920 -0.1809  0.1181
  185DOPC   O3122731   2.238   1.409  12.850  0.2295 -0.0911  0.5322
  185DOPC   C3122732   2.168   1.516  12.814  0.6743 -0.9047 -0.4296
  185DOPC   O3222733   2.095   1.518  12.715 -0.0060  0.0819 -0.1034
  185DOPC   C3222734   2.186   1.635  12.907 -0.1698  0.1487 -0.7044
  185DOPC   H2X22735   2.161   1.615  13.014 -2.1373  3.2937 -0.4408
  185DOPC   H2Y22736   2.294   1.664  12.903 -0.7617  2.9285  0.7656
  185DOPC   C2322737   2.344   1.053  13.305  0.9529  0.4047 -0.0483
  185DOPC   H3R22738   2.446   1.097  13.310  0.6358  1.9725 -3.8334
  185DOPC   H3S22739   2.357   0.949  13.267 -1.7612  0.4107 -1.2105
  185DOPC   C2422740   2.283   1.032  13.444  0.2265  0.1998  0.0078
  185DOPC   H4R22741   2.206   0.953  13.442  1.6215 -1.2475  0.9402
  185DOPC   H4S22742   2.239   1.129  13.475  1.6220  0.6722  0.6526
  185DOPC   C2522743   2.397   0.979  13.534 -0.1009 -0.4927 -0.7921
  185DOPC   H5R22744   2.483   1.050  13.528 -0.9103  0.4888 -1.0522
  185DOPC   H5S22745   2.428   0.878  13.497  0.2779 -0.2731 -1.0822
  185DOPC   C2622746   2.356   0.972  13.681 -0.2402  0.3153  0.1076
  185DOPC   H6R22747   2.280   0.891  13.688  1.3490 -1.5615 -2.6059
  185DOPC   H6S22748   2.326   1.074  13.714 -2.2230  0.0123 -0.6230
  185DOPC   C2722749   2.478   0.934  13.770  0.0556 -0.0429  0.5887
  185DOPC   H7R22750   2.564   0.996  13.735 -1.8730  1.6124 -1.4965
  185DOPC   H7S22751   2.510   0.833  13.737 -0.7161 -0.4939  1.1822
  185DOPC   C2822752   2.461   0.965  13.915  0.6527 -0.2799 -1.2705
  185DOPC   H8R22753   2.374   0.903  13.946  0.4895 -0.6594 -2.4314
  185DOPC   H8S22754   2.448   1.073  13.938  1.0184 -0.0819 -1.9354
  185DOPC   C2922755   2.581   0.922  13.999 -0.2577 -0.0428 -0.3655
  185DOPC   H9R22756   2.672   0.916  13.937 -0.5943 -0.6104 -0.8095
  185DOPC  C21022757   2.585   0.891  14.135 -0.6032  0.4670  0.0669
  185DOPC  H10R22758   2.678   0.851  14.177 -1.1496  0.1959  1.0535
  185DOPC  C21122759   2.468   0.890  14.228  0.1550  0.0799 -0.4465
  185DOPC  H11R22760   2.457   0.792  14.278 -0.7209  0.5304  0.2699
  185DOPC  H11S22761   2.375   0.908  14.171 -0.0017  1.1499  0.1221
  185DOPC  C21222762   2.472   0.995  14.344  0.0796 -0.3105  0.0193
  185DOPC  H12R22763   2.445   1.098  14.311  0.6910  0.1437  0.8829
  185DOPC  H12S22764   2.578   1.005  14.376  1.1393 -3.8385 -1.8400
  185DOPC  C21322765   2.380   0.956  14.460  0.0254  0.1535  0.4520
  185DOPC  H13R22766   2.398   0.852  14.496  1.8058  0.0627 -0.5748
  185DOPC  H13S22767   2.276   0.970  14.424 -0.3428 -1.3303  0.8757
  185DOPC  C21422768   2.398   1.051  14.585  0.5510 -0.3677 -0.0638
  185DOPC  H14R22769   2.330   1.012  14.664  1.6778  1.0602  1.6843
  185DOPC  H14S22770   2.361   1.151  14.554 -1.3826 -1.0784 -0.1931
  185DOPC  C21522771   2.540   1.065  14.643 -0.5111  0.1467  0.9677
  185DOPC  H15R22772   2.620   1.091  14.570  0.7203  0.5120  2.4118
  185DOPC  H15S22773   2.569   0.963  14.674  3.4501  1.1716  1.1710
  185DOPC  C21622774   2.548   1.176  14.753  0.6885 -0.0421 -0.2036
  185DOPC  H16R22775   2.508   1.271  14.714  0.8736  0.1060 -0.0358
  185DOPC  H16S22776   2.653   1.195  14.785  0.2474 -0.1713  1.4276
  185DOPC  C21722777   2.475   1.138  14.878  0.3375 -0.3401 -0.1487
  185DOPC  H17R22778   2.513   1.041  14.918  0.9112 -0.1597 -0.2461
  185DOPC  H17S22779   2.367   1.125  14.855 -0.3928  1.5915  1.9033
  185DOPC  C21822780   2.485   1.248  14.978 -0.4353  0.0153  0.7480
  185DOPC  H18R22781   2.589   1.261  15.013 -0.6600  1.5473  0.9099
  185DOPC  H18S22782   2.418   1.242  15.066 -0.5158  1.2547  0.7890
  185DOPC  H18T22783   2.464   1.340  14.919 -1.8230 -1.4166 -1.1460
  185DOPC   C3322784   2.106   1.758  12.852 -0.2974  0.7476  0.7381
  185DOPC   H3X22785   1.997   1.743  12.861  0.0677 -3.2068  0.3531
  185DOPC   H3Y22786   2.135   1.769  12.746  0.8263 -1.6938  0.7297
  185DOPC   C3422787   2.143   1.881  12.933  0.3488  0.4774 -0.2331
  185DOPC   H4X22788   2.106   1.966  12.872 -1.3674 -0.7649 -1.0092
  185DOPC   H4Y22789   2.253   1.884  12.950  0.4348 -3.8906  1.2785
  185DOPC   C3522790   2.069   1.883  13.063  0.1009 -0.6573 -0.7263
  185DOPC   H5X22791   2.119   1.956  13.129  0.0571 -1.6675  0.4674
  185DOPC   H5Y22792   2.073   1.781  13.108  2.1963 -0.2085  0.2196
  185DOPC   C3622793   1.922   1.911  13.051  0.9494 -0.5318 -0.3135
  185DOPC   H6X22794   1.916   2.007  12.994  0.9793  0.4877  1.3261
  185DOPC   H6Y22795   1.863   1.837  12.993 -1.7627  1.6917 -0.6166
  185DOPC   C3722796   1.851   1.923  13.186 -0.0894 -0.0277 -0.5168
  185DOPC   H7X22797   1.867   1.827  13.240  1.3656  1.2039  1.3907
  185DOPC   H7Y22798   1.893   2.001  13.253 -1.9473  0.0907  0.5940
  185DOPC   C3822799   1.694   1.932  13.176  0.2831  0.3273 -0.1041
  185DOPC   H8X22800   1.656   1.931  13.280  1.7291 -1.8564  0.4627
  185DOPC   H8Y22801   1.661   1.836  13.129  0.7530 -0.8748  1.9088
  185DOPC   C3922802   1.656   2.060  13.112 -0.2128  0.2972 -0.1323
  185DOPC   H9X22803   1.690   2.066  13.007  1.6637 -2.2503  0.2425
  185DOPC  C31022804   1.594   2.161  13.172  0.4222 -0.6183  0.1640
  185DOPC  H10X22805   1.562   2.246  13.110  0.8113  0.7501  1.7523
  185DOPC  C31122806   1.534   2.167  13.316 -0.3139 -0.2622  0.9606
  185DOPC  H11X22807   1.486   2.070  13.341  0.1879 -0.3295  1.6832
  185DOPC  H11Y22808   1.449   2.239  13.330 -0.0560  0.1427  0.4665
  185DOPC  C31222809   1.639   2.216  13.415  0.0508  0.0698  0.6021
  185DOPC  H12X22810   1.668   2.322  13.400  0.2451 -0.1694 -0.8937
  185DOPC  H12Y22811   1.733   2.159  13.397  0.6229  1.3711 -0.6896
  185DOPC  C31322812   1.574   2.196  13.561  0.6609  0.6097 -0.2547
  185DOPC  H13X22813   1.494   2.274  13.560 -1.7633 -1.7234 -1.8997
  185DOPC  H13Y22814   1.524   2.097  13.562 -0.5772  1.1820 -1.6798
  185DOPC  C31422815   1.685   2.199  13.662 -0.4393 -0.1272 -0.1557
  185DOPC  H14X22816   1.761   2.129  13.621 -0.9815 -2.6348  2.7469
  185DOPC  H14Y22817   1.735   2.298  13.662  2.3465 -1.4393 -0.9086
  185DOPC  C31522818   1.627   2.152  13.797 -0.2542 -0.6154 -0.7459
  185DOPC  H15X22819   1.595   2.045  13.800 -0.1139 -0.6445 -0.2201
  185DOPC  H15Y22820   1.533   2.205  13.820  0.9196  1.2393  0.0220
  185DOPC  C31622821   1.720   2.190  13.920 -0.5407  0.4639  0.0051
  185DOPC  H16X22822   1.802   2.114  13.924  0.7314  1.7577 -0.4671
  185DOPC  H16Y22823   1.770   2.288  13.932  1.2392 -0.4442  0.4299
  185DOPC  C31722824   1.642   2.179  14.050 -0.5987 -0.1878  0.0140
  185DOPC  H17X22825   1.550   2.241  14.049 -0.5628 -0.1371 -0.6936
  185DOPC  H17Y22826   1.606   2.075  14.033 -0.8588 -0.3399  1.3852
  185DOPC  C31822827   1.729   2.185  14.174 -0.6525 -0.1131  0.5111
  185DOPC  H18X22828   1.808   2.108  14.176 -0.4059  0.1450  0.8816
  185DOPC  H18Y22829   1.773   2.287  14.166  0.2683 -0.3500  2.1799
  185DOPC  H18Z22830   1.666   2.181  14.265  0.4175 -0.1456  1.2586
  186DOPC     N22831   2.166   5.513  12.929 -0.2297  0.7564  0.3605
  186DOPC   C1222832   2.266   5.536  13.051  0.4532 -0.3526  0.4462
  186DOPC  H12A22833   2.301   5.638  13.040  0.0813 -0.2580  0.1376
  186DOPC  H12B22834   2.346   5.464  13.047 -0.3377 -1.2372  0.1873
  186DOPC   C1322835   2.226   5.525  12.790  0.1612  0.2478  0.5909
  186DOPC  H13A22836   2.281   5.617  12.776 -3.2614  2.3907 -0.2272
  186DOPC  H13B22837   2.294   5.443  12.774 -1.2415 -1.1568  1.5453
  186DOPC  H13C22838   2.149   5.509  12.715 -0.1292  0.0989  0.9176
  186DOPC   C1422839   2.059   5.615  12.956  0.4326  0.1618  0.6703
  186DOPC  H14A22840   2.087   5.718  12.966 -0.8531  0.5363  0.5484
  186DOPC  H14B22841   1.985   5.606  12.878  1.6600 -1.5187 -0.3723
  186DOPC  H14C22842   2.018   5.598  13.055  1.1425  0.9512  1.1071
  186DOPC   C1522843   2.097   5.380  12.933 -0.7928  0.0939  0.4892
  186DOPC  H15A22844   2.038   5.368  12.843  0.9666  3.4204 -1.2738
  186DOPC  H15B22845   2.040   5.371  13.024 -1.0675 -0.1535  0.2967
  186DOPC  H15C22846   2.165   5.297  12.940 -0.2672  0.4121 -0.5627
  186DOPC   C1122847   2.209   5.537  13.190  0.1283  0.3522  0.3311
  186DOPC  H11A22848   2.282   5.568  13.267 -1.4867  0.5202  1.8436
  186DOPC  H11B22849   2.134   5.619  13.198 -0.0748  0.6119 -2.7531
  186DOPC     P22850   2.233   5.288  13.278 -0.0074 -0.2925 -0.0607
  186DOPC   O1322851   2.310   5.324  13.399  0.7348  0.2850  0.4329
  186DOPC   O1422852   2.310   5.227  13.167 -0.5600  0.5060  0.6466
  186DOPC   O1222853   2.147   5.403  13.216  0.3555 -0.1319 -0.6141
  186DOPC   O1122854   2.122   5.172  13.310 -0.5468 -0.5141  0.0076
  186DOPC    C122855   1.997   5.193  13.372  0.1171 -0.0867  0.0256
  186DOPC    HA22856   1.928   5.111  13.342  0.6473 -0.1704 -1.0113
  186DOPC    HB22857   1.947   5.285  13.334 -0.0454  0.3354  1.2338
  186DOPC    C222858   2.007   5.184  13.522  0.4658 -0.2495 -0.5555
  186DOPC    HS22859   2.037   5.283  13.560  0.5000 -0.6683  0.5390
  186DOPC   O2122860   2.105   5.085  13.546 -0.2615  0.4221  0.0379
  186DOPC   C2122861   2.172   5.087  13.657 -0.0488  0.2330  0.0633
  186DOPC   O2222862   2.151   5.161  13.750  0.2779 -0.7742 -0.4393
  186DOPC   C2222863   2.285   4.985  13.659 -0.1327  0.3164  0.4261
  186DOPC   H2R22864   2.373   5.034  13.612 -1.9358  1.6420 -1.7751
  186DOPC   H2S22865   2.268   4.911  13.579 -0.6434  1.6445 -0.7443
  186DOPC    C322866   1.869   5.153  13.589  0.0632 -0.1048  0.1212
  186DOPC    HX22867   1.848   5.053  13.546 -0.5631  0.6286 -1.3636
  186DOPC    HY22868   1.785   5.222  13.566  0.1966  1.4481  3.6452
  186DOPC   O3122869   1.867   5.132  13.730  0.1363 -0.1707  0.4622
  186DOPC   C3122870   1.850   5.241  13.810 -0.4813 -0.0379 -0.6174
  186DOPC   O3222871   1.837   5.358  13.775 -0.2089  0.2853 -0.0691
  186DOPC   C3222872   1.866   5.193  13.955 -0.3196  0.1415 -0.9172
  186DOPC   H2X22873   1.794   5.108  13.961 -0.4781  0.3088 -0.4113
  186DOPC   H2Y22874   1.968   5.150  13.962 -1.2108 -2.6559 -3.1362
  186DOPC   C2322875   2.303   4.915  13.797  0.0533  0.1809  0.2894
  186DOPC   H3R22876   2.396   4.855  13.783 -0.7101 -0.8704 -0.4503
  186DOPC   H3S22877   2.218   4.844  13.806 -0.0751  0.1628 -0.9036
  186DOPC   C2422878   2.328   5.004  13.926  0.1184  1.0813  0.7394
  186DOPC   H4R22879   2.231   5.044  13.963 -0.2718 -0.3495  1.3268
  186DOPC   H4S22880   2.399   5.088  13.912 -0.4518  1.4736  0.1591
  186DOPC   C2522881   2.380   4.918  14.040  0.1706  0.1543 -0.3179
  186DOPC   H5R22882   2.488   4.914  14.012  0.5847  2.7171  0.6371
  186DOPC   H5S22883   2.344   4.813  14.042  0.8402 -0.0800  1.5879
  186DOPC   C2622884   2.375   4.975  14.185  0.5318  1.1867 -0.0291
  186DOPC   H6R22885   2.271   4.952  14.217  0.8838  0.9909  1.0014
  186DOPC   H6S22886   2.409   5.079  14.198 -0.2153  1.2411  1.7093
  186DOPC   C2722887   2.454   4.880  14.269 -0.4229  0.4384 -0.0064
  186DOPC   H7R22888   2.560   4.890  14.237 -0.7428  0.4734 -1.0746
  186DOPC   H7S22889   2.421   4.775  14.259 -0.4458  0.4624 -0.1881
  186DOPC   C2822890   2.457   4.931  14.419  0.5561 -0.8905 -0.5733
  186DOPC   H8R22891   2.355   4.955  14.457  1.0975  1.6444 -0.5914
  186DOPC   H8S22892   2.512   5.027  14.418 -2.3949  0.9928  1.8250
  186DOPC   C2922893   2.526   4.835  14.507 -0.5896  0.1183 -0.9970
  186DOPC   H9R22894   2.582   4.757  14.455  0.3580  0.2080 -0.1579
  186DOPC  C21022895   2.512   4.840  14.645 -0.2345  0.6036  0.2712
  186DOPC  H10R22896   2.575   4.767  14.698 -0.4451  1.6612  2.0645
  186DOPC  C21122897   2.453   4.955  14.718 -0.5876 -0.4508 -0.1202
  186DOPC  H11R22898   2.346   4.970  14.695  0.1562  0.0913 -3.8950
  186DOPC  H11S22899   2.511   5.047  14.696 -0.7218 -0.3658 -0.1189
  186DOPC  C21222900   2.471   4.941  14.871  0.3482 -0.3156 -0.0558
  186DOPC  H12R22901   2.400   4.864  14.907 -1.9403  1.2708 -0.9801
  186DOPC  H12S22902   2.434   5.033  14.920 -0.8523 -0.7042 -0.2051
  186DOPC  C21322903   2.616   4.912  14.923  0.1889 -0.3020 -0.1272
  186DOPC  H13R22904   2.661   4.826  14.869  0.0784 -0.0917 -0.5543
  186DOPC  H13S22905   2.623   4.907  15.034  0.9481 -1.7609 -0.2091
  186DOPC  C21422906   2.712   5.028  14.914 -0.4742 -0.3608 -0.1883
  186DOPC  H14R22907   2.689   5.115  14.978  1.1297  1.2841 -1.7318
  186DOPC  H14S22908   2.716   5.077  14.814  1.6649  1.7400  0.8384
  186DOPC  C21522909   2.861   4.984  14.931 -0.0526 -0.2298 -0.4659
  186DOPC  H15R22910   2.923   5.071  14.900 -1.4163  0.5358 -1.0840
  186DOPC  H15S22911   2.878   4.904  14.855  0.9454  0.2474 -0.7644
  186DOPC  C21622912   2.905   4.937  15.073 -0.4551  0.4455 -0.1024
  186DOPC  H16R22913   2.890   4.828  15.086  0.1343  0.3260 -0.3823
  186DOPC  H16S22914   2.844   4.996  15.145 -2.9550 -0.7581 -1.1180
  186DOPC  C21722915   3.060   4.959  15.096 -0.0034 -0.2616  0.2877
  186DOPC  H17R22916   3.100   5.048  15.043 -0.8177 -2.0199 -3.5883
  186DOPC  H17S22917   3.097   4.869  15.043 -0.6306 -1.5525  1.9581
  186DOPC  C21822918   3.105   4.958  15.247  0.5378 -0.8317  0.2977
  186DOPC  H18R22919   3.216   4.960  15.257  0.6520 -0.5862 -0.8459
  186DOPC  H18S22920   3.070   4.863  15.292 -0.3155 -0.1364  1.1544
  186DOPC  H18T22921   3.057   5.043  15.300  1.9785 -1.4067  2.6980
  186DOPC   C3322922   1.837   5.304  14.056 -0.6231 -0.1622  0.3295
  186DOPC   H3X22923   1.734   5.333  14.026 -0.7249 -2.1934 -1.5156
  186DOPC   H3Y22924   1.916   5.380  14.041 -1.3138  0.4398 -0.3367
  186DOPC   C3422925   1.845   5.252  14.204 -0.0756  0.7983 -0.0554
  186DOPC   H4X22926   1.944   5.206  14.221 -0.3624  0.7096  1.5475
  186DOPC   H4Y22927   1.765   5.176  14.216  1.7453 -1.0399  1.3019
  186DOPC   C3522928   1.833   5.365  14.312 -0.2901  0.3132 -0.5592
  186DOPC   H5X22929   1.751   5.437  14.290 -0.3073  0.4985  0.0917
  186DOPC   H5Y22930   1.929   5.420  14.306 -0.7759  1.1888 -0.5191
  186DOPC   C3622931   1.836   5.324  14.460  0.2767 -0.0834 -0.0457
  186DOPC   H6X22932   1.921   5.253  14.471 -1.8203 -2.4321  2.4456
  186DOPC   H6Y22933   1.851   5.412  14.527 -2.7402 -0.2124  0.9771
  186DOPC   C3722934   1.716   5.243  14.512 -0.1175  0.1910 -0.1516
  186DOPC   H7X22935   1.629   5.294  14.465  0.5257  1.5628  0.0902
  186DOPC   H7Y22936   1.737   5.139  14.479  0.8933  0.9371 -2.0555
  186DOPC   C3822937   1.706   5.248  14.666 -0.9204 -0.3448  0.3448
  186DOPC   H8X22938   1.618   5.192  14.705 -1.5905 -0.0857 -0.7698
  186DOPC   H8Y22939   1.689   5.353  14.696  0.4316 -0.4302  1.5545
  186DOPC   C3922940   1.832   5.192  14.733 -0.3277 -0.1283 -0.0367
  186DOPC   H9X22941   1.865   5.097  14.689  0.0740 -0.0708  0.1396
  186DOPC  C31022942   1.897   5.239  14.836  0.6465  0.4383 -0.7959
  186DOPC  H10X22943   2.002   5.209  14.842  0.1392 -1.7652 -1.7147
  186DOPC  C31122944   1.864   5.353  14.933  0.1820  0.6491 -0.2652
  186DOPC  H11X22945   1.755   5.372  14.930  0.3081  1.3291 -0.6366
  186DOPC  H11Y22946   1.915   5.443  14.894 -1.1861  1.6721  0.2462
  186DOPC  C31222947   1.904   5.318  15.077 -0.0294  0.6842  0.0244
  186DOPC  H12X22948   2.006   5.275  15.069  0.9793  2.8790  0.2711
  186DOPC  H12Y22949   1.822   5.252  15.112 -0.6499  1.8447  0.8474
  186DOPC  C31322950   1.911   5.428  15.181  0.1519 -0.0728  0.2470
  186DOPC  H13X22951   1.996   5.498  15.162 -0.7224  0.9128 -0.1338
  186DOPC  H13Y22952   1.818   5.487  15.163 -0.0230 -0.8964 -1.7801
  186DOPC  C31422953   1.905   5.379  15.325  0.0481  0.6197  0.0450
  186DOPC  H14X22954   1.806   5.333  15.344  0.4655 -0.2842  0.0744
  186DOPC  H14Y22955   1.983   5.304  15.347  0.0283  0.6926  0.3611
  186DOPC  C31522956   1.923   5.498  15.422 -0.0048  0.1976  0.1836
  186DOPC  H15X22957   1.834   5.562  15.404  1.5333  2.2014 -0.6552
  186DOPC  H15Y22958   2.018   5.552  15.401 -0.2331 -0.3563 -2.6992
  186DOPC  C31622959   1.917   5.463  15.575  1.1312  0.0281 -0.0313
  186DOPC  H16X22960   1.935   5.559  15.628  1.6569  0.1769 -0.4648
  186DOPC  H16Y22961   1.813   5.441  15.605 -0.1129  1.5672 -2.8510
  186DOPC  C31722962   1.997   5.345  15.629  0.2909 -0.7966  0.5179
  186DOPC  H17X22963   1.985   5.259  15.559 -0.9921 -0.3872  0.2148
  186DOPC  H17Y22964   2.099   5.381  15.605 -0.6275  0.8894 -1.1122
  186DOPC  C31822965   1.978   5.319  15.777 -1.0399 -0.6802  1.8012
  186DOPC  H18X22966   2.004   5.216  15.810 -2.1143 -1.2150  1.0505
  186DOPC  H18Y22967   2.031   5.394  15.839 -0.7276 -1.0515  1.9881
  186DOPC  H18Z22968   1.871   5.319  15.808 -1.0329 -2.0010  1.8820
  187DOPC     N22969   1.719   3.231  12.276  0.5374  0.0820 -0.3623
  187DOPC   C1222970   1.576   3.198  12.274 -0.2260 -0.0402 -0.0202
  187DOPC  H12A22971   1.571   3.095  12.308  2.0772  0.1276  0.9744
  187DOPC  H12B22972   1.540   3.195  12.172 -1.7133  0.4894  0.4548
  187DOPC   C1322973   1.781   3.200  12.412  0.2413  0.6570 -0.6468
  187DOPC  H13A22974   1.765   3.095  12.431 -0.7759  0.8557 -0.3082
  187DOPC  H13B22975   1.889   3.200  12.410  0.3210 -2.6182 -0.5997
  187DOPC  H13C22976   1.741   3.248  12.500 -0.1654  0.7712 -0.8869
  187DOPC   C1422977   1.727   3.379  12.250  0.4821  0.1256 -0.1954
  187DOPC  H14A22978   1.818   3.422  12.213 -0.6486  2.0105 -0.9234
  187DOPC  H14B22979   1.657   3.406  12.173  0.9500 -0.1209 -0.7143
  187DOPC  H14C22980   1.693   3.435  12.336 -0.0762 -1.9336  0.9992
  187DOPC   C1522981   1.789   3.160  12.164  0.6986  0.2193 -1.0043
  187DOPC  H15A22982   1.761   3.211  12.073 -0.2714  2.1367  0.3137
  187DOPC  H15B22983   1.760   3.056  12.165 -1.0136  0.6571 -1.6758
  187DOPC  H15C22984   1.896   3.170  12.174  0.8411 -1.4453 -0.6062
  187DOPC   C1122985   1.472   3.277  12.355 -0.4647  0.2135  0.0921
  187DOPC  H11A22986   1.470   3.382  12.320 -1.0731 -0.1531 -1.0069
  187DOPC  H11B22987   1.374   3.236  12.325 -0.7791  1.3277 -0.4326
  187DOPC     P22988   1.511   3.371  12.600 -0.3304 -0.3072 -0.2770
  187DOPC   O1322989   1.389   3.456  12.601  0.4609 -0.3195  0.6108
  187DOPC   O1422990   1.642   3.435  12.573 -1.0473 -0.0432  0.0896
  187DOPC   O1222991   1.489   3.251  12.492 -0.0386  0.0296 -0.2433
  187DOPC   O1122992   1.526   3.302  12.738  0.0313 -0.2807 -0.6128
  187DOPC    C122993   1.623   3.204  12.773 -0.2057 -0.2740 -0.6098
  187DOPC    HA22994   1.722   3.214  12.723  2.4664 -2.0805  3.7143
  187DOPC    HB22995   1.581   3.103  12.754 -0.7634  0.0778 -1.3228
  187DOPC    C222996   1.670   3.219  12.920  0.5145  0.1426  0.0023
  187DOPC    HS22997   1.757   3.152  12.936  0.1144 -0.0155  1.7846
  187DOPC   O2122998   1.556   3.188  12.999  0.1405  0.7689  0.1625
  187DOPC   C2122999   1.582   3.142  13.118 -0.7109 -0.1308  0.2474
  187DOPC   O2223000   1.693   3.100  13.153 -0.2824 -0.0180  0.5368
  187DOPC   C2223001   1.447   3.128  13.201  0.2606  0.2383  0.1312
  187DOPC   H2R23002   1.368   3.114  13.124  1.1130 -2.2468 -0.4116
  187DOPC   H2S23003   1.426   3.214  13.268 -0.4641 -0.5185  0.9094
  187DOPC    C323004   1.717   3.364  12.950 -0.2921 -0.6974  0.5815
  187DOPC    HX23005   1.623   3.416  12.976  0.5398  0.5514  1.1748
  187DOPC    HY23006   1.755   3.419  12.862 -1.1806  0.8673  1.1439
  187DOPC   O3123007   1.803   3.372  13.070 -0.1202 -0.6582  0.1301
  187DOPC   C3123008   1.932   3.374  13.054  0.5173  0.4854  0.8479
  187DOPC   O3223009   1.993   3.364  12.947  0.1420  0.2167 -0.6473
  187DOPC   C3223010   1.997   3.407  13.190 -0.4132 -0.1680  0.6925
  187DOPC   H2X23011   1.984   3.515  13.212  0.3937 -0.4577  2.8000
  187DOPC   H2Y23012   1.945   3.344  13.266  1.9058 -1.0500  1.6211
  187DOPC   C2323013   1.444   3.009  13.293  0.1033  0.4299 -1.1423
  187DOPC   H3R23014   1.520   3.010  13.375  0.3901 -1.2395 -1.3471
  187DOPC   H3S23015   1.474   2.915  13.242 -1.4833 -0.4394 -0.5239
  187DOPC   C2423016   1.308   2.987  13.355 -0.4359 -0.0608  0.3770
  187DOPC   H4R23017   1.277   2.883  13.329  1.9216 -0.5923 -0.4821
  187DOPC   H4S23018   1.233   3.045  13.297  0.7624 -0.7223 -1.9618
  187DOPC   C2523019   1.302   3.003  13.506  0.1525 -0.0648  0.2217
  187DOPC   H5R23020   1.311   3.112  13.528 -1.9745  0.1968 -0.0494
  187DOPC   H5S23021   1.396   2.962  13.548  0.3599 -0.2845 -0.4422
  187DOPC   C2623022   1.185   2.949  13.582  0.3602  0.5465  0.2069
  187DOPC   H6R23023   1.169   2.849  13.537  1.3465  1.4199 -2.2661
  187DOPC   H6S23024   1.092   3.001  13.548 -0.7198 -2.2152 -1.4309
  187DOPC   C2723025   1.206   2.951  13.727  0.2430 -0.0677 -0.8386
  187DOPC   H7R23026   1.211   3.053  13.770 -0.4232 -0.1952 -0.4409
  187DOPC   H7S23027   1.303   2.902  13.749 -0.9862 -1.8826  0.8669
  187DOPC   C2823028   1.104   2.870  13.825  0.0235 -0.6887  0.4154
  187DOPC   H8R23029   1.143   2.841  13.925 -0.7007  2.4033  1.7243
  187DOPC   H8S23030   1.089   2.775  13.769 -0.8019 -0.4698  0.2417
  187DOPC   C2923031   0.972   2.944  13.839  0.2288 -0.5544 -0.4218
  187DOPC   H9R23032   0.922   2.971  13.745 -1.5991  0.1118  0.6909
  187DOPC  C21023033   0.921   2.983  13.958  0.5900 -0.6609  0.0048
  187DOPC  H10R23034   0.814   3.002  13.971  0.7933  0.3089  0.3324
  187DOPC  C21123035   0.981   2.983  14.092 -0.8364 -0.3727  0.1982
  187DOPC  H11R23036   0.987   3.084  14.138 -0.7483 -0.1701 -0.2535
  187DOPC  H11S23037   1.081   2.934  14.084 -1.3316 -1.1466 -1.6870
  187DOPC  C21223038   0.905   2.891  14.188 -0.1571  0.0209 -0.6654
  187DOPC  H12R23039   0.895   2.794  14.136  1.3986 -0.0026 -0.9599
  187DOPC  H12S23040   0.802   2.932  14.202 -0.8136 -1.7476  0.0262
  187DOPC  C21323041   0.967   2.865  14.320 -0.5267  0.2043  0.0420
  187DOPC  H13R23042   1.069   2.821  14.309 -1.2076 -1.1997 -0.9812
  187DOPC  H13S23043   0.910   2.789  14.378  0.4190  0.0100  0.7404
  187DOPC  C21423044   0.976   2.994  14.411  0.2596 -0.4203  0.2051
  187DOPC  H14R23045   0.886   3.054  14.389  0.8556 -0.2391 -2.0281
  187DOPC  H14S23046   1.058   3.048  14.358  0.4446 -0.4645  0.4430
  187DOPC  C21523047   0.999   2.966  14.560  0.3411  0.3536 -0.5765
  187DOPC  H15R23048   1.039   2.863  14.574 -1.8759 -0.4538  0.3133
  187DOPC  H15S23049   0.896   2.967  14.603  0.3903 -1.7755 -0.2811
  187DOPC  C21623050   1.095   3.063  14.632 -0.1206  0.0668 -0.1343
  187DOPC  H16R23051   1.055   3.167  14.632  0.3075  0.2583 -1.7680
  187DOPC  H16S23052   1.189   3.066  14.573 -1.7311  1.8588 -2.8501
  187DOPC  C21723053   1.117   3.014  14.777 -0.2702 -0.7313  0.6438
  187DOPC  H17R23054   1.198   3.083  14.810 -0.4188  0.4924 -1.3547
  187DOPC  H17S23055   1.137   2.905  14.769 -0.8782 -0.7763 -0.3701
  187DOPC  C21823056   0.992   3.037  14.860  0.2249 -0.6944 -0.1478
  187DOPC  H18R23057   0.957   3.142  14.857  1.3347 -0.1808  2.6160
  187DOPC  H18S23058   1.015   3.021  14.967  0.9700 -0.0369 -0.2046
  187DOPC  H18T23059   0.906   2.971  14.835 -0.6495 -0.3909  1.8620
  187DOPC   C3323060   2.147   3.386  13.194  0.2111  0.4364 -0.2005
  187DOPC   H3X23061   2.190   3.447  13.111  1.1158  0.6558  0.4166
  187DOPC   H3Y23062   2.176   3.286  13.157 -0.1034  0.0178  0.6736
  187DOPC   C3423063   2.202   3.400  13.338 -0.0685 -0.2692 -0.3551
  187DOPC   H4X23064   2.177   3.502  13.376 -0.8578 -1.1573  1.6334
  187DOPC   H4Y23065   2.313   3.403  13.328  0.2162  2.2831  2.2882
  187DOPC   C3523066   2.152   3.292  13.439  0.9348  0.1233 -0.3706
  187DOPC   H5X23067   2.165   3.196  13.385  1.1266  0.3796 -0.7930
  187DOPC   H5Y23068   2.045   3.314  13.458  0.6832 -0.7835 -0.7082
  187DOPC   C3623069   2.228   3.292  13.575 -0.7595 -0.0964 -0.9481
  187DOPC   H6X23070   2.151   3.235  13.631 -1.9513  1.8958 -0.4502
  187DOPC   H6Y23071   2.329   3.248  13.563 -1.2457 -1.4565 -0.2282
  187DOPC   C3723072   2.241   3.437  13.629  0.1600  0.1858 -0.4859
  187DOPC   H7X23073   2.317   3.491  13.570  1.2971 -0.4800  0.3363
  187DOPC   H7Y23074   2.143   3.489  13.622  0.1770  0.6588  1.9760
  187DOPC   C3823075   2.297   3.453  13.770 -0.3719  0.3290 -0.7892
  187DOPC   H8X23076   2.217   3.426  13.842 -1.5526 -0.6999 -2.4244
  187DOPC   H8Y23077   2.328   3.558  13.793  0.2230  0.1650 -0.8229
  187DOPC   C3923078   2.430   3.378  13.782 -0.0082 -0.0447 -0.1308
  187DOPC   H9X23079   2.505   3.409  13.708 -0.6600 -0.5149 -1.0071
  187DOPC  C31023080   2.457   3.266  13.848  1.1923  0.7296  0.5362
  187DOPC  H10X23081   2.554   3.218  13.829  0.2992 -0.6033 -0.8124
  187DOPC  C31123082   2.346   3.186  13.917  0.8602  0.1742  0.4453
  187DOPC  H11X23083   2.365   3.079  13.939 -0.8987 -0.2585  0.0211
  187DOPC  H11Y23084   2.260   3.186  13.847 -1.2046  0.0396  2.8598
  187DOPC  C31223085   2.288   3.239  14.049  0.1008 -0.1973 -0.4596
  187DOPC  H12X23086   2.201   3.176  14.075 -0.6951  0.3948 -1.6054
  187DOPC  H12Y23087   2.252   3.344  14.042 -0.5107 -0.4725 -1.5642
  187DOPC  C31323088   2.379   3.224  14.172  0.1891  0.1153 -0.3910
  187DOPC  H13X23089   2.423   3.122  14.166 -0.4563 -0.1102 -1.8172
  187DOPC  H13Y23090   2.461   3.298  14.169  0.3060  0.3596  3.6893
  187DOPC  C31423091   2.313   3.240  14.310  0.2651  0.3918 -0.0265
  187DOPC  H14X23092   2.272   3.342  14.323  0.5688  0.6823 -1.2253
  187DOPC  H14Y23093   2.229   3.167  14.311  0.2584  0.3818 -0.8087
  187DOPC  C31523094   2.396   3.193  14.431 -0.1079  0.1054  0.3989
  187DOPC  H15X23095   2.479   3.261  14.461 -0.3501  1.8926 -2.5935
  187DOPC  H15Y23096   2.426   3.087  14.419  0.4465  0.1442  1.2680
  187DOPC  C31623097   2.307   3.175  14.557  0.1949  0.0231  0.0210
  187DOPC  H16X23098   2.263   3.273  14.586  0.0691  0.1050 -0.4358
  187DOPC  H16Y23099   2.215   3.117  14.534  0.6380 -0.3443 -0.8685
  187DOPC  C31723100   2.385   3.106  14.672 -0.4478 -0.2074 -0.0867
  187DOPC  H17X23101   2.399   2.999  14.648  2.0731 -0.3984  1.8087
  187DOPC  H17Y23102   2.483   3.159  14.669 -0.3849 -0.0829  2.1942
  187DOPC  C31823103   2.331   3.128  14.813  0.0100  0.4596 -1.4373
  187DOPC  H18X23104   2.244   3.062  14.832  0.2378  0.8616  1.4408
  187DOPC  H18Y23105   2.406   3.098  14.889  0.3138  1.6676 -1.2307
  187DOPC  H18Z23106   2.306   3.235  14.829  1.9578  0.7747 -0.1584
  188DOPC     N23107   3.812   5.055  13.060  0.4292  0.2170 -0.8873
  188DOPC   C1223108   3.917   5.012  13.164  0.2877 -0.2110  0.0450
  188DOPC  H12A23109   3.872   5.016  13.262 -0.1526 -1.3160 -0.0922
  188DOPC  H12B23110   3.996   5.086  13.161 -1.3891  1.6439 -3.5142
  188DOPC   C1323111   3.880   5.053  12.929 -0.3129  0.0156  0.3883
  188DOPC  H13A23112   3.816   5.089  12.850  1.1583 -0.3183 -0.9872
  188DOPC  H13B23113   3.970   5.113  12.930 -0.9239  0.9577  1.0327
  188DOPC  H13C23114   3.916   4.954  12.907 -1.0395 -0.1119 -0.2439
  188DOPC   C1423115   3.772   5.198  13.084 -0.8745 -0.1200 -0.0957
  188DOPC  H14A23116   3.722   5.204  13.179 -0.0385 -2.4707  0.5557
  188DOPC  H14B23117   3.861   5.257  13.100  0.9733 -2.2846 -1.8815
  188DOPC  H14C23118   3.710   5.241  13.006  0.8584  0.0558 -1.4561
  188DOPC   C1523119   3.688   4.978  13.068  0.5257 -0.2997 -1.0293
  188DOPC  H15A23120   3.649   4.983  13.169 -0.7973  0.6059 -1.5596
  188DOPC  H15B23121   3.695   4.871  13.051  1.5968 -0.7208  1.5101
  188DOPC  H15C23122   3.613   5.017  13.000  0.4905 -0.3070 -0.9949
  188DOPC   C1123123   3.976   4.869  13.142  0.6854 -0.7551 -0.6149
  188DOPC  H11A23124   4.017   4.839  13.241  1.8470  0.6839 -0.6281
  188DOPC  H11B23125   3.891   4.800  13.122  0.2326  0.4111 -3.0018
  188DOPC     P23126   4.227   4.875  13.047  0.0634 -0.3264 -0.3876
  188DOPC   O1323127   4.264   4.999  12.980 -0.1068  0.2292  0.8220
  188DOPC   O1423128   4.291   4.750  12.993 -0.4157 -0.2452  0.0345
  188DOPC   O1223129   4.072   4.859  13.033  0.5699 -0.0760  0.2303
  188DOPC   O1123130   4.263   4.890  13.201  0.6005  0.3485 -0.4670
  188DOPC    C123131   4.371   4.820  13.253 -0.9331 -0.2647 -0.3755
  188DOPC    HA23132   4.466   4.868  13.222 -0.2175 -0.5497  1.2861
  188DOPC    HB23133   4.372   4.713  13.226 -3.7227  0.1711 -2.8163
  188DOPC    C223134   4.363   4.842  13.406 -0.1964 -0.5068  0.8495
  188DOPC    HS23135   4.376   4.950  13.426 -0.8398 -0.1467 -0.5757
  188DOPC   O2123136   4.469   4.757  13.469 -0.1862  0.0265  0.3145
  188DOPC   C2123137   4.583   4.827  13.478 -0.3265 -0.2007  0.3606
  188DOPC   O2223138   4.596   4.942  13.442  0.4701 -1.2205 -0.3562
  188DOPC   C2223139   4.701   4.749  13.524  0.2745  0.5875  0.3071
  188DOPC   H2R23140   4.788   4.807  13.485  1.2522 -1.0847 -0.1290
  188DOPC   H2S23141   4.699   4.658  13.460 -3.0752  2.8204 -3.2626
  188DOPC    C323142   4.226   4.805  13.459 -0.4696  0.0110 -0.8589
  188DOPC    HX23143   4.174   4.731  13.394 -1.5144  0.4977 -0.6101
  188DOPC    HY23144   4.156   4.891  13.448 -1.4581 -0.9113 -2.2385
  188DOPC   O3123145   4.229   4.751  13.595 -0.3997 -0.0976  0.1619
  188DOPC   C3123146   4.250   4.848  13.681 -0.4670 -0.2883  0.4706
  188DOPC   O3223147   4.259   4.969  13.655  0.2122  0.2321 -0.4549
  188DOPC   C3223148   4.267   4.791  13.821 -0.3347  0.1847  1.1689
  188DOPC   H2X23149   4.216   4.693  13.836  1.0179 -0.2322  3.6486
  188DOPC   H2Y23150   4.374   4.768  13.839 -0.7403 -2.0187  1.0865
  188DOPC   C2323151   4.693   4.711  13.674 -0.0760 -0.2447 -0.1277
  188DOPC   H3R23152   4.770   4.634  13.697  0.1659  0.2276  0.7277
  188DOPC   H3S23153   4.592   4.669  13.694 -0.4079  0.3514 -0.5421
  188DOPC   C2423154   4.727   4.838  13.751  0.1878 -0.0504 -0.3665
  188DOPC   H4R23155   4.697   4.932  13.698 -1.2561 -0.6161 -0.6143
  188DOPC   H4S23156   4.835   4.839  13.774  0.0821 -1.9217  0.3881
  188DOPC   C2523157   4.665   4.843  13.887  0.4624 -0.5330  0.0793
  188DOPC   H5R23158   4.563   4.798  13.880  0.2271 -0.3035  1.6266
  188DOPC   H5S23159   4.648   4.932  13.951 -0.8066 -1.9937  1.9028
  188DOPC   C2623160   4.735   4.751  13.996 -0.5664 -0.2010  0.7646
  188DOPC   H6R23161   4.827   4.804  14.029  1.2609 -1.4426 -1.9773
  188DOPC   H6S23162   4.770   4.662  13.939  2.8050  1.1625  0.5000
  188DOPC   C2723163   4.640   4.728  14.116 -0.0139 -0.1374  0.0300
  188DOPC   H7R23164   4.538   4.694  14.087 -1.4424  2.4999  1.6330
  188DOPC   H7S23165   4.641   4.818  14.181  0.1668  0.3477 -0.6370
  188DOPC   C2823166   4.691   4.611  14.207  0.2243 -0.4146  0.2785
  188DOPC   H8R23167   4.731   4.527  14.147  0.9982 -0.3018  0.6176
  188DOPC   H8S23168   4.604   4.571  14.263  0.7729 -1.0625  0.6844
  188DOPC   C2923169   4.799   4.659  14.299 -1.1126 -0.5877 -0.1926
  188DOPC   H9R23170   4.896   4.648  14.249 -1.0950 -1.8941  0.1055
  188DOPC  C21023171   4.789   4.695  14.425  0.0818  0.0737  0.0062
  188DOPC  H10R23172   4.883   4.720  14.477  1.8283 -3.4064 -1.1077
  188DOPC  C21123173   4.660   4.703  14.511  1.2101  0.0405 -0.1775
  188DOPC  H11R23174   4.572   4.688  14.445  0.2466 -2.0151  1.4865
  188DOPC  H11S23175   4.645   4.805  14.553 -2.8732 -0.4371 -0.0960
  188DOPC  C21223176   4.654   4.590  14.622  0.0479  0.2495 -0.3638
  188DOPC  H12R23177   4.669   4.493  14.569  0.8107 -0.6014  1.3325
  188DOPC  H12S23178   4.547   4.604  14.649 -0.4288 -1.2103 -1.3405
  188DOPC  C21323179   4.743   4.616  14.746 -0.3454 -0.2917 -0.2457
  188DOPC  H13R23180   4.743   4.725  14.768 -0.2879 -0.3601  0.0932
  188DOPC  H13S23181   4.846   4.586  14.717 -0.2699 -0.7948  0.5362
  188DOPC  C21423182   4.698   4.540  14.871 -0.4392 -0.8609 -0.2986
  188DOPC  H14R23183   4.685   4.431  14.857 -2.5516 -0.6904  0.0063
  188DOPC  H14S23184   4.603   4.596  14.889  0.7025  1.4511 -1.0404
  188DOPC  C21523185   4.805   4.564  14.984  0.1331  0.2963 -0.2534
  188DOPC  H15R23186   4.810   4.675  14.995  2.2080  0.2557 -0.3657
  188DOPC  H15S23187   4.909   4.543  14.952  0.7695 -0.6243  2.2462
  188DOPC  C21623188   4.781   4.503  15.117  0.1356  0.0199 -0.2126
  188DOPC  H16R23189   4.806   4.395  15.110 -1.4922 -0.3447 -0.7790
  188DOPC  H16S23190   4.674   4.511  15.148  0.0658  1.0085 -0.6642
  188DOPC  C21723191   4.861   4.560  15.231 -0.3560  0.0331  0.1677
  188DOPC  H17R23192   4.839   4.668  15.244 -1.8983 -0.3075  0.5526
  188DOPC  H17S23193   4.969   4.556  15.203 -0.2078  1.3009  0.5078
  188DOPC  C21823194   4.845   4.493  15.366 -0.1610  0.5171 -0.2595
  188DOPC  H18R23195   4.878   4.387  15.357 -0.3498  0.3178  1.2235
  188DOPC  H18S23196   4.745   4.493  15.414  0.2851  2.8193  0.8533
  188DOPC  H18T23197   4.914   4.536  15.443  1.6301 -0.8012 -1.0519
  188DOPC   C3323198   4.198   4.886  13.930 -0.9261 -0.2627 -1.1317
  188DOPC   H3X23199   4.087   4.876  13.931 -0.9066 -0.6495  0.9182
  188DOPC   H3Y23200   4.215   4.992  13.901  1.0554  0.4825  2.2021
  188DOPC   C3423201   4.241   4.845  14.069  0.6472 -0.1942  0.0187
  188DOPC   H4X23202   4.344   4.805  14.074  0.5551 -0.3630  0.6769
  188DOPC   H4Y23203   4.179   4.755  14.086 -0.8187  0.6320 -0.7055
  188DOPC   C3523204   4.215   4.947  14.186  0.4884 -0.3389  0.5871
  188DOPC   H5X23205   4.113   4.991  14.183  0.7168  0.1515 -1.6508
  188DOPC   H5Y23206   4.281   5.036  14.173 -0.5690  0.0466 -3.1632
  188DOPC   C3623207   4.249   4.896  14.321 -0.4167  0.5122 -0.7684
  188DOPC   H6X23208   4.198   4.803  14.355  0.1947  0.9763  1.6225
  188DOPC   H6Y23209   4.356   4.869  14.309 -0.4759 -1.2012  1.7085
  188DOPC   C3723210   4.241   5.001  14.437  0.1711 -0.4472 -0.5109
  188DOPC   H7X23211   4.282   5.094  14.393  1.9583 -2.0427 -2.4348
  188DOPC   H7Y23212   4.132   4.996  14.457  0.4904 -3.6285  1.0420
  188DOPC   C3823213   4.318   4.964  14.570  0.2591  0.4663 -0.0570
  188DOPC   H8X23214   4.305   5.056  14.630  0.8060 -0.4759  1.5628
  188DOPC   H8Y23215   4.423   4.960  14.535 -0.5064  0.0980 -2.5310
  188DOPC   C3923216   4.276   4.834  14.640 -0.1476 -0.5465 -1.0935
  188DOPC   H9X23217   4.250   4.750  14.575  0.6681 -1.5509 -0.1705
  188DOPC  C31023218   4.311   4.801  14.765 -0.4280  0.2307  0.4758
  188DOPC  H10X23219   4.294   4.699  14.804  3.2295 -0.4778  0.6168
  188DOPC  C31123220   4.377   4.890  14.870 -0.9978  0.1604  0.6275
  188DOPC  H11X23221   4.366   4.997  14.843 -0.8278 -0.0529 -0.3223
  188DOPC  H11Y23222   4.484   4.860  14.874 -1.2610 -0.7253  1.6421
  188DOPC  C31223223   4.330   4.872  15.017 -0.5256  0.4214 -0.0094
  188DOPC  H12X23224   4.219   4.878  15.015 -0.6550 -1.4490 -0.2445
  188DOPC  H12Y23225   4.372   4.955  15.078 -0.0466  0.7319 -0.7583
  188DOPC  C31323226   4.365   4.741  15.086 -1.1066 -0.0370 -0.7880
  188DOPC  H13X23227   4.314   4.657  15.034 -0.7621 -0.4906 -0.4009
  188DOPC  H13Y23228   4.472   4.712  15.082 -1.3594 -1.2340  0.6060
  188DOPC  C31423229   4.317   4.740  15.236  0.2875 -0.1880  0.1660
  188DOPC  H14X23230   4.212   4.775  15.240  0.4642  0.4779 -0.6659
  188DOPC  H14Y23231   4.310   4.633  15.265 -0.8266  0.1317  1.1067
  188DOPC  C31523232   4.396   4.813  15.341 -0.3799  0.0990  0.2895
  188DOPC  H15X23233   4.347   4.807  15.440 -0.0003 -3.6052  0.3811
  188DOPC  H15Y23234   4.409   4.916  15.300  2.2902 -0.9470 -1.8171
  188DOPC  C31623235   4.542   4.762  15.358  0.8477 -0.0327 -0.3258
  188DOPC  H16X23236   4.532   4.652  15.351 -0.2072  0.0358 -0.0518
  188DOPC  H16Y23237   4.595   4.795  15.265 -2.6959  1.0465 -2.1555
  188DOPC  C31723238   4.611   4.818  15.486  0.4553  0.2269 -0.8099
  188DOPC  H17X23239   4.721   4.805  15.477  0.6280  1.6031 -0.8944
  188DOPC  H17Y23240   4.591   4.924  15.511 -3.1322 -0.8048  1.4121
  188DOPC  C31823241   4.569   4.738  15.608  0.4140  0.5790 -0.4639
  188DOPC  H18X23242   4.462   4.754  15.631  0.0467 -0.9275 -1.0067
  188DOPC  H18Y23243   4.585   4.631  15.584  2.0437  0.6090  0.3757
  188DOPC  H18Z23244   4.633   4.751  15.698  2.4950 -2.0966 -1.4094
  189DOPC     N23245   4.586   2.204  12.197  0.2644 -0.0109 -0.2702
  189DOPC   C1223246   4.578   2.129  12.325  0.2159 -0.1494  0.4697
  189DOPC  H12A23247   4.682   2.107  12.347  1.4164  2.0126 -2.3307
  189DOPC  H12B23248   4.529   2.035  12.308 -1.4539  0.7021  0.4100
  189DOPC   C1323249   4.448   2.252  12.161  0.2327 -0.3085  0.4987
  189DOPC  H13A23250   4.404   2.303  12.245 -1.7983  0.2366 -0.8258
  189DOPC  H13B23251   4.459   2.321  12.079  1.4862  0.0666  0.9604
  189DOPC  H13C23252   4.382   2.169  12.140  1.6675 -1.5034  0.4674
  189DOPC   C1423253   4.639   2.131  12.080  0.1946 -0.6073 -0.2661
  189DOPC  H14A23254   4.562   2.064  12.045 -1.6236  2.0608 -1.7696
  189DOPC  H14B23255   4.658   2.199  11.999 -1.6603  0.2981 -0.0168
  189DOPC  H14C23256   4.725   2.074  12.111  0.5106  0.1644  0.3290
  189DOPC   C1523257   4.674   2.326  12.208  0.0890  0.4095  0.0361
  189DOPC  H15A23258   4.777   2.292  12.201 -0.2950 -0.7413 -0.2929
  189DOPC  H15B23259   4.651   2.381  12.298  0.8315 -0.0259  0.5108
  189DOPC  H15C23260   4.654   2.405  12.138 -1.1376  1.0269  1.0450
  189DOPC   C1123261   4.521   2.201  12.446 -0.3310 -0.2861 -0.6401
  189DOPC  H11A23262   4.414   2.218  12.423 -0.6242 -1.0340  0.1727
  189DOPC  H11B23263   4.530   2.118  12.519  0.2909 -0.5316 -0.9850
  189DOPC     P23264   4.704   2.309  12.597 -0.1103  0.0656 -0.0204
  189DOPC   O1323265   4.792   2.427  12.595 -0.3783  0.3789 -0.0467
  189DOPC   O1423266   4.773   2.181  12.570  0.0149  0.5821 -0.2114
  189DOPC   O1223267   4.589   2.322  12.479 -0.7111 -0.2854 -0.7451
  189DOPC   O1123268   4.623   2.298  12.733  0.0697 -0.4984 -0.1255
  189DOPC    C123269   4.688   2.236  12.848  0.4171  0.2283  0.1793
  189DOPC    HA23270   4.783   2.185  12.820  0.9915  2.0540 -1.3571
  189DOPC    HB23271   4.621   2.154  12.881 -0.7797  0.6497 -1.0865
  189DOPC    C223272   4.711   2.338  12.964  0.0737  0.5630  0.6884
  189DOPC    HS23273   4.619   2.397  12.984 -0.0549 -0.0348  1.9528
  189DOPC   O2123274   4.821   2.419  12.923  0.4522 -0.0520  0.0962
  189DOPC   C2123275   4.808   2.552  12.934  0.6455 -0.5137 -0.6837
  189DOPC   O2223276   4.712   2.605  12.989 -0.2688 -0.1309  0.3968
  189DOPC   C2223277   4.937   2.621  12.881  0.1135  0.6759 -0.2036
  189DOPC   H2R23278   4.921   2.640  12.772  0.0558  2.3193  0.0788
  189DOPC   H2S23279   5.025   2.555  12.894 -0.0957  0.7444  1.8150
  189DOPC    C323280   4.754   2.253  13.091 -0.0740 -0.4558  0.1402
  189DOPC    HX23281   4.855   2.213  13.066  0.4188  1.1626 -0.5496
  189DOPC    HY23282   4.681   2.173  13.116 -0.3589 -0.3120 -0.2360
  189DOPC   O3123283   4.757   2.339  13.212  0.1595 -0.2032 -0.1472
  189DOPC   C3123284   4.869   2.397  13.241 -0.4335  0.2864 -0.2009
  189DOPC   O3223285   4.970   2.386  13.179 -0.0716  0.1723  0.1452
  189DOPC   C3223286   4.852   2.480  13.371 -0.5523  0.2709 -0.2274
  189DOPC   H2X23287   4.957   2.506  13.399 -0.0576 -0.8014 -1.0115
  189DOPC   H2Y23288   4.800   2.575  13.347  2.0843  1.7854 -0.3929
  189DOPC   C2323289   4.971   2.755  12.945 -0.7008 -0.3013  0.0510
  189DOPC   H3R23290   4.897   2.830  12.910 -0.6761 -0.1194  0.3903
  189DOPC   H3S23291   5.067   2.795  12.905 -0.9105 -0.7418 -0.9166
  189DOPC   C2423292   4.978   2.737  13.095 -0.1142  0.0520 -0.3225
  189DOPC   H4R23293   5.034   2.644  13.121  1.9619  1.0979 -0.8709
  189DOPC   H4S23294   4.877   2.738  13.140  0.5435  2.4499  1.2920
  189DOPC   C2523295   5.051   2.851  13.171 -0.6928  0.0367  0.2015
  189DOPC   H5R23296   5.021   2.953  13.139 -0.6464  0.2335  0.7769
  189DOPC   H5S23297   5.158   2.847  13.143 -0.5111  1.9080  0.4907
  189DOPC   C2623298   5.027   2.838  13.323  0.4433  0.3080 -0.0223
  189DOPC   H6R23299   5.088   2.757  13.368 -0.6507 -1.2784 -1.2721
  189DOPC   H6S23300   4.918   2.822  13.337  0.2499 -1.0609 -2.6520
  189DOPC   C2723301   5.064   2.960  13.410  0.2660  0.4195  0.0367
  189DOPC   H7R23302   4.982   3.031  13.385 -0.7533 -0.7899 -0.2121
  189DOPC   H7S23303   5.159   3.006  13.376  0.4384 -0.0093 -0.0663
  189DOPC   C2823304   5.057   2.922  13.563 -0.2845  0.2978 -0.2326
  189DOPC   H8R23305   5.077   3.019  13.614  1.0106 -0.5111  0.8712
  189DOPC   H8S23306   5.139   2.852  13.592 -0.8672  0.8003  3.0876
  189DOPC   C2923307   4.930   2.859  13.617  0.2510 -0.0742 -0.3714
  189DOPC   H9R23308   4.879   2.778  13.562 -1.0580 -2.3282  3.7531
  189DOPC  C21023309   4.894   2.865  13.746  0.2029  1.0211  0.2264
  189DOPC  H10R23310   4.808   2.808  13.785  2.0197 -2.1893 -0.0738
  189DOPC  C21123311   4.960   2.943  13.854 -0.4895 -0.0673  0.0773
  189DOPC  H11R23312   4.892   3.029  13.874 -3.1176 -2.2876  1.3079
  189DOPC  H11S23313   5.060   2.980  13.822 -0.5300 -0.1904 -0.1961
  189DOPC  C21223314   4.976   2.853  13.986  0.6022  0.6997  0.4581
  189DOPC  H12R23315   5.043   2.772  13.951 -0.7304  0.8302 -2.7193
  189DOPC  H12S23316   4.875   2.812  14.009  0.8375 -0.5013 -0.5777
  189DOPC  C21323317   5.035   2.923  14.109 -0.1392 -1.3671 -0.0654
  189DOPC  H13R23318   4.991   3.020  14.137 -1.7890 -2.0455 -0.1892
  189DOPC  H13S23319   5.143   2.940  14.085 -0.2224  1.5517  1.2819
  189DOPC  C21423320   5.033   2.834  14.230 -0.9029  0.3304 -0.9100
  189DOPC  H14R23321   5.103   2.747  14.226  1.8073  2.1650  1.9336
  189DOPC  H14S23322   4.932   2.788  14.234 -0.8050 -0.0297 -2.1003
  189DOPC  C21523323   5.052   2.912  14.359  0.5897 -0.1255 -0.2667
  189DOPC  H15R23324   5.012   3.013  14.339 -1.2702 -1.0403 -1.4248
  189DOPC  H15S23325   5.159   2.940  14.374  0.3425  0.2037  1.0027
  189DOPC  C21623326   4.984   2.836  14.476 -0.0070 -0.1237  0.7465
  189DOPC  H16R23327   5.030   2.737  14.499  0.6289 -0.0124 -0.0125
  189DOPC  H16S23328   4.879   2.817  14.444 -0.2359  0.6413  1.0354
  189DOPC  C21723329   4.969   2.908  14.608 -0.1119 -0.0694  0.1080
  189DOPC  H17R23330   4.878   2.971  14.603 -0.6316 -0.8260 -0.0228
  189DOPC  H17S23331   5.061   2.968  14.628  2.5606 -3.2876 -1.5009
  189DOPC  C21823332   4.952   2.804  14.722 -0.4708 -1.2881 -0.2486
  189DOPC  H18R23333   5.039   2.736  14.738  0.0165 -0.4588  0.7800
  189DOPC  H18S23334   4.863   2.738  14.712 -1.0444 -0.5162 -0.2973
  189DOPC  H18T23335   4.930   2.860  14.815  0.3039 -0.6351 -0.4461
  189DOPC   C3323336   4.787   2.395  13.487  1.2929 -0.4438  0.1953
  189DOPC   H3X23337   4.823   2.290  13.488  2.2619 -0.1378 -0.6466
  189DOPC   H3Y23338   4.678   2.380  13.470  0.7952  2.1316  0.7465
  189DOPC   C3423339   4.830   2.456  13.624 -0.4076 -0.7494  0.8567
  189DOPC   H4X23340   4.797   2.562  13.632  0.5493 -0.4583  1.0401
  189DOPC   H4Y23341   4.941   2.454  13.632 -0.2908  0.4826 -0.0412
  189DOPC   C3523342   4.773   2.380  13.738  0.0590 -0.0297 -0.4238
  189DOPC   H5X23343   4.803   2.273  13.740 -0.2356 -0.1143  1.7325
  189DOPC   H5Y23344   4.662   2.382  13.733  0.0349  1.7994  0.1817
  189DOPC   C3623345   4.821   2.436  13.875 -0.5630  0.2785 -0.4606
  189DOPC   H6X23346   4.932   2.437  13.878 -0.4889 -2.1253 -0.5273
  189DOPC   H6Y23347   4.789   2.541  13.892 -0.0978  0.1648  1.2737
  189DOPC   C3723348   4.762   2.367  13.995 -0.0203  0.4341 -0.0993
  189DOPC   H7X23349   4.651   2.375  13.995 -0.3590 -2.6811  1.0543
  189DOPC   H7Y23350   4.763   2.256  13.994  0.2226  0.3208  3.1928
  189DOPC   C3823351   4.803   2.429  14.128 -0.1431  0.6054  0.2558
  189DOPC   H8X23352   4.729   2.391  14.202 -2.6747  1.6642 -1.5979
  189DOPC   H8Y23353   4.792   2.539  14.134  2.4121  0.8468  2.1330
  189DOPC   C3923354   4.953   2.400  14.165  1.0566 -0.5045  0.0574
  189DOPC   H9X23355   5.019   2.380  14.079  0.7125  0.0516 -0.3465
  189DOPC  C31023356   5.007   2.401  14.292  1.1042 -0.1000 -0.3519
  189DOPC  H10X23357   5.115   2.389  14.305  0.9863 -0.7516  0.0795
  189DOPC  C31123358   4.930   2.451  14.409 -0.5732 -0.0079  0.0523
  189DOPC  H11X23359   4.821   2.469  14.391 -0.7770 -0.4030  0.8267
  189DOPC  H11Y23360   4.964   2.548  14.451  2.8697 -1.2498  0.4268
  189DOPC  C31223361   4.928   2.359  14.525  0.0715 -0.0755 -0.5525
  189DOPC  H12X23362   5.031   2.322  14.547 -0.5563 -1.5633 -0.0522
  189DOPC  H12Y23363   4.867   2.268  14.509  0.4632 -0.4776  0.1738
  189DOPC  C31323364   4.895   2.440  14.655  0.2287  0.0685 -0.3449
  189DOPC  H13X23365   4.987   2.493  14.686 -0.3678 -0.4093  2.6491
  189DOPC  H13Y23366   4.816   2.517  14.640 -1.7220 -1.2885  2.0438
  189DOPC  C31423367   4.855   2.358  14.781  0.8472 -0.2437  0.0387
  189DOPC  H14X23368   4.840   2.430  14.865 -0.3722 -1.2862  0.7589
  189DOPC  H14Y23369   4.749   2.327  14.772 -0.2875  3.1814  0.1169
  189DOPC  C31523370   4.957   2.255  14.830  0.8650 -0.1948 -0.1745
  189DOPC  H15X23371   5.055   2.299  14.855  0.0947  0.9627  0.8717
  189DOPC  H15Y23372   4.969   2.182  14.747  0.6396 -1.8624  1.2051
  189DOPC  C31623373   4.907   2.178  14.953 -0.9017 -0.2046 -0.0150
  189DOPC  H16X23374   4.811   2.132  14.920  0.0322 -1.3339 -1.2351
  189DOPC  H16Y23375   4.973   2.091  14.973 -0.1742  0.0653 -1.1596
  189DOPC  C31723376   4.880   2.251  15.083 -0.1598 -0.5926 -0.3573
  189DOPC  H17X23377   4.812   2.337  15.067  0.2985  0.2671  1.9842
  189DOPC  H17Y23378   4.826   2.187  15.155 -0.7927 -1.5692 -1.6494
  189DOPC  C31823379   5.013   2.293  15.156 -0.2509 -0.3705 -0.0031
  189DOPC  H18X23380   5.075   2.357  15.090  0.1273 -2.3255 -1.6387
  189DOPC  H18Y23381   5.010   2.350  15.251 -0.4913 -1.0783  0.4237
  189DOPC  H18Z23382   5.078   2.211  15.192  0.6189  1.1683  2.0660
  190DOPC     N23383   6.065   4.306  12.811  0.0829  0.2699 -0.8290
  190DOPC   C1223384   6.043   4.158  12.820 -0.0225  0.1235 -0.1866
  190DOPC  H12A23385   6.104   4.115  12.742 -1.1300  0.9292 -1.5412
  190DOPC  H12B23386   5.940   4.134  12.796  0.7812 -2.0493 -1.7741
  190DOPC   C1323387   6.017   4.374  12.696  0.1441  0.1957  0.1434
  190DOPC  H13A23388   5.910   4.365  12.686 -0.1963 -0.1650  3.3015
  190DOPC  H13B23389   6.032   4.481  12.696 -1.1577  0.4154 -1.0706
  190DOPC  H13C23390   6.055   4.342  12.600 -2.2900 -1.5540 -0.3292
  190DOPC   C1423391   6.212   4.333  12.835  0.6637 -0.6166  0.2816
  190DOPC  H14A23392   6.269   4.274  12.765 -0.1420  0.5692 -1.4100
  190DOPC  H14B23393   6.235   4.439  12.835 -0.0455 -0.4561 -0.0798
  190DOPC  H14C23394   6.238   4.304  12.936 -1.0289 -1.5714  0.4651
  190DOPC   C1523395   5.992   4.370  12.925 -0.3732  0.7708 -0.0551
  190DOPC  H15A23396   6.038   4.324  13.012 -0.5760 -0.2685 -0.4838
  190DOPC  H15B23397   5.887   4.346  12.929 -0.6264  1.9008  0.5862
  190DOPC  H15C23398   6.002   4.477  12.934 -1.1270  0.8826 -0.5089
  190DOPC   C1123399   6.070   4.069  12.943 -0.0523  0.1229  0.4560
  190DOPC  H11A23400   6.021   4.092  13.040  1.0317  0.6869  0.8935
  190DOPC  H11B23401   6.031   3.967  12.921 -1.4359  0.4630  1.2055
  190DOPC     P23402   6.304   3.968  12.885 -0.1440 -0.1489  0.1949
  190DOPC   O1323403   6.443   4.009  12.888  0.0227  0.1085  0.1710
  190DOPC   O1423404   6.242   3.935  12.754  0.0431 -0.1819  0.0715
  190DOPC   O1223405   6.213   4.063  12.968  0.2467  0.1813  0.2922
  190DOPC   O1123406   6.291   3.838  12.958 -0.1903 -0.3028  0.2071
  190DOPC    C123407   6.296   3.817  13.101 -0.1705  0.1903  0.6419
  190DOPC    HA23408   6.358   3.893  13.154  2.2588 -0.6639 -0.8537
  190DOPC    HB23409   6.357   3.727  13.125  1.0518  0.8243  0.0078
  190DOPC    C223410   6.150   3.798  13.167 -0.5043  0.0621  0.4338
  190DOPC    HS23411   6.101   3.898  13.163  1.2254  0.9361 -1.3901
  190DOPC   O2123412   6.177   3.760  13.302  0.1519 -0.3129  0.2278
  190DOPC   C2123413   6.215   3.860  13.385  0.1080 -0.3841  0.0677
  190DOPC   O2223414   6.243   3.977  13.357  0.6167  0.2982  1.0408
  190DOPC   C2223415   6.206   3.813  13.531 -0.2840  0.1228  0.3299
  190DOPC   H2R23416   6.311   3.795  13.564  0.6553  1.1747 -1.8680
  190DOPC   H2S23417   6.165   3.710  13.535  1.4999 -0.5903  2.3382
  190DOPC    C323418   6.070   3.696  13.095 -0.2793  0.1583 -0.1787
  190DOPC    HX23419   6.128   3.602  13.110 -1.5605 -0.4437  1.2428
  190DOPC    HY23420   6.071   3.711  12.985  2.7487 -0.5565 -0.3346
  190DOPC   O3123421   5.933   3.694  13.137  0.2385 -0.3231 -0.3353
  190DOPC   C3123422   5.863   3.603  13.080  0.9324  0.0231 -0.2135
  190DOPC   O3223423   5.904   3.526  12.995  0.1844  0.2566 -0.0762
  190DOPC   C3223424   5.718   3.614  13.135  0.3612  0.6184 -0.0048
  190DOPC   H2X23425   5.695   3.709  13.187 -1.1086 -1.9435  4.6859
  190DOPC   H2Y23426   5.659   3.609  13.041 -0.7307  1.8504  0.5885
  190DOPC   C2323427   6.127   3.910  13.630  0.5042  0.3456  0.6503
  190DOPC   H3R23428   6.032   3.941  13.582 -1.1760 -3.8317  0.8717
  190DOPC   H3S23429   6.189   4.001  13.645 -1.4685  1.7000  1.0792
  190DOPC   C2423430   6.115   3.842  13.769  0.0412  0.5320 -0.3398
  190DOPC   H4R23431   6.217   3.852  13.812  0.8887  0.3004 -2.2061
  190DOPC   H4S23432   6.082   3.738  13.748  0.5444  0.6190 -1.6482
  190DOPC   C2523433   6.000   3.896  13.851  0.5125 -0.8454  0.3092
  190DOPC   H5R23434   5.907   3.892  13.791  0.6724  0.3908 -0.0344
  190DOPC   H5S23435   6.018   4.005  13.863  1.5338 -0.7065 -1.9687
  190DOPC   C2623436   5.989   3.830  13.992  0.3074  0.5954  0.1290
  190DOPC   H6R23437   6.080   3.858  14.050  0.7671 -0.3291 -0.1326
  190DOPC   H6S23438   5.989   3.720  13.979  0.1185  0.7822 -1.8534
  190DOPC   C2723439   5.873   3.885  14.079 -0.8202 -0.0743  0.5440
  190DOPC   H7R23440   5.783   3.867  14.016 -0.2586  1.3789 -0.7406
  190DOPC   H7S23441   5.879   3.995  14.096 -0.2855 -0.1126  0.6288
  190DOPC   C2823442   5.847   3.817  14.210  0.6650  0.3195 -0.3475
  190DOPC   H8R23443   5.857   3.708  14.191 -1.2924  0.0481 -0.0355
  190DOPC   H8S23444   5.739   3.840  14.216  0.0485 -1.8881 -1.9486
  190DOPC   C2923445   5.950   3.877  14.313 -0.7605  0.6582 -0.1849
  190DOPC   H9R23446   5.979   3.982  14.304  0.6639  0.3250  0.3428
  190DOPC  C21023447   6.007   3.803  14.412  0.5107  0.3970  0.4025
  190DOPC  H10R23448   6.079   3.862  14.471  0.5217  1.6352 -0.7875
  190DOPC  C21123449   5.989   3.663  14.452  0.5279  0.4841 -0.2718
  190DOPC  H11R23450   6.090   3.621  14.473  0.1646 -1.2561 -1.8094
  190DOPC  H11S23451   5.942   3.599  14.374 -1.4923 -0.6307  1.7510
  190DOPC  C21223452   5.892   3.635  14.572  0.2376 -0.1828  0.4958
  190DOPC  H12R23453   5.840   3.537  14.566 -0.9170  0.4817 -1.0711
  190DOPC  H12S23454   5.812   3.712  14.569 -0.3106 -0.7467  0.4043
  190DOPC  C21323455   5.969   3.633  14.708  0.2270  0.0575  0.0725
  190DOPC  H13R23456   6.048   3.710  14.693  0.1284  0.0857 -0.3350
  190DOPC  H13S23457   6.020   3.535  14.710 -1.6822 -0.9553  1.5035
  190DOPC  C21423458   5.886   3.658  14.836 -0.0119 -0.8261  0.1557
  190DOPC  H14R23459   5.820   3.572  14.860 -1.5399  0.4320  0.6570
  190DOPC  H14S23460   5.826   3.751  14.822 -0.9212 -1.2242  1.2756
  190DOPC  C21523461   5.984   3.683  14.951  0.0916 -0.5424 -0.9405
  190DOPC  H15R23462   6.044   3.776  14.941 -0.4079  0.1827  1.9681
  190DOPC  H15S23463   6.057   3.599  14.952 -0.8848 -1.4753  1.7513
  190DOPC  C21623464   5.915   3.692  15.090 -0.1382  0.2995 -0.2102
  190DOPC  H16R23465   5.991   3.700  15.171 -1.2685  1.8125  0.7523
  190DOPC  H16S23466   5.855   3.600  15.107 -0.8765  0.7832 -0.1089
  190DOPC  C21723467   5.817   3.810  15.106  0.5646  0.2041  0.0950
  190DOPC  H17R23468   5.764   3.806  15.203  0.6013 -1.1740  0.0697
  190DOPC  H17S23469   5.733   3.801  15.034  1.2986 -0.6062 -0.6817
  190DOPC  C21823470   5.889   3.939  15.079  0.6915 -0.1953 -0.4577
  190DOPC  H18R23471   5.980   3.948  15.142  0.9730 -1.0856 -0.7210
  190DOPC  H18S23472   5.816   4.015  15.113  0.4011 -1.0730  0.9826
  190DOPC  H18T23473   5.897   3.963  14.971 -0.7917  0.3341 -0.4679
  190DOPC   C3323474   5.682   3.491  13.220 -0.5420  0.0536 -0.2955
  190DOPC   H3X23475   5.686   3.399  13.159  0.1693 -0.4701  0.5074
  190DOPC   H3Y23476   5.573   3.499  13.240 -0.0589  1.1669  2.3830
  190DOPC   C3423477   5.762   3.474  13.351  0.5751  0.4579  0.1715
  190DOPC   H4X23478   5.865   3.446  13.320 -0.4511 -2.4816 -1.0067
  190DOPC   H4Y23479   5.718   3.383  13.399 -1.2791  0.4484 -1.4063
  190DOPC   C3523480   5.751   3.592  13.443 -0.2099  0.2197  0.0994
  190DOPC   H5X23481   5.647   3.626  13.461 -0.1450  0.6811 -0.3725
  190DOPC   H5Y23482   5.794   3.681  13.392  1.7199  0.7180  2.4120
  190DOPC   C3623483   5.794   3.568  13.587  0.6329 -0.2899 -0.4494
  190DOPC   H6X23484   5.880   3.497  13.594  0.7560 -0.0184  1.2373
  190DOPC   H6Y23485   5.814   3.664  13.639  0.6224  0.1378 -1.2203
  190DOPC   C3723486   5.680   3.508  13.673 -0.8007  0.6666 -0.0375
  190DOPC   H7X23487   5.583   3.563  13.666 -2.5830 -2.2947 -0.2260
  190DOPC   H7Y23488   5.661   3.412  13.622  0.4817  0.6906 -0.5823
  190DOPC   C3823489   5.721   3.491  13.821  0.1455  0.4427  0.2089
  190DOPC   H8X23490   5.774   3.579  13.864  0.9152 -0.7708  1.8651
  190DOPC   H8Y23491   5.805   3.419  13.830  0.7862  0.9107 -1.6303
  190DOPC   C3923492   5.597   3.441  13.894 -0.6603 -0.1614 -0.5916
  190DOPC   H9X23493   5.530   3.379  13.833 -1.8561  0.5438 -0.0236
  190DOPC  C31023494   5.571   3.467  14.023  0.5615 -0.2723  0.0261
  190DOPC  H10X23495   5.488   3.411  14.069 -0.0955  1.6277  1.2638
  190DOPC  C31123496   5.662   3.539  14.113  0.5134  0.3542  0.3661
  190DOPC  H11X23497   5.646   3.649  14.109  2.2185  0.6079 -1.2749
  190DOPC  H11Y23498   5.768   3.524  14.082  0.5539  0.4277  0.4687
  190DOPC  C31223499   5.647   3.490  14.259 -0.7451  0.4701 -0.2389
  190DOPC  H12X23500   5.735   3.541  14.304 -0.6400  1.2595 -1.3052
  190DOPC  H12Y23501   5.653   3.380  14.275  0.0393  0.4792 -0.4610
  190DOPC  C31323502   5.519   3.534  14.317  0.2049 -0.4916 -0.7988
  190DOPC  H13X23503   5.472   3.628  14.282 -2.2314 -1.5282 -0.5258
  190DOPC  H13Y23504   5.443   3.458  14.288 -0.9695  0.4035 -0.1170
  190DOPC  C31423505   5.539   3.531  14.474 -0.2722  0.6124  0.1376
  190DOPC  H14X23506   5.588   3.432  14.482 -1.1991  0.0079 -1.2467
  190DOPC  H14Y23507   5.605   3.612  14.511 -0.8716  1.6026 -0.8758
  190DOPC  C31523508   5.410   3.539  14.557  0.6668  1.5078 -0.2944
  190DOPC  H15X23509   5.351   3.453  14.521  0.3921  1.7532 -0.4396
  190DOPC  H15Y23510   5.355   3.634  14.539 -2.5888 -0.0353  0.8851
  190DOPC  C31623511   5.447   3.516  14.708 -0.1084  0.2564 -0.6800
  190DOPC  H16X23512   5.361   3.482  14.770  0.0313  0.6098 -0.2882
  190DOPC  H16Y23513   5.526   3.439  14.720  0.3607  0.7714 -0.3994
  190DOPC  C31723514   5.494   3.648  14.769  1.1848 -0.0355 -0.0905
  190DOPC  H17X23515   5.578   3.688  14.709 -0.3959  1.5242 -1.3841
  190DOPC  H17Y23516   5.419   3.726  14.746  0.8092 -1.5791 -5.4575
  190DOPC  C31823517   5.519   3.630  14.920  1.2052  0.2371 -0.3251
  190DOPC  H18X23518   5.617   3.591  14.952  0.0644 -0.8896  2.1353
  190DOPC  H18Y23519   5.512   3.733  14.964 -0.4218  0.4853 -1.0575
  190DOPC  H18Z23520   5.438   3.575  14.973  1.2833  0.0624 -0.3880
  191DOPC     N23521   6.309   1.381  12.850  0.0663 -0.3323  0.1114
  191DOPC   C1223522   6.176   1.326  12.876  0.1411  0.4290 -0.3635
  191DOPC  H12A23523   6.159   1.227  12.838 -1.0007 -0.1153  1.4247
  191DOPC  H12B23524   6.101   1.377  12.817 -1.0466 -0.4041  0.3652
  191DOPC   C1323525   6.321   1.522  12.903  0.1890  0.2768  0.4022
  191DOPC  H13A23526   6.419   1.567  12.902  0.0722  0.5737  1.2739
  191DOPC  H13B23527   6.253   1.586  12.850 -0.3958 -0.9022 -0.3254
  191DOPC  H13C23528   6.286   1.528  13.005  0.9628  2.1068  0.5929
  191DOPC   C1423529   6.339   1.375  12.703 -0.4077  0.1438  0.0938
  191DOPC  H14A23530   6.437   1.409  12.671 -0.7496 -1.0406 -2.4483
  191DOPC  H14B23531   6.329   1.274  12.666  0.6103  0.4664 -1.1521
  191DOPC  H14C23532   6.259   1.425  12.652 -0.8834 -1.7616 -1.1303
  191DOPC   C1523533   6.413   1.290  12.920 -0.1665 -0.3924  0.2814
  191DOPC  H15A23534   6.399   1.284  13.027 -0.7143 -2.6522  0.1273
  191DOPC  H15B23535   6.509   1.334  12.899 -0.8029  0.7811 -0.3302
  191DOPC  H15C23536   6.409   1.195  12.870  2.8055 -0.6540  0.3728
  191DOPC   C1123537   6.132   1.315  13.029  0.5318  0.2527 -0.6267
  191DOPC  H11A23538   6.157   1.408  13.084  0.1468  0.8767 -1.4863
  191DOPC  H11B23539   6.022   1.307  13.042  0.6051  1.8051  1.3469
  191DOPC     P23540   6.162   1.064  13.099  0.3275 -0.1797 -0.1486
  191DOPC   O1323541   6.259   0.998  13.188  0.4385 -0.8712  0.1618
  191DOPC   O1423542   6.144   0.998  12.969  0.0144  0.3419  0.6696
  191DOPC   O1223543   6.202   1.210  13.086 -0.6157 -0.2082  0.6500
  191DOPC   O1123544   6.018   1.075  13.164  1.2393  0.5861  0.2898
  191DOPC    C123545   5.986   1.172  13.278 -0.1034 -0.2867  0.8587
  191DOPC    HA23546   5.877   1.194  13.268  0.2114  0.8323 -0.4616
  191DOPC    HB23547   6.044   1.267  13.275 -0.9696  0.2376 -0.1471
  191DOPC    C223548   5.994   1.108  13.420  0.2711 -0.1169  0.5085
  191DOPC    HS23549   5.922   1.153  13.492  0.1344 -0.8565  0.8480
  191DOPC   O2123550   6.130   1.110  13.468  0.4807 -0.4772 -0.7966
  191DOPC   C2123551   6.187   1.233  13.499  0.0745  0.0795  0.4225
  191DOPC   O2223552   6.122   1.335  13.502  0.3375 -0.6476 -0.1301
  191DOPC   C2223553   6.334   1.214  13.527 -0.6493 -0.1340  0.0882
  191DOPC   H2R23554   6.380   1.202  13.426 -0.6120 -0.0412  0.0934
  191DOPC   H2S23555   6.354   1.116  13.577  3.6435 -0.2493 -1.4552
  191DOPC    C323556   5.947   0.968  13.414  0.2641  0.5280 -0.8195
  191DOPC    HX23557   6.028   0.920  13.356 -0.3742 -2.4794  0.5916
  191DOPC    HY23558   5.852   0.953  13.358 -1.5849  1.5319  1.8417
  191DOPC   O3123559   5.937   0.916  13.547  0.0381  0.2427 -0.1217
  191DOPC   C3123560   6.031   0.827  13.576 -0.6349 -0.0699  0.5470
  191DOPC   O3223561   6.131   0.805  13.506  0.4125  0.1203  0.0317
  191DOPC   C3223562   6.020   0.765  13.713  0.5894 -0.2949 -0.0710
  191DOPC   H2X23563   5.918   0.793  13.746 -0.3209 -2.0292 -1.2556
  191DOPC   H2Y23564   6.018   0.654  13.710  0.2512 -0.3019  0.2966
  191DOPC   C2323565   6.416   1.329  13.599  0.2158  0.3315  0.4335
  191DOPC   H3R23566   6.384   1.426  13.557 -0.1868  0.4836  1.0824
  191DOPC   H3S23567   6.526   1.317  13.588  0.0275 -0.8591 -0.3688
  191DOPC   C2423568   6.380   1.341  13.754  0.1987  0.4191 -0.4345
  191DOPC   H4R23569   6.412   1.253  13.814 -0.6493  0.0736 -0.4711
  191DOPC   H4S23570   6.269   1.339  13.755  0.1050 -2.1879  2.7060
  191DOPC   C2523571   6.428   1.477  13.820  0.2488 -0.2261 -0.3684
  191DOPC   H5R23572   6.377   1.563  13.773 -0.1374 -0.8193 -1.0679
  191DOPC   H5S23573   6.535   1.501  13.799 -0.7326  3.8760 -1.5118
  191DOPC   C2623574   6.392   1.503  13.973  0.5082  0.9183  0.4454
  191DOPC   H6R23575   6.282   1.496  13.986  0.3585 -0.6644 -1.3113
  191DOPC   H6S23576   6.421   1.609  13.989  0.9443  1.2003 -1.8817
  191DOPC   C2723577   6.458   1.402  14.074  0.3052 -0.0018  0.8101
  191DOPC   H7R23578   6.566   1.384  14.054  0.4696  0.0368  1.6060
  191DOPC   H7S23579   6.410   1.307  14.041  1.8703 -1.0696  1.4715
  191DOPC   C2823580   6.434   1.425  14.220 -0.1282  0.3186  0.3712
  191DOPC   H8R23581   6.460   1.328  14.268  0.8824  0.0768 -0.5979
  191DOPC   H8S23582   6.328   1.451  14.240  0.1734  3.1187 -1.2170
  191DOPC   C2923583   6.525   1.538  14.268  0.5011  0.2727 -0.2379
  191DOPC   H9R23584   6.604   1.569  14.198  0.2788 -0.7177 -0.9575
  191DOPC  C21023585   6.518   1.594  14.388 -0.6057  0.0826 -0.4041
  191DOPC  H10R23586   6.581   1.682  14.408 -2.4196  1.1365  1.0203
  191DOPC  C21123587   6.419   1.555  14.496  0.6030 -0.9390  0.2472
  191DOPC  H11R23588   6.362   1.467  14.462  0.6989 -0.2880 -1.7474
  191DOPC  H11S23589   6.344   1.637  14.507  0.0979 -1.3390 -0.1841
  191DOPC  C21223590   6.483   1.535  14.632 -0.3733  0.7404 -0.3510
  191DOPC  H12R23591   6.562   1.608  14.661  0.2662 -0.1073  0.0909
  191DOPC  H12S23592   6.532   1.435  14.618  0.3628  0.9990  0.2833
  191DOPC  C21323593   6.373   1.517  14.733 -0.1663 -0.0449  0.3316
  191DOPC  H13R23594   6.280   1.474  14.690  0.9679  0.1781 -2.5797
  191DOPC  H13S23595   6.351   1.617  14.776 -0.8657 -0.6205  1.3471
  191DOPC  C21423596   6.405   1.425  14.848  0.4209  0.1006 -0.7302
  191DOPC  H14R23597   6.399   1.321  14.809 -0.8380  0.3519 -1.2824
  191DOPC  H14S23598   6.320   1.438  14.918 -0.1043 -1.4508 -1.0288
  191DOPC  C21523599   6.544   1.451  14.907 -0.2603 -0.6970 -0.7251
  191DOPC  H15R23600   6.553   1.558  14.936 -0.1715 -0.9430  0.1821
  191DOPC  H15S23601   6.623   1.430  14.833  1.3853  0.1124  0.7228
  191DOPC  C21623602   6.579   1.363  15.027  0.1904 -0.1058  0.0145
  191DOPC  H16R23603   6.685   1.334  15.011  0.0564  0.3088 -1.8029
  191DOPC  H16S23604   6.509   1.277  15.015  1.7332 -1.2324 -1.3035
  191DOPC  C21723605   6.557   1.437  15.166 -0.4644  0.7395  0.1544
  191DOPC  H17R23606   6.450   1.464  15.170 -1.0388 -1.4744  1.1564
  191DOPC  H17S23607   6.608   1.536  15.165  1.7779 -0.3042  1.8881
  191DOPC  C21823608   6.594   1.341  15.283 -0.2723 -0.2382 -0.4202
  191DOPC  H18R23609   6.703   1.322  15.286 -0.1653  0.4944  1.6654
  191DOPC  H18S23610   6.535   1.247  15.275 -0.1589 -0.7092  2.9153
  191DOPC  H18T23611   6.552   1.373  15.381  0.4689 -1.6535  0.4035
  191DOPC   C3323612   6.125   0.817  13.808  0.0342 -0.8647  0.4065
  191DOPC   H3X23613   6.225   0.790  13.766 -1.4260 -2.2752 -2.5082
  191DOPC   H3Y23614   6.121   0.757  13.901  0.9884 -4.4182 -1.6105
  191DOPC   C3423615   6.120   0.972  13.844 -0.8134 -0.1807  0.4434
  191DOPC   H4X23616   6.019   1.008  13.875 -0.5546  0.8608  0.1196
  191DOPC   H4Y23617   6.151   1.029  13.754 -1.2680 -0.7763 -0.1023
  191DOPC   C3523618   6.224   1.010  13.945  0.5173 -0.4641  0.1847
  191DOPC   H5X23619   6.253   1.115  13.923  0.2720 -0.5576 -0.6457
  191DOPC   H5Y23620   6.319   0.959  13.917  0.4546  0.1492 -1.2390
  191DOPC   C3623621   6.180   0.985  14.086  0.1881 -0.1042  0.2790
  191DOPC   H6X23622   6.072   1.005  14.108  0.2837  1.0067 -0.2143
  191DOPC   H6Y23623   6.187   0.875  14.101  0.9936  0.0990  1.5013
  191DOPC   C3723624   6.277   1.049  14.184  0.5049 -0.2678 -1.2239
  191DOPC   H7X23625   6.380   1.018  14.157  0.3665 -1.4099 -0.5031
  191DOPC   H7Y23626   6.268   1.160  14.172 -0.5540 -0.4883 -2.8866
  191DOPC   C3823627   6.239   1.006  14.329  0.0383 -0.6569  0.6134
  191DOPC   H8X23628   6.235   0.895  14.331 -1.8639 -0.6770 -1.2442
  191DOPC   H8Y23629   6.135   1.044  14.336  0.7287  3.0322 -4.0423
  191DOPC   C3923630   6.319   1.060  14.444 -0.2035  0.4696  0.3424
  191DOPC   H9X23631   6.347   1.166  14.431 -0.3786  0.3540 -1.2002
  191DOPC  C31023632   6.368   0.999  14.561  0.2094  0.4483  0.1316
  191DOPC  H10X23633   6.430   1.059  14.629 -0.0128 -0.1470  0.8765
  191DOPC  C31123634   6.339   0.853  14.612 -0.6327 -1.1481  0.0949
  191DOPC  H11X23635   6.268   0.803  14.542  0.5708 -2.7598 -0.0245
  191DOPC  H11Y23636   6.291   0.856  14.712  2.2923  0.7691  1.5573
  191DOPC  C31223637   6.472   0.772  14.628  0.4678 -0.5423  0.4925
  191DOPC  H12X23638   6.518   0.769  14.527  0.0879 -3.3081  0.3027
  191DOPC  H12Y23639   6.446   0.669  14.662 -0.0650 -0.6346 -0.1753
  191DOPC  C31323640   6.571   0.834  14.727 -0.8091  0.2356 -0.2890
  191DOPC  H13X23641   6.668   0.790  14.696 -2.0657 -2.0576 -1.2677
  191DOPC  H13Y23642   6.590   0.940  14.698 -0.9734  0.6964  1.1944
  191DOPC  C31423643   6.542   0.820  14.872  0.3965  0.3245  0.9940
  191DOPC  H14X23644   6.442   0.865  14.891  0.5593  0.8492  0.6183
  191DOPC  H14Y23645   6.532   0.710  14.886 -2.4047  0.0577 -1.8541
  191DOPC  C31523646   6.653   0.881  14.959 -0.1786 -0.6037  0.3786
  191DOPC  H15X23647   6.682   0.980  14.916  1.1505 -1.6572 -1.2726
  191DOPC  H15Y23648   6.742   0.814  14.955  0.4553 -0.4169  5.1768
  191DOPC  C31623649   6.607   0.879  15.103  0.2866  0.0278  0.0960
  191DOPC  H16X23650   6.515   0.940  15.117  0.7952  1.3183 -1.7842
  191DOPC  H16Y23651   6.593   0.771  15.125  1.2018 -0.6940 -2.4815
  191DOPC  C31723652   6.706   0.929  15.206  0.2881  0.2645  0.3311
  191DOPC  H17X23653   6.807   0.881  15.205  0.5578  0.5174 -4.0339
  191DOPC  H17Y23654   6.730   1.027  15.160 -1.2131  0.2529 -0.5094
  191DOPC  C31823655   6.642   0.948  15.341 -0.2700 -0.3608 -0.0612
  191DOPC  H18X23656   6.704   1.006  15.414 -1.7841  1.0499  0.1727
  191DOPC  H18Y23657   6.556   1.017  15.329 -1.6955 -2.2756 -1.4515
  191DOPC  H18Z23658   6.601   0.858  15.392  0.3388 -0.1968  0.7558
  192DOPC     N23659   3.601   2.375  12.205  0.2257 -0.1005 -0.5741
  192DOPC   C1223660   3.631   2.393  12.358  0.2189 -0.4266  1.0585
  192DOPC  H12A23661   3.629   2.498  12.385 -1.3474 -0.4477  1.1301
  192DOPC  H12B23662   3.736   2.371  12.371  0.3679 -0.5110 -0.1543
  192DOPC   C1323663   3.474   2.452  12.187  0.1933  0.0862  0.5457
  192DOPC  H13A23664   3.444   2.431  12.086  1.5006  0.9393 -0.0460
  192DOPC  H13B23665   3.402   2.411  12.257 -0.8447  2.4762  0.9772
  192DOPC  H13C23666   3.495   2.556  12.208 -1.1460  0.1902  1.5230
  192DOPC   C1423667   3.590   2.235  12.161 -1.0807  0.3577 -0.1176
  192DOPC  H14A23668   3.679   2.176  12.176 -1.2072  0.1274 -0.2708
  192DOPC  H14B23669   3.518   2.184  12.223  0.3186 -2.9793 -1.0012
  192DOPC  H14C23670   3.545   2.217  12.065 -0.2586 -2.6482 -0.0503
  192DOPC   C1523671   3.707   2.442  12.126 -0.0304  0.1548 -0.0293
  192DOPC  H15A23672   3.710   2.542  12.165 -1.1403 -0.2612  1.2070
  192DOPC  H15B23673   3.673   2.441  12.023 -1.1337  0.1502  0.3191
  192DOPC  H15C23674   3.803   2.397  12.149 -0.1584 -0.3495 -0.4586
  192DOPC   C1123675   3.548   2.312  12.454 -0.4180 -0.0931  0.7714
  192DOPC  H11A23676   3.574   2.358  12.551  1.5378  0.6220 -0.0413
  192DOPC  H11B23677   3.442   2.340  12.433 -0.0069  1.3705  0.5298
  192DOPC     P23678   3.687   2.102  12.519 -0.3182 -0.0926  0.2126
  192DOPC   O1323679   3.801   2.195  12.513  0.4715  0.2144 -1.0858
  192DOPC   O1423680   3.711   1.965  12.464 -0.3579  0.5141 -0.5653
  192DOPC   O1223681   3.564   2.170  12.447 -0.2603  0.2684 -0.2741
  192DOPC   O1123682   3.646   2.087  12.668  0.0495 -0.4112 -0.2591
  192DOPC    C123683   3.505   2.083  12.710 -0.3217  1.3330 -0.4150
  192DOPC    HA23684   3.447   2.019  12.641  2.5556 -0.2459 -1.5275
  192DOPC    HB23685   3.456   2.183  12.713 -0.8753  1.0959  2.9248
  192DOPC    C223686   3.488   2.016  12.851 -0.2375 -0.1049 -0.8435
  192DOPC    HS23687   3.379   2.018  12.875  0.1730  1.3898  1.1296
  192DOPC   O2123688   3.548   2.094  12.960 -0.4054 -0.8515 -0.0018
  192DOPC   C2123689   3.540   2.228  12.978  0.9579  0.1295 -0.1462
  192DOPC   O2223690   3.467   2.301  12.912  0.2066 -0.5359  0.0213
  192DOPC   C2223691   3.624   2.273  13.105 -0.7689 -0.1438  0.8522
  192DOPC   H2R23692   3.626   2.383  13.119 -0.1332 -0.0112 -0.1609
  192DOPC   H2S23693   3.725   2.237  13.077  0.3778  3.4006 -0.1520
  192DOPC    C323694   3.543   1.864  12.864  0.2994  0.2742 -0.9139
  192DOPC    HX23695   3.642   1.860  12.813  0.6173 -2.5192 -0.2720
  192DOPC    HY23696   3.468   1.802  12.811 -2.7816  3.3552 -0.5346
  192DOPC   O3123697   3.556   1.829  13.009  0.0819  0.1377  0.0598
  192DOPC   C3123698   3.441   1.805  13.081  0.3346 -0.1328 -0.1414
  192DOPC   O3223699   3.331   1.795  13.031 -0.0819 -0.0364  0.2449
  192DOPC   C3223700   3.468   1.786  13.228  0.4732  0.2961 -0.2014
  192DOPC   H2X23701   3.539   1.700  13.229 -2.0844 -1.9571  1.9615
  192DOPC   H2Y23702   3.515   1.876  13.274  1.8225 -1.2400  1.5981
  192DOPC   C2323703   3.570   2.208  13.235  0.2493 -0.2089 -0.7006
  192DOPC   H3R23704   3.549   2.101  13.215  0.2262 -0.1714 -0.8788
  192DOPC   H3S23705   3.479   2.265  13.265  0.0536  0.1132 -1.8745
  192DOPC   C2423706   3.669   2.206  13.349 -0.9154 -0.0989 -0.4159
  192DOPC   H4R23707   3.697   2.312  13.362 -2.3426  0.0091  2.5734
  192DOPC   H4S23708   3.764   2.156  13.322 -1.2733 -1.3238  0.5068
  192DOPC   C2523709   3.621   2.146  13.482 -0.0866 -0.1553  0.3980
  192DOPC   H5R23710   3.623   2.035  13.472  2.4932 -0.1431  0.3159
  192DOPC   H5S23711   3.519   2.180  13.511  0.4788  0.4047  1.7683
  192DOPC   C2623712   3.728   2.196  13.589 -0.2210  0.6600 -0.2753
  192DOPC   H6R23713   3.701   2.298  13.624  1.8880  0.6480  1.6368
  192DOPC   H6S23714   3.824   2.203  13.533  0.5060 -1.3535  0.6427
  192DOPC   C2723715   3.739   2.096  13.702  0.6074  0.6991  0.0664
  192DOPC   H7R23716   3.788   2.004  13.663  0.0215  0.4847 -0.1794
  192DOPC   H7S23717   3.635   2.058  13.718  0.1334  0.3903 -3.1049
  192DOPC   C2823718   3.810   2.152  13.825 -0.0754 -0.1961 -0.3579
  192DOPC   H8R23719   3.906   2.202  13.799  0.8647 -1.4339  0.6088
  192DOPC   H8S23720   3.854   2.073  13.890 -1.7770 -2.0808 -1.3807
  192DOPC   C2923721   3.731   2.250  13.896 -0.2009 -0.1238 -0.4653
  192DOPC   H9R23722   3.740   2.350  13.851 -3.2816  1.5581  2.2158
  192DOPC  C21023723   3.647   2.228  13.990 -0.0508  0.1903 -0.3032
  192DOPC  H10R23724   3.590   2.312  14.033 -1.5469 -1.6682  1.5766
  192DOPC  C21123725   3.621   2.093  14.060  0.6733  0.4907  0.0303
  192DOPC  H11R23726   3.638   2.016  13.982 -2.5521 -0.3863  0.0408
  192DOPC  H11S23727   3.512   2.083  14.081  0.0550  0.7644 -2.6627
  192DOPC  C21223728   3.704   2.059  14.185 -0.3900 -0.5982 -0.7495
  192DOPC  H12R23729   3.815   2.067  14.178 -0.4022 -0.3190 -0.6569
  192DOPC  H12S23730   3.673   1.957  14.216  3.8496 -1.4007  1.5876
  192DOPC  C21323731   3.644   2.157  14.291  0.4552  0.5784  0.9924
  192DOPC  H13R23732   3.533   2.151  14.291  0.5285 -1.8495  1.5936
  192DOPC  H13S23733   3.674   2.263  14.276  2.9085  0.1805  2.3984
  192DOPC  C21423734   3.686   2.104  14.435 -0.7833  0.1972 -0.2683
  192DOPC  H14R23735   3.794   2.083  14.451 -0.4511  2.7721  1.3465
  192DOPC  H14S23736   3.644   2.001  14.443 -0.8298  0.3766  3.4356
  192DOPC  C21523737   3.632   2.189  14.548  0.0720 -0.0293 -0.2165
  192DOPC  H15R23738   3.521   2.197  14.557  0.0755  1.4197 -1.0460
  192DOPC  H15S23739   3.668   2.293  14.534  2.4089 -0.5545  1.4206
  192DOPC  C21623740   3.692   2.153  14.690 -0.3372  0.3055 -0.2783
  192DOPC  H16R23741   3.799   2.181  14.686  0.3855 -2.1225  0.4033
  192DOPC  H16S23742   3.685   2.044  14.712 -0.2946 -0.0146 -1.7153
  192DOPC  C21723743   3.622   2.231  14.797 -0.3050 -0.3475  0.4412
  192DOPC  H17R23744   3.515   2.202  14.809  0.3037 -1.8507  3.2657
  192DOPC  H17S23745   3.638   2.336  14.765 -1.7304 -0.0272  0.7047
  192DOPC  C21823746   3.693   2.212  14.925 -0.6466 -0.7417  0.7360
  192DOPC  H18R23747   3.704   2.106  14.957 -3.8026 -1.4934 -0.3345
  192DOPC  H18S23748   3.643   2.257  15.013  2.1637 -0.4588  2.3099
  192DOPC  H18T23749   3.794   2.260  14.925 -1.7240  1.6536  0.5943
  192DOPC   C3323750   3.355   1.735  13.315  0.0704 -1.0518  1.1114
  192DOPC   H3X23751   3.316   1.655  13.248  1.3853  1.2899 -2.7801
  192DOPC   H3Y23752   3.277   1.813  13.324  0.2591 -0.7321  0.1404
  192DOPC   C3423753   3.384   1.673  13.451  0.1185 -0.4939  0.3466
  192DOPC   H4X23754   3.458   1.590  13.445 -2.1361 -2.4995 -1.6498
  192DOPC   H4Y23755   3.291   1.628  13.492 -1.9108  2.2520 -0.9224
  192DOPC   C3523756   3.444   1.760  13.563  0.4241 -0.0489  0.5020
  192DOPC   H5X23757   3.367   1.839  13.582 -0.3320 -0.6949  0.1949
  192DOPC   H5Y23758   3.544   1.802  13.541 -0.4369  0.7602 -2.2676
  192DOPC   C3623759   3.468   1.677  13.689  0.0563 -0.4423  0.5371
  192DOPC   H6X23760   3.376   1.623  13.717  0.7813 -1.9051  0.2073
  192DOPC   H6Y23761   3.547   1.601  13.670 -0.5462 -0.6739 -1.1568
  192DOPC   C3723762   3.507   1.769  13.809  0.5612 -0.6252  0.2061
  192DOPC   H7X23763   3.593   1.838  13.793  2.9824 -3.6446 -0.9696
  192DOPC   H7Y23764   3.421   1.835  13.832  1.5252  1.2337 -1.2107
  192DOPC   C3823765   3.549   1.676  13.917  0.1418  0.5455 -0.2659
  192DOPC   H8X23766   3.615   1.727  13.991  3.3982 -1.2694 -1.6901
  192DOPC   H8Y23767   3.623   1.606  13.872 -0.2126 -0.6585  0.9604
  192DOPC   C3923768   3.448   1.588  13.989 -0.4486  0.4914  0.3998
  192DOPC   H9X23769   3.354   1.562  13.938 -1.3069  1.5152  1.4177
  192DOPC  C31023770   3.448   1.573  14.124 -0.8896 -0.0580  0.5137
  192DOPC  H10X23771   3.371   1.512  14.173 -1.3610  0.5306  0.5122
  192DOPC  C31123772   3.555   1.604  14.228 -0.3793 -0.4822 -0.0506
  192DOPC  H11X23773   3.656   1.614  14.184  0.2845  0.6353  1.6253
  192DOPC  H11Y23774   3.566   1.516  14.296  2.2108  1.5511  2.3811
  192DOPC  C31223775   3.536   1.725  14.321  0.0564 -0.3267 -0.0050
  192DOPC  H12X23776   3.536   1.819  14.262  1.8959 -1.0717 -1.2737
  192DOPC  H12Y23777   3.624   1.722  14.389  0.9574 -0.0856 -1.1195
  192DOPC  C31323778   3.419   1.714  14.423  0.1102 -0.1918 -0.4416
  192DOPC  H13X23779   3.329   1.741  14.365  0.6816  1.0435 -0.7821
  192DOPC  H13Y23780   3.410   1.612  14.466 -2.0812  0.1998  0.1312
  192DOPC  C31423781   3.432   1.813  14.548 -0.8897 -0.3337 -0.5384
  192DOPC  H14X23782   3.523   1.792  14.608 -1.6739 -1.2453  0.3617
  192DOPC  H14Y23783   3.442   1.914  14.503 -0.4341 -1.4566 -3.2115
  192DOPC  C31523784   3.311   1.805  14.649 -0.1427 -0.0887  0.1665
  192DOPC  H15X23785   3.302   1.700  14.685  0.7794 -0.0780  0.4497
  192DOPC  H15Y23786   3.225   1.846  14.591  1.1442  1.1024 -0.9827
  192DOPC  C31623787   3.342   1.900  14.767  0.1800 -0.3903 -0.1929
  192DOPC  H16X23788   3.378   2.000  14.734 -0.1471 -0.9385 -2.3592
  192DOPC  H16Y23789   3.239   1.916  14.804  0.1288  0.5424 -0.6950
  192DOPC  C31723790   3.419   1.849  14.892 -0.4332  0.0898 -0.1339
  192DOPC  H17X23791   3.517   1.816  14.851 -0.6861  0.5766 -1.1670
  192DOPC  H17Y23792   3.430   1.939  14.955 -0.1207 -0.1000  0.0890
  192DOPC  C31823793   3.347   1.738  14.963  0.0263  0.8078  0.0734
  192DOPC  H18X23794   3.415   1.705  15.044  3.5111  2.0267 -2.1545
  192DOPC  H18Y23795   3.254   1.780  15.007  0.1133 -0.3458  1.4014
  192DOPC  H18Z23796   3.325   1.648  14.902  3.5317 -0.0411 -0.1368
  193DOPC     N23797   2.481   3.696  13.114  0.6077  0.2323  0.0479
  193DOPC   C1223798   2.514   3.754  13.249  0.8606  0.6757  0.0101
  193DOPC  H12A23799   2.595   3.698  13.293  0.3686  1.3707  1.8681
  193DOPC  H12B23800   2.434   3.735  13.319 -0.3480  2.5646 -0.8089
  193DOPC   C1323801   2.588   3.737  13.015  0.3895 -0.1534  0.2880
  193DOPC  H13A23802   2.683   3.705  13.057 -1.4334  0.0478  5.1442
  193DOPC  H13B23803   2.565   3.688  12.921 -0.7266 -0.1122  0.5252
  193DOPC  H13C23804   2.574   3.843  13.004 -1.2950 -0.1796  1.7832
  193DOPC   C1423805   2.346   3.759  13.061  0.0592  0.2362 -0.2491
  193DOPC  H14A23806   2.303   3.708  12.977  0.1638  0.0372 -0.1811
  193DOPC  H14B23807   2.272   3.769  13.139 -1.1081 -2.1550 -0.9747
  193DOPC  H14C23808   2.383   3.858  13.036 -0.9809  1.4548  2.6332
  193DOPC   C1523809   2.467   3.549  13.122 -0.3903 -0.1900  0.3772
  193DOPC  H15A23810   2.483   3.514  13.021  1.1246 -0.9995  0.8577
  193DOPC  H15B23811   2.368   3.519  13.154 -0.9318  1.6848  0.5838
  193DOPC  H15C23812   2.550   3.512  13.180  0.8055  1.8156  0.0705
  193DOPC   C1123813   2.543   3.904  13.256 -0.1104 -0.2503  0.4438
  193DOPC  H11A23814   2.470   3.954  13.189 -0.0747  0.2187  0.7568
  193DOPC  H11B23815   2.524   3.936  13.361 -2.3204 -1.8116  0.5820
  193DOPC     P23816   2.809   3.881  13.302  0.4455 -0.1069  0.1612
  193DOPC   O1323817   2.920   3.969  13.263  0.2856 -0.1685  0.0487
  193DOPC   O1423818   2.820   3.738  13.266  0.6666 -0.0512  0.8032
  193DOPC   O1223819   2.682   3.938  13.222  0.7564 -0.3245  0.4967
  193DOPC   O1123820   2.782   3.896  13.458  0.2077 -0.2518  0.1185
  193DOPC    C123821   2.731   4.020  13.506  0.3442  0.0644 -0.8605
  193DOPC    HA23822   2.692   4.011  13.610 -0.2014  1.0751 -0.9597
  193DOPC    HB23823   2.649   4.069  13.450 -0.2021  1.7330  1.2539
  193DOPC    C223824   2.834   4.126  13.527  0.3732  0.1957 -0.6337
  193DOPC    HS23825   2.865   4.158  13.425 -0.5535 -0.1968 -1.0513
  193DOPC   O2123826   2.950   4.084  13.602  0.0982  0.2937 -0.3522
  193DOPC   C2123827   3.062   4.156  13.583  0.0178  0.7621  0.0006
  193DOPC   O2223828   3.067   4.259  13.523  0.3411  0.7515  0.0237
  193DOPC   C2223829   3.176   4.095  13.655 -0.1858 -0.2665  0.1196
  193DOPC   H2R23830   3.274   4.102  13.604 -0.0847 -0.1626  0.3258
  193DOPC   H2S23831   3.145   3.991  13.678  0.2820 -0.2386  0.9116
  193DOPC    C323832   2.767   4.253  13.589 -0.3589  0.1682 -0.1215
  193DOPC    HX23833   2.686   4.277  13.517 -1.8212 -0.4520  1.2631
  193DOPC    HY23834   2.838   4.339  13.590 -0.9093  0.7117  3.1035
  193DOPC   O3123835   2.708   4.220  13.711  0.2971 -1.1106 -0.8527
  193DOPC   C3123836   2.769   4.272  13.822 -0.0040 -0.8977  0.5421
  193DOPC   O3223837   2.867   4.341  13.824  0.5521  0.0321  0.2725
  193DOPC   C3223838   2.691   4.240  13.954  0.0700  1.2532 -0.3456
  193DOPC   H2X23839   2.626   4.326  13.981 -3.4889 -0.9792 -1.1257
  193DOPC   H2Y23840   2.624   4.154  13.936  2.0977 -0.5427  0.2617
  193DOPC   C2323841   3.188   4.157  13.799  0.0790  0.2324  0.2692
  193DOPC   H3R23842   3.091   4.186  13.844 -0.0299 -0.6088  0.5788
  193DOPC   H3S23843   3.256   4.245  13.794  1.5937 -0.9355 -0.7673
  193DOPC   C2423844   3.250   4.051  13.890  0.0604  0.0803  0.1588
  193DOPC   H4R23845   3.357   4.047  13.863  0.0957 -0.7281  0.4066
  193DOPC   H4S23846   3.210   3.948  13.881  1.6848 -0.7752  1.9896
  193DOPC   C2523847   3.235   4.091  14.038 -0.0933 -0.6805 -0.3668
  193DOPC   H5R23848   3.127   4.072  14.056  0.0607 -2.1401 -0.8464
  193DOPC   H5S23849   3.276   4.193  14.052 -3.4963  0.7097  0.3958
  193DOPC   C2623850   3.301   3.995  14.133  0.3955  0.3566 -0.5676
  193DOPC   H6R23851   3.409   3.988  14.105  0.1524  1.2853 -1.7807
  193DOPC   H6S23852   3.253   3.895  14.139 -0.7780  0.8985 -0.6623
  193DOPC   C2723853   3.301   4.041  14.280  0.0166 -0.5588 -0.7942
  193DOPC   H7R23854   3.199   4.070  14.314  0.1858  0.5909 -1.2074
  193DOPC   H7S23855   3.360   4.135  14.288 -0.9527 -0.0603  1.5335
  193DOPC   C2823856   3.344   3.939  14.387  0.3625  0.2743  0.3774
  193DOPC   H8R23857   3.275   3.852  14.390 -0.4574  0.9487  1.8629
  193DOPC   H8S23858   3.334   3.993  14.483  0.9274  0.7985  0.1455
  193DOPC   C2923859   3.485   3.892  14.374  0.1987  0.7573 -0.6120
  193DOPC   H9R23860   3.525   3.876  14.273 -0.5404  1.7844 -1.0906
  193DOPC  C21023861   3.579   3.877  14.468 -0.8400  0.0093  0.3082
  193DOPC  H10R23862   3.683   3.874  14.431 -0.9965 -0.0418 -0.1305
  193DOPC  C21123863   3.575   3.889  14.613  0.5294  0.0398 -0.2223
  193DOPC  H11R23864   3.471   3.874  14.648  1.4522 -1.6900  2.0739
  193DOPC  H11S23865   3.604   3.992  14.641  1.6672  0.1295 -1.6089
  193DOPC  C21223866   3.663   3.781  14.694 -0.4980 -0.7467 -0.0407
  193DOPC  H12R23867   3.772   3.802  14.697 -0.8637  1.2651  0.6591
  193DOPC  H12S23868   3.647   3.679  14.654  0.2586 -1.1987  0.7890
  193DOPC  C21323869   3.613   3.781  14.838 -0.1568 -0.2652  0.1707
  193DOPC  H13R23870   3.511   3.825  14.838  0.7236  1.9041 -0.3961
  193DOPC  H13S23871   3.687   3.828  14.907  0.5893 -1.0005 -0.1089
  193DOPC  C21423872   3.599   3.642  14.901 -0.0532 -0.7423 -0.2308
  193DOPC  H14R23873   3.702   3.602  14.911 -1.2339 -3.6137  1.7065
  193DOPC  H14S23874   3.538   3.579  14.832 -2.2234  0.2892  0.6385
  193DOPC  C21523875   3.536   3.651  15.038 -0.4314  0.7952 -0.0351
  193DOPC  H15R23876   3.432   3.686  15.022 -1.2202 -2.1314 -2.2022
  193DOPC  H15S23877   3.598   3.713  15.105 -0.0862  0.7661 -0.3236
  193DOPC  C21623878   3.519   3.507  15.107 -0.6978 -0.0520  0.5742
  193DOPC  H16R23879   3.614   3.450  15.105 -0.6139  0.0312  1.6469
  193DOPC  H16S23880   3.457   3.442  15.043 -1.2362 -1.1067  2.1023
  193DOPC  C21723881   3.454   3.501  15.244  0.9790  0.3413 -0.1381
  193DOPC  H17R23882   3.467   3.598  15.296 -1.0143  0.7915 -0.4049
  193DOPC  H17S23883   3.509   3.423  15.301  2.9817  0.2680 -2.0347
  193DOPC  C21823884   3.298   3.472  15.247  0.2267 -0.3187 -0.7520
  193DOPC  H18R23885   3.244   3.518  15.161 -0.7610 -0.4253 -0.2069
  193DOPC  H18S23886   3.259   3.515  15.341 -0.1170 -0.3728 -0.8658
  193DOPC  H18T23887   3.281   3.363  15.259  2.5831 -0.8502 -1.5794
  193DOPC   C3323888   2.799   4.211  14.067  0.0741 -0.0927  0.3950
  193DOPC   H3X23889   2.881   4.152  14.021 -1.8305 -1.1365 -1.8723
  193DOPC   H3Y23890   2.753   4.132  14.131  1.1067 -1.1959 -0.1875
  193DOPC   C3423891   2.856   4.334  14.134 -1.0965  0.6136  0.3616
  193DOPC   H4X23892   2.769   4.400  14.155 -0.9834  0.9093 -0.0896
  193DOPC   H4Y23893   2.914   4.392  14.060 -1.7157  3.2470  1.8139
  193DOPC   C3523894   2.941   4.319  14.257 -0.0354 -0.8527  0.2356
  193DOPC   H5X23895   2.963   4.417  14.306 -0.8082 -1.3050  1.5387
  193DOPC   H5Y23896   3.037   4.285  14.213 -1.0700 -0.3172 -2.7115
  193DOPC   C3623897   2.883   4.230  14.363 -0.1496  0.6524 -0.2405
  193DOPC   H6X23898   2.776   4.244  14.390  0.4712  2.8183  1.3871
  193DOPC   H6Y23899   2.890   4.123  14.334  0.0266  0.6022 -0.0141
  193DOPC   C3723900   2.962   4.253  14.493  0.2232 -0.3535  0.2926
  193DOPC   H7X23901   3.073   4.259  14.493  0.3310 -1.9960  1.1186
  193DOPC   H7Y23902   2.931   4.355  14.525  2.4815  0.6075 -0.4154
  193DOPC   C3823903   2.935   4.138  14.595  0.2332 -0.2012  1.0005
  193DOPC   H8X23904   2.995   4.048  14.572  1.1516  0.6751 -0.1821
  193DOPC   H8Y23905   2.826   4.118  14.579  0.3630 -0.0665 -0.1479
  193DOPC   C3923906   2.958   4.174  14.738 -1.0707 -0.1779  0.8142
  193DOPC   H9X23907   2.899   4.260  14.773 -1.3876 -0.4981  1.0733
  193DOPC  C31023908   3.074   4.149  14.809  0.2600 -0.9170  0.6222
  193DOPC  H10X23909   3.085   4.205  14.903  1.5293  0.0832 -0.0888
  193DOPC  C31123910   3.178   4.047  14.777  0.6387 -0.8043  0.2038
  193DOPC  H11X23911   3.255   4.096  14.713 -0.3641 -0.5457 -0.8324
  193DOPC  H11Y23912   3.125   3.967  14.722  0.0257  0.4357 -1.0616
  193DOPC  C31223913   3.243   3.991  14.902 -0.3226 -0.3606  0.1917
  193DOPC  H12X23914   3.304   3.902  14.876 -0.1478 -0.0640 -0.4472
  193DOPC  H12Y23915   3.176   3.950  14.980 -0.7192 -0.7987 -0.3710
  193DOPC  C31323916   3.323   4.104  14.973  0.1237  0.0931  0.0476
  193DOPC  H13X23917   3.364   4.163  14.888  2.7592 -1.8403 -0.1224
  193DOPC  H13Y23918   3.250   4.177  15.016 -0.7560  1.1630 -2.9562
  193DOPC  C31423919   3.428   4.068  15.067  0.3277 -0.2437 -0.1808
  193DOPC  H14X23920   3.499   3.994  15.024  1.6234 -0.1490  1.7037
  193DOPC  H14Y23921   3.497   4.154  15.082 -0.1698  0.3242 -1.0810
  193DOPC  C31523922   3.362   4.025  15.203  0.1278  0.2692 -0.2350
  193DOPC  H15X23923   3.279   3.953  15.185 -1.3381  2.1623 -1.3936
  193DOPC  H15Y23924   3.324   4.115  15.256 -0.6886 -1.1047  1.6227
  193DOPC  C31623925   3.471   3.964  15.286  0.2903 -0.5836  0.5039
  193DOPC  H16X23926   3.529   3.886  15.231  0.4554 -0.2730  0.2293
  193DOPC  H16Y23927   3.545   4.046  15.302 -0.8567  1.0957 -2.1551
  193DOPC  C31723928   3.419   3.897  15.414 -0.1998 -0.5640 -0.0498
  193DOPC  H17X23929   3.384   3.794  15.388  0.2480 -1.5051  2.7237
  193DOPC  H17Y23930   3.501   3.856  15.477  0.2402  1.3852  0.6984
  193DOPC  C31823931   3.323   3.973  15.493  0.2167 -0.2081  0.2602
  193DOPC  H18X23932   3.227   3.967  15.438  0.2997 -0.7842  0.1786
  193DOPC  H18Y23933   3.316   3.929  15.595 -0.2988  0.6483  0.6136
  193DOPC  H18Z23934   3.356   4.078  15.507  1.6181 -0.6901  0.7140
  194DOPC     N23935   5.532   4.070  12.313  0.0587  0.3175  0.0856
  194DOPC   C1223936   5.449   4.001  12.421 -0.4310  0.5116 -0.0477
  194DOPC  H12A23937   5.419   3.903  12.387 -0.8904  0.5295  0.2935
  194DOPC  H12B23938   5.350   4.043  12.436 -1.3129 -1.7728  1.0879
  194DOPC   C1323939   5.455   4.083  12.178  0.4071  0.3742  0.8799
  194DOPC  H13A23940   5.458   3.986  12.132 -1.3000 -0.4795  2.4362
  194DOPC  H13B23941   5.351   4.105  12.197  0.7851  3.9227 -0.3761
  194DOPC  H13C23942   5.498   4.154  12.108 -1.5136 -0.1264 -0.9252
  194DOPC   C1423943   5.664   3.995  12.292 -0.1305 -0.0744 -0.7937
  194DOPC  H14A23944   5.710   4.022  12.198  0.5636 -0.8153 -0.6799
  194DOPC  H14B23945   5.725   4.021  12.377 -1.0944  0.2863 -0.1987
  194DOPC  H14C23946   5.651   3.888  12.284  2.7135 -0.5670  0.2247
  194DOPC   C1523947   5.562   4.208  12.357 -0.2720  0.0986  0.3000
  194DOPC  H15A23948   5.469   4.259  12.380 -0.4675 -0.4532  0.7689
  194DOPC  H15B23949   5.616   4.259  12.278  0.6599 -0.5409  0.5104
  194DOPC  H15C23950   5.612   4.205  12.453  0.0948 -0.0242  0.1061
  194DOPC   C1123951   5.504   4.006  12.566  0.7021  0.1333 -0.3053
  194DOPC  H11A23952   5.424   3.978  12.638  2.9389 -1.2356  1.7618
  194DOPC  H11B23953   5.586   3.932  12.574  0.9514  0.6225  2.4576
  194DOPC     P23954   5.663   4.151  12.713 -0.0734 -0.2432 -0.0805
  194DOPC   O1323955   5.709   4.292  12.726 -0.1487  0.0719  0.3568
  194DOPC   O1423956   5.759   4.045  12.679 -0.2604 -0.6537  0.3863
  194DOPC   O1223957   5.538   4.136  12.615  0.7323 -0.6321 -0.6654
  194DOPC   O1123958   5.593   4.118  12.855  0.2308  0.1983  0.5655
  194DOPC    C123959   5.484   4.192  12.919 -0.0099  0.6749  0.0444
  194DOPC    HA23960   5.391   4.132  12.912  1.6151 -2.2737  1.4828
  194DOPC    HB23961   5.462   4.280  12.856  1.5306  0.5393 -0.7319
  194DOPC    C223962   5.526   4.246  13.054  0.7043  0.6631  0.5140
  194DOPC    HS23963   5.595   4.332  13.041 -0.8700  2.0863  1.2213
  194DOPC   O2123964   5.577   4.136  13.136 -0.6776  0.5483 -0.1374
  194DOPC   C2123965   5.709   4.131  13.140  0.6764  0.2516  0.6609
  194DOPC   O2223966   5.788   4.198  13.086 -0.0785  0.0816  0.7809
  194DOPC   C2223967   5.761   4.011  13.216  0.1280 -0.4577  0.2816
  194DOPC   H2R23968   5.812   3.968  13.127 -0.6669  0.9586 -0.9081
  194DOPC   H2S23969   5.679   3.948  13.257 -0.6909  1.5016  1.8163
  194DOPC    C323970   5.400   4.296  13.128 -0.2094 -0.1464  0.9017
  194DOPC    HX23971   5.352   4.209  13.178 -1.9410  0.8525  1.0710
  194DOPC    HY23972   5.319   4.335  13.063  0.8252  1.2507  0.3819
  194DOPC   O3123973   5.438   4.401  13.224 -0.6242 -0.0966 -0.4889
  194DOPC   C3123974   5.447   4.513  13.179 -0.1170 -0.9827 -0.4310
  194DOPC   O3223975   5.433   4.549  13.065  0.5089  0.1969  0.1139
  194DOPC   C3223976   5.490   4.611  13.289 -0.3268  0.1580  0.8508
  194DOPC   H2X23977   5.534   4.701  13.242 -0.6291  0.8853  1.9371
  194DOPC   H2Y23978   5.395   4.648  13.332 -2.8885 -5.1232  0.5583
  194DOPC   C2323979   5.855   4.049  13.332 -0.2554  0.7540  0.2044
  194DOPC   H3R23980   5.947   4.090  13.284  0.2796  0.4458  0.9521
  194DOPC   H3S23981   5.886   3.954  13.381  0.6482  0.9516  0.0265
  194DOPC   C2423982   5.786   4.148  13.422  0.0077 -0.1161 -0.8112
  194DOPC   H4R23983   5.753   4.236  13.364  0.3395 -0.7612 -2.0174
  194DOPC   H4S23984   5.869   4.173  13.492 -0.8252 -0.2270  0.2512
  194DOPC   C2523985   5.662   4.095  13.497  0.1713  0.1949 -0.5705
  194DOPC   H5R23986   5.676   3.992  13.535 -1.5133  0.1412 -0.0027
  194DOPC   H5S23987   5.581   4.088  13.422 -0.5386  1.7114  0.0193
  194DOPC   C2623988   5.633   4.172  13.630  0.3244  0.5076 -0.0089
  194DOPC   H6R23989   5.523   4.184  13.643  0.2356  1.9783 -1.7404
  194DOPC   H6S23990   5.661   4.277  13.608 -3.1789  1.6256  0.1914
  194DOPC   C2723991   5.707   4.112  13.754 -0.8731  0.4880  0.3659
  194DOPC   H7R23992   5.811   4.088  13.722 -0.8912  3.3268 -2.2372
  194DOPC   H7S23993   5.658   4.017  13.784 -0.2330  0.5096  1.5483
  194DOPC   C2823994   5.712   4.192  13.884 -0.4222 -0.8754  0.0826
  194DOPC   H8R23995   5.799   4.259  13.875  0.0204 -1.5982 -1.2894
  194DOPC   H8S23996   5.735   4.118  13.964  3.0855  1.4125  1.4199
  194DOPC   C2923997   5.606   4.287  13.921  0.0819 -0.4646  0.1443
  194DOPC   H9R23998   5.592   4.379  13.862  0.4068  0.2843  1.1952
  194DOPC  C21023999   5.516   4.265  14.018 -0.3195  0.1221  0.2307
  194DOPC  H10R24000   5.436   4.339  14.032 -0.5162 -0.3001  1.4786
  194DOPC  C21124001   5.506   4.143  14.104  0.5828  0.3722 -0.0268
  194DOPC  H11R24002   5.541   4.054  14.048 -1.1200 -0.7150  0.5634
  194DOPC  H11S24003   5.397   4.132  14.125  0.9951 -2.2064  1.0791
  194DOPC  C21224004   5.571   4.156  14.239  0.2839 -0.1927  0.0506
  194DOPC  H12R24005   5.548   4.252  14.289  3.5136 -0.8810  3.3139
  194DOPC  H12S24006   5.681   4.164  14.223  0.4949 -2.0796  0.3332
  194DOPC  C21324007   5.532   4.055  14.340 -0.1007 -0.5022  0.1355
  194DOPC  H13R24008   5.568   3.956  14.306  2.2709  1.0378 -2.1442
  194DOPC  H13S24009   5.425   4.036  14.365 -0.1884 -0.1980 -0.0013
  194DOPC  C21424010   5.616   4.084  14.465 -0.3562  0.6949 -0.2316
  194DOPC  H14R24011   5.582   4.181  14.506  1.2266  0.6027  1.4714
  194DOPC  H14S24012   5.722   4.097  14.436 -0.2684  0.0750 -0.2117
  194DOPC  C21524013   5.596   3.966  14.566  0.1402  0.1749  0.7918
  194DOPC  H15R24014   5.639   3.880  14.512 -2.1468  0.0959 -1.0482
  194DOPC  H15S24015   5.486   3.957  14.580  0.1071  0.9253  1.0420
  194DOPC  C21624016   5.662   3.992  14.700 -0.6229  0.4209  0.0098
  194DOPC  H16R24017   5.771   3.977  14.691 -0.7185 -0.8394  0.8196
  194DOPC  H16S24018   5.630   3.909  14.766  0.5073 -0.7198 -0.8455
  194DOPC  C21724019   5.636   4.121  14.772 -0.8189 -0.4762  0.0237
  194DOPC  H17R24020   5.685   4.201  14.714 -1.3917  1.3724  1.9813
  194DOPC  H17S24021   5.684   4.116  14.872  0.7955 -1.1443 -0.7484
  194DOPC  C21824022   5.489   4.140  14.817  0.7478 -0.3681  0.2480
  194DOPC  H18R24023   5.449   4.062  14.885  0.0056 -0.6064 -0.4405
  194DOPC  H18S24024   5.423   4.143  14.727  0.7276 -0.0668  0.2700
  194DOPC  H18T24025   5.472   4.239  14.864 -3.0894 -0.8729  0.2797
  194DOPC   C3324026   5.575   4.548  13.406 -0.4618 -0.4637 -0.7996
  194DOPC   H3X24027   5.679   4.580  13.384 -0.0685  0.0339  1.5667
  194DOPC   H3Y24028   5.566   4.437  13.411 -0.5134 -0.3935  2.1550
  194DOPC   C3424029   5.533   4.610  13.544 -1.1465  0.9383  0.2128
  194DOPC   H4X24030   5.430   4.575  13.568 -0.8673  1.3495  2.1587
  194DOPC   H4Y24031   5.526   4.720  13.532  2.4222  1.3289  0.5816
  194DOPC   C3524032   5.637   4.570  13.641 -0.5173  0.4532 -0.4287
  194DOPC   H5X24033   5.741   4.579  13.604 -0.4886 -0.1004 -0.4987
  194DOPC   H5Y24034   5.628   4.464  13.672  0.7940  0.0732 -1.2515
  194DOPC   C3624035   5.624   4.653  13.771  0.4508 -0.7323  0.3352
  194DOPC   H6X24036   5.605   4.759  13.744  0.3695 -0.6085  0.8745
  194DOPC   H6Y24037   5.532   4.610  13.816 -0.5554 -1.9249 -2.5853
  194DOPC   C3724038   5.747   4.665  13.863 -0.2694  0.1843  0.1189
  194DOPC   H7X24039   5.767   4.559  13.886  0.3160  0.5458  1.3743
  194DOPC   H7Y24040   5.829   4.716  13.807 -2.2583  2.4181 -0.9590
  194DOPC   C3824041   5.735   4.744  13.996 -0.2665  0.6099 -0.4529
  194DOPC   H8X24042   5.727   4.850  13.964 -1.4601  0.4221 -0.8563
  194DOPC   H8Y24043   5.828   4.729  14.054 -1.0777 -1.6900  0.3776
  194DOPC   C3924044   5.616   4.706  14.079  1.3150 -0.2813 -0.4068
  194DOPC   H9X24045   5.518   4.723  14.033  1.0684 -0.9483 -0.1303
  194DOPC  C31024046   5.615   4.634  14.194  0.3961 -1.0051 -0.3488
  194DOPC  H10X24047   5.517   4.600  14.231 -0.5519  0.5078 -1.3499
  194DOPC  C31124048   5.733   4.586  14.275 -0.7668  0.8095 -0.9040
  194DOPC  H11X24049   5.831   4.610  14.228  0.2879 -1.5319 -0.0972
  194DOPC  H11Y24050   5.726   4.475  14.282  1.1723  0.7094  0.4054
  194DOPC  C31224051   5.731   4.651  14.414  0.5340 -0.1938 -0.1158
  194DOPC  H12X24052   5.721   4.762  14.411  0.1208 -0.1152  2.2138
  194DOPC  H12Y24053   5.829   4.643  14.467  0.4931  1.5533  0.2866
  194DOPC  C31324054   5.617   4.595  14.490  1.0543 -0.2852  0.2740
  194DOPC  H13X24055   5.526   4.660  14.488  1.0324 -0.3193  0.0330
  194DOPC  H13Y24056   5.584   4.495  14.456  1.7796 -0.6778  0.7191
  194DOPC  C31424057   5.654   4.578  14.633 -0.0872 -0.1105  0.0780
  194DOPC  H14X24058   5.708   4.483  14.653 -0.1922 -0.3146 -0.5711
  194DOPC  H14Y24059   5.728   4.654  14.665  0.3824 -0.3096 -0.5268
  194DOPC  C31524060   5.530   4.580  14.727  0.2432 -0.0931  0.3823
  194DOPC  H15X24061   5.441   4.538  14.676  0.2090 -0.6622  0.9116
  194DOPC  H15Y24062   5.487   4.678  14.757 -4.8621 -1.5446 -1.1577
  194DOPC  C31624063   5.558   4.511  14.864 -0.7684  0.1066  0.7576
  194DOPC  H16X24064   5.454   4.512  14.904 -1.0604 -1.0821  0.0633
  194DOPC  H16Y24065   5.585   4.405  14.848 -0.6672  0.0220  1.4365
  194DOPC  C31724066   5.670   4.591  14.934  0.1645 -0.1999 -0.0834
  194DOPC  H17X24067   5.764   4.537  14.908  1.0602  0.7996  0.9897
  194DOPC  H17Y24068   5.676   4.695  14.896 -1.2439  0.2275  0.7827
  194DOPC  C31824069   5.653   4.609  15.081  0.3139  0.1465 -0.4262
  194DOPC  H18X24070   5.692   4.706  15.116 -0.7132  1.1206 -1.8576
  194DOPC  H18Y24071   5.544   4.613  15.102 -0.2813  0.4665 -3.1197
  194DOPC  H18Z24072   5.706   4.524  15.130  0.8435 -0.6030 -2.1888
  195DOPC     N24073   6.386   1.865  12.528 -0.2105 -0.6792  0.4491
  195DOPC   C1224074   6.527   1.860  12.594  0.1066  0.0690  0.5804
  195DOPC  H12A24075   6.562   1.960  12.619  2.7948 -0.2364 -1.4464
  195DOPC  H12B24076   6.595   1.827  12.517 -0.5293 -0.6484  0.3227
  195DOPC   C1324077   6.286   1.930  12.616  0.4076  0.4599 -0.0436
  195DOPC  H13A24078   6.186   1.923  12.575 -0.7488  0.9773  2.4779
  195DOPC  H13B24079   6.290   1.891  12.716 -1.4642 -0.1763 -0.1850
  195DOPC  H13C24080   6.304   2.036  12.629  3.0522  0.0030  0.5570
  195DOPC   C1424081   6.340   1.734  12.488 -0.9128 -0.1388 -0.2726
  195DOPC  H14A24082   6.362   1.654  12.557 -0.0178 -0.7072 -1.1954
  195DOPC  H14B24083   6.232   1.739  12.479 -1.0144  0.2001  0.9540
  195DOPC  H14C24084   6.393   1.701  12.400  0.4270 -1.8722  1.1088
  195DOPC   C1524085   6.398   1.937  12.394  0.3246  0.0421 -1.0917
  195DOPC  H15A24086   6.460   1.900  12.314  0.8841  0.3250 -0.7996
  195DOPC  H15B24087   6.429   2.039  12.413 -0.7823 -0.2847  3.7397
  195DOPC  H15C24088   6.298   1.943  12.353  0.0849 -1.2267 -0.7111
  195DOPC   C1124089   6.552   1.765  12.716 -0.4872  0.8517 -0.3538
  195DOPC  H11A24090   6.651   1.791  12.761 -0.8371 -0.0394  0.9803
  195DOPC  H11B24091   6.476   1.783  12.795  0.5710  1.0884  0.6380
  195DOPC     P24092   6.672   1.548  12.636 -0.2255  0.0556 -0.3237
  195DOPC   O1324093   6.743   1.618  12.534  0.0013 -0.9285  0.6246
  195DOPC   O1424094   6.643   1.403  12.618  0.3402  0.2826 -0.2178
  195DOPC   O1224095   6.542   1.621  12.689 -0.2098 -0.0001 -0.0116
  195DOPC   O1124096   6.760   1.555  12.762 -0.1403  0.2410  0.2560
  195DOPC    C124097   6.707   1.514  12.888  0.0956  0.6155 -0.4772
  195DOPC    HA24098   6.704   1.404  12.900 -0.3807  0.7911  1.2009
  195DOPC    HB24099   6.604   1.551  12.905 -0.6977 -1.2559 -1.0405
  195DOPC    C224100   6.798   1.569  13.001  0.4527  0.3039  0.5848
  195DOPC    HS24101   6.905   1.543  12.988  0.7342  0.7565  1.8480
  195DOPC   O2124102   6.746   1.513  13.122 -0.2144  0.5117 -0.7518
  195DOPC   C2124103   6.836   1.481  13.214 -0.4610  0.2253  0.0892
  195DOPC   O2224104   6.957   1.476  13.207 -0.0181 -0.2330  0.0671
  195DOPC   C2224105   6.764   1.448  13.345 -1.0314  0.3986 -0.6951
  195DOPC   H2R24106   6.725   1.344  13.343  0.3197 -0.3132  2.7541
  195DOPC   H2S24107   6.680   1.518  13.366 -2.1648 -1.1137  0.0161
  195DOPC    C324108   6.796   1.722  13.007  0.1015  0.3787 -0.0330
  195DOPC    HX24109   6.690   1.752  13.001  0.5068  1.5833 -1.8391
  195DOPC    HY24110   6.844   1.768  12.918  0.8130 -0.5163 -0.1277
  195DOPC   O3124111   6.854   1.774  13.130  0.3636 -0.4814 -0.0452
  195DOPC   C3124112   6.981   1.809  13.131  0.0662 -0.0942  0.0521
  195DOPC   O3224113   7.056   1.807  13.035  0.0320  0.0438  0.2396
  195DOPC   C3224114   7.007   1.861  13.274 -0.4204 -0.1043 -0.1959
  195DOPC   H2X24115   7.098   1.821  13.322  0.7077  3.0468  0.5870
  195DOPC   H2Y24116   7.035   1.969  13.267 -0.6690 -0.0196  0.1049
  195DOPC   C2324117   6.868   1.448  13.464  0.0676  0.5954  0.6976
  195DOPC   H3R24118   6.924   1.544  13.470 -1.4723  1.7698 -1.9116
  195DOPC   H3S24119   6.934   1.361  13.445 -1.1602 -0.1810 -0.1667
  195DOPC   C2424120   6.797   1.445  13.595  0.4568 -0.6180 -0.3290
  195DOPC   H4R24121   6.738   1.352  13.611 -0.3103  0.0879  1.1784
  195DOPC   H4S24122   6.729   1.533  13.602  2.0057  0.6568 -0.7563
  195DOPC   C2524123   6.900   1.464  13.709 -0.3435  0.1141  0.3719
  195DOPC   H5R24124   6.949   1.564  13.703  0.6409 -0.4341 -1.9275
  195DOPC   H5S24125   6.986   1.397  13.689  0.5656  1.2060  0.5381
  195DOPC   C2624126   6.848   1.444  13.853  0.2779  0.8238  0.6907
  195DOPC   H6R24127   6.789   1.350  13.849  1.7200 -0.0726 -2.3950
  195DOPC   H6S24128   6.782   1.528  13.886  0.1634  1.2778 -0.6243
  195DOPC   C2724129   6.963   1.431  13.947  0.0086 -0.4682 -0.1786
  195DOPC   H7R24130   6.999   1.530  13.980  2.0280 -1.3880  0.5290
  195DOPC   H7S24131   7.048   1.378  13.898  1.6704 -0.4832  2.5479
  195DOPC   C2824132   6.918   1.359  14.078  0.1646 -0.1955  0.4807
  195DOPC   H8R24133   6.906   1.250  14.059 -1.2110 -0.1237  0.8298
  195DOPC   H8S24134   6.817   1.398  14.105  0.5922  0.7378  0.7779
  195DOPC   C2924135   7.015   1.399  14.184 -0.3242 -0.7454 -0.7374
  195DOPC   H9R24136   7.108   1.340  14.187 -0.6334 -1.2234 -0.3641
  195DOPC  C21024137   7.010   1.504  14.268 -0.0411 -0.5159  0.1292
  195DOPC  H10R24138   7.098   1.517  14.333  0.3165  0.1374 -0.4672
  195DOPC  C21124139   6.902   1.607  14.274 -0.6755 -0.1771  0.5841
  195DOPC  H11R24140   6.821   1.585  14.347 -0.1308 -1.8662  0.7074
  195DOPC  H11S24141   6.847   1.620  14.179  0.9917 -0.4863 -0.4597
  195DOPC  C21224142   6.977   1.737  14.294 -0.2727 -0.2209  0.0175
  195DOPC  H12R24143   6.904   1.816  14.267 -0.6160 -0.2700  0.7637
  195DOPC  H12S24144   7.061   1.755  14.224  0.1618 -1.7786  0.0991
  195DOPC  C21324145   7.012   1.736  14.450  0.0667 -0.0344  0.2571
  195DOPC  H13R24146   7.113   1.779  14.466  0.1013 -0.3074  0.7761
  195DOPC  H13S24147   7.010   1.634  14.492  0.4712  0.1078  0.6298
  195DOPC  C21424148   6.910   1.824  14.538 -0.4488  0.2200 -1.0315
  195DOPC  H14R24149   6.806   1.786  14.539  0.1153 -1.5044  1.2771
  195DOPC  H14S24150   6.925   1.928  14.502 -0.6949  0.5730 -0.1421
  195DOPC  C21524151   6.961   1.824  14.683 -1.0752 -0.0428 -0.1372
  195DOPC  H15R24152   7.062   1.868  14.692 -1.3187  0.3660  0.5961
  195DOPC  H15S24153   6.956   1.718  14.717 -0.9110  0.0328  0.1153
  195DOPC  C21624154   6.864   1.906  14.776  0.3925 -0.3248 -0.2615
  195DOPC  H16R24155   6.766   1.854  14.766 -0.1217  0.3061  1.1780
  195DOPC  H16S24156   6.858   2.011  14.739 -1.8225  0.5668  2.2479
  195DOPC  C21724157   6.916   1.907  14.921 -0.1648  0.3982  0.1781
  195DOPC  H17R24158   7.025   1.925  14.911 -0.4198  3.4365  1.6743
  195DOPC  H17S24159   6.907   1.804  14.962 -1.5224  0.2602 -0.3833
  195DOPC  C21824160   6.847   1.999  15.013 -0.8495  0.6018  0.1427
  195DOPC  H18R24161   6.856   2.106  14.986  0.4310  0.8144  1.3225
  195DOPC  H18S24162   6.886   2.002  15.117  0.4443 -0.0198 -0.3064
  195DOPC  H18T24163   6.738   1.976  15.021 -0.8592  0.9650  1.2437
  195DOPC   C3324164   6.886   1.857  13.369  0.0646  0.4132 -0.5397
  195DOPC   H3X24165   6.866   1.752  13.398 -0.4526  0.4127 -0.8743
  195DOPC   H3Y24166   6.792   1.892  13.320  0.2020  3.2650  0.9867
  195DOPC   C3424167   6.893   1.947  13.494 -0.2026 -0.1989 -0.9484
  195DOPC   H4X24168   6.794   1.939  13.545  1.0244  1.3202  1.8936
  195DOPC   H4Y24169   6.905   2.046  13.445 -0.2412 -0.1485 -0.8572
  195DOPC   C3524170   7.007   1.897  13.588  0.1664 -1.1736  0.1578
  195DOPC   H5X24171   7.098   1.921  13.529 -1.4722  0.9912 -1.6759
  195DOPC   H5Y24172   6.998   1.788  13.604 -0.7472 -1.0952  0.2339
  195DOPC   C3624173   7.022   1.976  13.724  0.0479  0.2390  0.5624
  195DOPC   H6X24174   7.128   1.966  13.756  0.9656  0.7988 -2.0222
  195DOPC   H6Y24175   6.994   2.083  13.715 -1.7041 -0.1568  0.9395
  195DOPC   C3724176   6.928   1.916  13.832  0.5251 -0.6748  0.0805
  195DOPC   H7X24177   6.829   1.944  13.790  1.3852 -0.5203 -2.0019
  195DOPC   H7Y24178   6.934   1.806  13.842 -3.0965 -1.0424 -0.3272
  195DOPC   C3824179   6.954   1.972  13.972  0.5993  0.0861  0.2783
  195DOPC   H8X24180   7.052   1.943  14.014 -0.5866 -1.6750  2.0250
  195DOPC   H8Y24181   6.877   1.928  14.039  1.1446  0.0151  0.8634
  195DOPC   C3924182   6.934   2.127  13.976  0.2919  0.0930 -0.5766
  195DOPC   H9X24183   6.859   2.172  13.911 -1.4057  2.8972  2.9452
  195DOPC  C31024184   6.999   2.208  14.056  0.3129 -0.2825  0.3074
  195DOPC  H10X24185   6.980   2.315  14.047 -1.7167 -0.7784 -2.1944
  195DOPC  C31124186   7.112   2.170  14.152 -0.3791  0.3108 -0.3733
  195DOPC  H11X24187   7.187   2.251  14.162  1.3811 -1.4527  1.8105
  195DOPC  H11Y24188   7.180   2.088  14.121 -1.0777 -0.7383  0.7572
  195DOPC  C31224189   7.070   2.153  14.303 -0.4362 -0.4673  0.4364
  195DOPC  H12X24190   7.153   2.112  14.365  1.7748 -0.9248 -2.6208
  195DOPC  H12Y24191   6.985   2.082  14.308 -0.9941  0.1747  0.1280
  195DOPC  C31324192   7.035   2.291  14.369  0.4149  0.9620 -0.6470
  195DOPC  H13X24193   7.107   2.370  14.341  1.7934  0.3707  1.0705
  195DOPC  H13Y24194   6.937   2.323  14.327  0.6662  1.3252 -0.9626
  195DOPC  C31424195   7.023   2.281  14.524  0.4226  0.9238 -0.5228
  195DOPC  H14X24196   6.967   2.369  14.564 -0.9851 -0.4267  0.6164
  195DOPC  H14Y24197   6.955   2.197  14.549 -0.0893  1.8555  1.5096
  195DOPC  C31524198   7.151   2.254  14.604 -0.3662 -0.5817 -0.4546
  195DOPC  H15X24199   7.220   2.341  14.596  1.9522 -2.2797 -0.0110
  195DOPC  H15Y24200   7.205   2.161  14.576  1.3602  0.5456 -0.9968
  195DOPC  C31624201   7.114   2.250  14.757  0.8537  0.6677  0.0678
  195DOPC  H16X24202   7.060   2.345  14.779 -0.5477 -0.2968  0.9231
  195DOPC  H16Y24203   7.043   2.166  14.771  1.1194  0.4226 -0.0416
  195DOPC  C31724204   7.230   2.213  14.852 -0.4714 -0.0099 -0.1366
  195DOPC  H17X24205   7.260   2.108  14.829 -1.2790 -0.6993  1.7683
  195DOPC  H17Y24206   7.311   2.288  14.843 -0.6681  0.0735 -1.5430
  195DOPC  C31824207   7.180   2.201  14.997 -0.3437  0.0107  0.5497
  195DOPC  H18X24208   7.106   2.119  14.999  0.3007 -0.6570 -1.2755
  195DOPC  H18Y24209   7.265   2.191  15.068  1.6932  1.4860 -1.5505
  195DOPC  H18Z24210   7.114   2.284  15.031 -5.4012 -2.3233 -2.4981
  196DOPC     N24211   3.442   3.724  13.007  0.6638 -0.4398  0.0580
  196DOPC   C1224212   3.580   3.715  12.944  0.0811  0.1323 -0.1615
  196DOPC  H12A24213   3.571   3.663  12.850 -1.1347 -0.1007  0.0612
  196DOPC  H12B24214   3.644   3.661  13.012 -2.5402 -2.3702  0.5640
  196DOPC   C1324215   3.436   3.799  13.137 -0.0905 -0.3837 -0.0281
  196DOPC  H13A24216   3.474   3.898  13.116  0.2507 -0.2998  0.9424
  196DOPC  H13B24217   3.342   3.797  13.189  1.2938 -0.6337  2.6406
  196DOPC  H13C24218   3.510   3.764  13.208  1.0683 -0.2370 -1.1147
  196DOPC   C1424219   3.401   3.590  13.056 -0.2085  0.2478  1.0828
  196DOPC  H14A24220   3.472   3.541  13.120  1.6704  0.2301 -0.8833
  196DOPC  H14B24221   3.308   3.592  13.110  0.5261  0.8055  2.3551
  196DOPC  H14C24222   3.387   3.529  12.968  0.3996  1.4145  0.1335
  196DOPC   C1524223   3.346   3.783  12.908  0.2498 -0.1970  0.2686
  196DOPC  H15A24224   3.360   3.890  12.902 -0.0571 -0.1523  0.3394
  196DOPC  H15B24225   3.243   3.763  12.933 -0.4485 -0.8311 -2.7181
  196DOPC  H15C24226   3.363   3.746  12.808 -0.1780  3.5270 -1.3493
  196DOPC   C1124227   3.643   3.855  12.919 -0.5504  0.1018  0.6628
  196DOPC  H11A24228   3.658   3.912  13.014 -0.7093  2.2570 -0.5531
  196DOPC  H11B24229   3.744   3.826  12.882 -0.6621  1.5387 -0.8552
  196DOPC     P24230   3.519   4.074  12.832 -0.0071  0.2834  0.5281
  196DOPC   O1324231   3.411   4.085  12.737  0.1663 -0.5441 -0.6269
  196DOPC   O1424232   3.625   4.176  12.830  0.0893 -0.4848 -0.3976
  196DOPC   O1224233   3.579   3.924  12.823 -0.1599 -0.2041  0.4440
  196DOPC   O1124234   3.459   4.074  12.970  0.4242 -0.2714  0.4233
  196DOPC    C124235   3.461   4.182  13.064 -0.5444  0.4013  0.4471
  196DOPC    HA24236   3.378   4.171  13.136 -0.4955  0.2917  0.4867
  196DOPC    HB24237   3.436   4.275  13.009  0.5429 -0.7608 -2.1812
  196DOPC    C224238   3.597   4.184  13.141 -0.3489 -0.2451 -0.0553
  196DOPC    HS24239   3.685   4.183  13.073 -1.5783 -0.7389 -1.7283
  196DOPC   O2124240   3.603   4.062  13.227  0.0583  0.4151  0.6061
  196DOPC   C2124241   3.715   4.054  13.292 -0.2142 -0.7709  0.9094
  196DOPC   O2224242   3.821   4.108  13.255 -0.1190 -0.2369 -0.1914
  196DOPC   C2224243   3.695   3.979  13.423  0.3422 -0.3023  0.1925
  196DOPC   H2R24244   3.700   3.869  13.404  1.7124 -0.0049 -1.4376
  196DOPC   H2S24245   3.595   4.001  13.467  0.1570  0.1900 -0.4555
  196DOPC    C324246   3.596   4.317  13.223 -0.3336 -0.4600 -0.0067
  196DOPC    HX24247   3.563   4.396  13.152  1.1939  0.3927  0.2039
  196DOPC    HY24248   3.702   4.348  13.237 -1.0329  2.2543 -0.0917
  196DOPC   O3124249   3.516   4.312  13.339 -0.2663 -0.5658 -0.1694
  196DOPC   C3124250   3.561   4.360  13.447  0.1675  0.6948  0.2239
  196DOPC   O3224251   3.669   4.409  13.465 -0.2519 -0.1253 -0.2600
  196DOPC   C3224252   3.453   4.362  13.558  0.4452  0.2647 -0.0836
  196DOPC   H2X24253   3.360   4.400  13.511 -1.2504 -1.2098  1.8275
  196DOPC   H2Y24254   3.425   4.255  13.574 -1.0450  0.8710  1.8681
  196DOPC   C2324255   3.812   4.008  13.518  0.0327 -0.0325 -0.4473
  196DOPC   H3R24256   3.813   4.119  13.523  1.0948 -0.0881  1.2766
  196DOPC   H3S24257   3.904   3.971  13.469 -0.5501 -0.1439 -1.4839
  196DOPC   C2424258   3.791   3.954  13.652  1.5213  0.1760 -1.2469
  196DOPC   H4R24259   3.756   3.849  13.643  1.8692 -0.1441  0.6988
  196DOPC   H4S24260   3.708   3.998  13.710  1.2732 -2.1530  0.3241
  196DOPC   C2524261   3.924   3.962  13.725  0.2494 -0.1374 -0.0986
  196DOPC   H5R24262   3.960   4.066  13.717 -1.9689  0.8325  1.4370
  196DOPC   H5S24263   3.992   3.888  13.678  0.3468 -0.1058 -0.0060
  196DOPC   C2624264   3.921   3.905  13.870 -0.2913 -0.3847  0.3442
  196DOPC   H6R24265   3.828   3.939  13.920  0.8068  1.7739  1.0070
  196DOPC   H6S24266   3.996   3.957  13.933  0.3239  0.4929 -1.0738
  196DOPC   C2724267   3.943   3.754  13.878 -0.0326 -1.0413 -0.4169
  196DOPC   H7R24268   4.042   3.729  13.835  1.0336  1.7830  0.1950
  196DOPC   H7S24269   3.866   3.699  13.819 -1.0200 -0.4495  0.3010
  196DOPC   C2824270   3.940   3.702  14.014  0.6437  0.1815  0.1634
  196DOPC   H8R24271   4.026   3.751  14.066  1.3676  0.6637 -1.4471
  196DOPC   H8S24272   3.964   3.594  14.024 -0.8293 -0.1573  0.2559
  196DOPC   C2924273   3.823   3.731  14.099 -0.3358 -0.4475 -0.8393
  196DOPC   H9R24274   3.743   3.794  14.056 -0.3355 -1.4786 -2.4329
  196DOPC  C21024275   3.806   3.695  14.230  0.5255  0.4597  0.9177
  196DOPC  H10R24276   3.728   3.741  14.292  1.4731  1.9345  1.0692
  196DOPC  C21124277   3.906   3.609  14.310 -1.0915 -0.7695 -0.2929
  196DOPC  H11R24278   3.937   3.677  14.392  0.9684  1.0512 -2.4615
  196DOPC  H11S24279   3.994   3.588  14.245 -2.1179  0.7515 -2.2736
  196DOPC  C21224280   3.846   3.472  14.356  0.3277  0.4335  0.2286
  196DOPC  H12R24281   3.923   3.393  14.369 -0.2868 -0.5154 -1.5021
  196DOPC  H12S24282   3.767   3.445  14.283  0.3296 -1.1259  0.7827
  196DOPC  C21324283   3.774   3.497  14.492  0.9825 -0.0655 -0.2915
  196DOPC  H13R24284   3.683   3.561  14.487  1.8315  1.1387 -0.9257
  196DOPC  H13S24285   3.840   3.556  14.558  0.4615  0.8675 -0.5846
  196DOPC  C21424286   3.751   3.369  14.571  0.3867  0.1978  0.0840
  196DOPC  H14R24287   3.829   3.294  14.548 -1.2390 -1.3685 -0.5218
  196DOPC  H14S24288   3.649   3.336  14.541  0.0633  2.1873 -1.2098
  196DOPC  C21524289   3.752   3.378  14.724  0.0728 -0.4875  0.4854
  196DOPC  H15R24290   3.654   3.414  14.763 -0.6714 -1.8066 -0.1302
  196DOPC  H15S24291   3.836   3.442  14.760 -0.7368  1.4060 -0.8039
  196DOPC  C21624292   3.763   3.230  14.779  0.4297 -0.1486  0.3242
  196DOPC  H16R24293   3.855   3.187  14.734  0.8346  0.0189  0.9666
  196DOPC  H16S24294   3.681   3.167  14.738  1.4121 -0.5062 -1.1696
  196DOPC  C21724295   3.777   3.222  14.929 -0.4729 -0.7701  0.3484
  196DOPC  H17R24296   3.691   3.278  14.972 -0.6004 -1.1379  0.5725
  196DOPC  H17S24297   3.862   3.289  14.954 -0.7377 -0.7332  1.1678
  196DOPC  C21824298   3.802   3.082  14.992 -0.1128 -0.9019 -0.0310
  196DOPC  H18R24299   3.727   3.004  14.966  1.0643 -2.2627  0.5127
  196DOPC  H18S24300   3.801   3.093  15.102 -1.5880 -2.4578  0.1590
  196DOPC  H18T24301   3.904   3.043  14.974 -0.3044 -1.4374  0.0204
  196DOPC   C3324302   3.488   4.424  13.692  0.6341  0.6629  0.0196
  196DOPC   H3X24303   3.397   4.420  13.755  1.7427  0.2019  1.6525
  196DOPC   H3Y24304   3.515   4.532  13.682  0.2794  0.9829  2.0518
  196DOPC   C3424305   3.594   4.342  13.769  0.2853  0.4193  0.5828
  196DOPC   H4X24306   3.693   4.361  13.721 -0.2774  0.7968 -0.4786
  196DOPC   H4Y24307   3.561   4.238  13.753  0.9428  0.5617 -2.1512
  196DOPC   C3524308   3.599   4.363  13.921 -0.2160  0.4011  0.5448
  196DOPC   H5X24309   3.497   4.346  13.962 -0.0571 -0.4097  0.6357
  196DOPC   H5Y24310   3.624   4.466  13.952  1.4659  0.4545 -0.8437
  196DOPC   C3624311   3.691   4.258  13.987 -0.6730 -0.3189  0.9619
  196DOPC   H6X24312   3.691   4.159  13.937  2.5968 -0.4290  0.9749
  196DOPC   H6Y24313   3.795   4.292  13.971  0.5928 -4.3834 -0.7345
  196DOPC   C3724314   3.656   4.247  14.136 -0.8192  0.4134 -0.6427
  196DOPC   H7X24315   3.662   4.350  14.177 -0.5895  0.0222  0.3361
  196DOPC   H7Y24316   3.554   4.205  14.144  0.5158 -3.2790 -0.6922
  196DOPC   C3824317   3.755   4.149  14.204 -0.6071 -0.2328  0.2382
  196DOPC   H8X24318   3.785   4.079  14.123  1.0465  0.8306 -0.1126
  196DOPC   H8Y24319   3.704   4.100  14.290 -0.1906  0.1739  0.7232
  196DOPC   C3924320   3.875   4.224  14.251  0.1208  0.7373 -0.1970
  196DOPC   H9X24321   3.914   4.306  14.189  1.2758 -0.3066 -0.9029
  196DOPC  C31024322   3.942   4.196  14.370 -0.3235 -0.0129  0.2262
  196DOPC  H10X24323   4.016   4.273  14.399  1.4055 -1.5647  0.1124
  196DOPC  C31124324   3.914   4.087  14.475  0.3350  0.4474  0.6043
  196DOPC  H11X24325   3.970   3.996  14.449 -1.1163 -0.1725 -0.4846
  196DOPC  H11Y24326   3.808   4.054  14.479 -0.2883  2.2338 -0.0864
  196DOPC  C31224327   3.948   4.131  14.616  0.2906 -0.6261  0.1763
  196DOPC  H12X24328   4.053   4.164  14.625  0.7787 -1.9302 -0.5666
  196DOPC  H12Y24329   3.951   4.036  14.674  1.3926  0.5448  2.1172
  196DOPC  C31324330   3.839   4.225  14.674  0.0292  0.0179  0.4464
  196DOPC  H13X24331   3.842   4.317  14.611 -1.4470 -0.8933 -1.0310
  196DOPC  H13Y24332   3.740   4.177  14.655  0.6661 -0.6139 -1.4907
  196DOPC  C31424333   3.850   4.248  14.822  0.2834 -0.3025  0.5649
  196DOPC  H14X24334   3.956   4.262  14.850  0.6774  3.3153 -2.0885
  196DOPC  H14Y24335   3.794   4.337  14.859  1.7566  1.4610 -1.2654
  196DOPC  C31524336   3.795   4.129  14.907 -0.4929 -0.3068 -0.1797
  196DOPC  H15X24337   3.848   4.036  14.880 -0.6350 -0.5442  0.3615
  196DOPC  H15Y24338   3.693   4.109  14.867 -0.7748  0.1245  0.3167
  196DOPC  C31624339   3.804   4.153  15.053  0.6981  0.1609  0.3852
  196DOPC  H16X24340   3.774   4.259  15.065 -0.1077  0.1131 -0.9310
  196DOPC  H16Y24341   3.727   4.096  15.110  0.3834  0.2519  0.0587
  196DOPC  C31724342   3.923   4.100  15.113 -0.0792  1.3918  0.7155
  196DOPC  H17X24343   3.926   3.992  15.086 -1.9028  0.8956  2.2703
  196DOPC  H17Y24344   4.007   4.160  15.072 -2.3743  2.0766 -3.6532
  196DOPC  C31824345   3.921   4.111  15.265  0.5181 -0.0930  0.5774
  196DOPC  H18X24346   3.908   4.220  15.282  1.3123  0.0211  0.5164
  196DOPC  H18Y24347   3.834   4.064  15.314  1.4403 -1.9593  0.5297
  196DOPC  H18Z24348   4.008   4.073  15.323  1.8175  3.5546  1.2927
  197DOPC     N24349   6.487   3.620  12.730  0.0006 -0.0458 -0.0442
  197DOPC   C1224350   6.341   3.586  12.744 -0.0067 -0.5875 -0.5729
  197DOPC  H12A24351   6.311   3.540  12.651  0.2694 -0.2015 -0.8614
  197DOPC  H12B24352   6.279   3.674  12.756 -0.4436 -1.0193  0.3739
  197DOPC   C1324353   6.543   3.673  12.851 -0.0548 -0.1082 -0.0270
  197DOPC  H13A24354   6.647   3.695  12.835 -0.2936  0.3424 -1.0789
  197DOPC  H13B24355   6.504   3.771  12.874 -0.1465  0.1382 -1.1610
  197DOPC  H13C24356   6.534   3.606  12.936 -1.5841 -1.4314 -1.1527
  197DOPC   C1424357   6.508   3.722  12.626 -0.4822  0.5395  0.9874
  197DOPC  H14A24358   6.457   3.811  12.658  0.2767  0.8778  1.2884
  197DOPC  H14B24359   6.612   3.740  12.603 -1.4108  1.7207 -3.1935
  197DOPC  H14C24360   6.473   3.681  12.532 -3.1447 -0.8362  2.4651
  197DOPC   C1524361   6.567   3.503  12.695 -0.3852  0.8112 -0.5086
  197DOPC  H15A24362   6.534   3.421  12.757  0.4081 -0.0168 -1.1690
  197DOPC  H15B24363   6.672   3.512  12.717  0.1880 -0.0878 -2.6644
  197DOPC  H15C24364   6.555   3.469  12.593  3.4373  1.3432 -1.2687
  197DOPC   C1124365   6.302   3.490  12.856  0.2382  0.0094  0.2915
  197DOPC  H11A24366   6.342   3.528  12.953  1.3509  2.3650 -1.0036
  197DOPC  H11B24367   6.191   3.499  12.858  0.2630  0.5379 -0.3446
  197DOPC     P24368   6.276   3.261  12.735  0.1026  0.3550  0.0223
  197DOPC   O1324369   6.367   3.164  12.674 -0.3095  0.0586 -0.1435
  197DOPC   O1424370   6.199   3.343  12.643  0.8371  0.1613 -0.0232
  197DOPC   O1224371   6.357   3.354  12.826 -0.3581  0.0023 -0.6625
  197DOPC   O1124372   6.183   3.188  12.835 -0.2891  0.1890  0.0301
  197DOPC    C124373   6.222   3.095  12.936  0.3840 -0.2865 -0.2549
  197DOPC    HA24374   6.327   3.060  12.927  0.0179 -1.1694 -1.2769
  197DOPC    HB24375   6.159   3.004  12.930  0.3901 -0.2473 -0.9400
  197DOPC    C224376   6.206   3.151  13.075  0.4570 -0.5928  0.4946
  197DOPC    HS24377   6.108   3.203  13.066  0.3334 -0.6692  1.3048
  197DOPC   O2124378   6.320   3.233  13.109 -0.3536 -0.1137 -0.1051
  197DOPC   C2124379   6.296   3.324  13.202  0.0026 -0.9709 -0.5507
  197DOPC   O2224380   6.183   3.355  13.239  0.3262  0.5621 -0.0336
  197DOPC   C2224381   6.425   3.393  13.247 -0.4793  0.3758 -0.2533
  197DOPC   H2R24382   6.461   3.467  13.173 -2.2370  1.4958 -0.0703
  197DOPC   H2S24383   6.495   3.307  13.243  0.8394  1.4475 -1.0153
  197DOPC    C324384   6.192   3.034  13.179  0.0433 -0.2208 -0.3118
  197DOPC    HX24385   6.287   2.976  13.167  0.7801  0.7505  0.6250
  197DOPC    HY24386   6.118   2.955  13.154  0.4155 -1.5150  2.2485
  197DOPC   O3124387   6.184   3.073  13.318  0.1289 -0.0574  0.4655
  197DOPC   C3124388   6.062   3.114  13.360  0.0585 -0.3532  0.3897
  197DOPC   O3224389   5.961   3.127  13.291 -0.6208 -0.1889  0.4140
  197DOPC   C3224390   6.073   3.140  13.511  0.2120  0.0866 -0.7009
  197DOPC   H2X24391   6.131   3.057  13.558  0.5927 -0.3631 -1.9402
  197DOPC   H2Y24392   6.115   3.242  13.524 -2.8295  1.3847 -0.3672
  197DOPC   C2324393   6.411   3.464  13.386 -0.6282  0.3058  0.1206
  197DOPC   H3R24394   6.317   3.521  13.372 -1.4835 -0.9811  0.4909
  197DOPC   H3S24395   6.490   3.542  13.389 -0.3045  0.0994 -1.7214
  197DOPC   C2424396   6.406   3.373  13.505  0.3960 -0.6890  0.3106
  197DOPC   H4R24397   6.507   3.346  13.542  0.1810 -1.5891  0.2469
  197DOPC   H4S24398   6.355   3.280  13.474  1.6432 -1.5369  0.7444
  197DOPC   C2524399   6.332   3.430  13.630  1.1577 -0.1343  0.2222
  197DOPC   H5R24400   6.228   3.450  13.596  0.4016  0.7028  2.7951
  197DOPC   H5S24401   6.369   3.533  13.647 -2.1925  1.2471 -0.0304
  197DOPC   C2624402   6.340   3.336  13.753  0.3074  0.4169  0.8613
  197DOPC   H6R24403   6.446   3.318  13.781  0.3109  0.8842  1.1600
  197DOPC   H6S24404   6.293   3.239  13.724 -0.1834  1.3905 -1.8816
  197DOPC   C2724405   6.269   3.399  13.874  0.1230  0.0654 -0.3401
  197DOPC   H7R24406   6.255   3.320  13.952 -0.6897 -0.2151 -0.7551
  197DOPC   H7S24407   6.177   3.442  13.830 -0.9729 -0.4338  1.3623
  197DOPC   C2824408   6.334   3.517  13.945  0.0866 -0.8826  0.1445
  197DOPC   H8R24409   6.377   3.590  13.873 -0.1096 -0.2692  0.6434
  197DOPC   H8S24410   6.425   3.485  13.999  0.6186  0.4845  0.0850
  197DOPC   C2924411   6.237   3.578  14.040  0.3297  0.7767  0.6824
  197DOPC   H9R24412   6.183   3.662  13.993  3.0519  2.2507 -0.0273
  197DOPC  C21024413   6.224   3.544  14.171 -0.4765 -0.6878  0.6571
  197DOPC  H10R24414   6.160   3.609  14.233  0.9043  0.8089  0.5901
  197DOPC  C21124415   6.283   3.424  14.229 -0.2390  0.3980  0.3011
  197DOPC  H11R24416   6.312   3.348  14.152  0.6608  0.1837  0.8346
  197DOPC  H11S24417   6.215   3.371  14.298  1.0582  0.5884  1.7815
  197DOPC  C21224418   6.416   3.445  14.301  0.1173  0.1071 -0.1927
  197DOPC  H12R24419   6.482   3.506  14.235 -1.5000  0.9391 -1.1113
  197DOPC  H12S24420   6.460   3.344  14.316  0.7497  0.6427  1.8987
  197DOPC  C21324421   6.392   3.520  14.435 -0.0258 -0.0684 -0.1114
  197DOPC  H13R24422   6.325   3.606  14.414 -1.3533 -1.1175 -0.2902
  197DOPC  H13S24423   6.485   3.564  14.477  1.0130 -2.2995  0.1079
  197DOPC  C21424424   6.330   3.438  14.547 -0.2858  0.9235 -0.8766
  197DOPC  H14R24425   6.237   3.387  14.514 -0.1971  1.0604 -1.3587
  197DOPC  H14S24426   6.292   3.499  14.631 -0.7164 -0.6991  0.1501
  197DOPC  C21524427   6.426   3.332  14.600  0.4648  0.2418  0.0790
  197DOPC  H15R24428   6.531   3.368  14.610  1.6783 -3.0749  0.4907
  197DOPC  H15S24429   6.421   3.252  14.524 -1.2333  0.2558  0.1345
  197DOPC  C21624430   6.386   3.283  14.741 -0.3318 -0.1735 -0.6230
  197DOPC  H16R24431   6.276   3.270  14.735 -0.9356  2.6193  1.8137
  197DOPC  H16S24432   6.401   3.363  14.817 -2.8694 -0.7697  0.6426
  197DOPC  C21724433   6.468   3.154  14.789  0.2954 -0.3464  0.1408
  197DOPC  H17R24434   6.576   3.169  14.769  0.4850 -1.5504  0.1698
  197DOPC  H17S24435   6.440   3.063  14.731  0.3185  1.3750 -2.7590
  197DOPC  C21824436   6.460   3.126  14.936  0.3897  0.4123 -0.4429
  197DOPC  H18R24437   6.359   3.110  14.980 -0.2951  2.8377 -0.9609
  197DOPC  H18S24438   6.505   3.216  14.982  0.8748  0.2446 -0.5829
  197DOPC  H18T24439   6.521   3.035  14.953 -0.1444  0.3841  1.4782
  197DOPC   C3324440   5.937   3.157  13.582  0.3546  0.8352 -0.1497
  197DOPC   H3X24441   5.888   3.057  13.588  2.0721 -0.0258  0.2013
  197DOPC   H3Y24442   5.875   3.213  13.508 -1.1829 -0.4364  0.1106
  197DOPC   C3424443   5.940   3.205  13.724  0.2980 -1.1741 -0.1068
  197DOPC   H4X24444   5.845   3.256  13.751  1.9178  1.7906  0.5158
  197DOPC   H4Y24445   6.017   3.285  13.732  0.4644 -0.9995 -2.5688
  197DOPC   C3524446   5.973   3.104  13.825  0.0310  0.2216 -1.1392
  197DOPC   H5X24447   6.067   3.053  13.797  2.2608  2.5219  1.4700
  197DOPC   H5Y24448   5.882   3.041  13.824 -0.3800  0.7638 -0.0992
  197DOPC   C3624449   5.991   3.159  13.973 -0.5481  0.4740 -0.5388
  197DOPC   H6X24450   6.094   3.201  13.971 -0.9388  1.4502 -2.7287
  197DOPC   H6Y24451   5.922   3.246  13.983 -0.1187  0.8013 -0.3419
  197DOPC   C3724452   5.952   3.062  14.085 -0.4477 -0.2398  0.1633
  197DOPC   H7X24453   5.843   3.041  14.088 -0.5011  0.0637  0.5710
  197DOPC   H7Y24454   6.003   2.967  14.061 -0.5839 -0.0444 -0.9581
  197DOPC   C3824455   6.004   3.113  14.226  0.6786 -0.0672  0.4554
  197DOPC   H8X24456   6.113   3.133  14.223  0.4403  1.3933  0.5574
  197DOPC   H8Y24457   5.996   3.023  14.290 -0.3886 -1.2677 -1.2979
  197DOPC   C3924458   5.907   3.219  14.276  0.3319  0.1800  0.5367
  197DOPC   H9X24459   5.860   3.289  14.205 -0.7431  0.1520  1.1978
  197DOPC  C31024460   5.898   3.262  14.399 -0.6171 -0.5679  0.1584
  197DOPC  H10X24461   5.825   3.343  14.413 -0.1576 -0.1014 -0.1153
  197DOPC  C31124462   5.960   3.208  14.526  0.6634 -0.0995 -0.4997
  197DOPC  H11X24463   6.048   3.269  14.555  0.7789 -0.2444 -0.5409
  197DOPC  H11Y24464   6.001   3.107  14.504 -1.5674 -1.3291  0.6127
  197DOPC  C31224465   5.864   3.193  14.647 -0.3946 -0.5153  0.0975
  197DOPC  H12X24466   5.774   3.133  14.622  0.3983 -0.6100 -2.9577
  197DOPC  H12Y24467   5.828   3.292  14.682  2.9450  0.4478  1.2407
  197DOPC  C31324468   5.934   3.134  14.766  0.1878  0.1073  0.3760
  197DOPC  H13X24469   5.967   3.029  14.753 -0.3359 -0.3467  2.3720
  197DOPC  H13Y24470   6.021   3.193  14.803 -0.2475  0.2363  1.2272
  197DOPC  C31424471   5.833   3.125  14.888  0.5448 -0.1885  0.4681
  197DOPC  H14X24472   5.814   3.231  14.914  1.3036  0.2315 -0.6324
  197DOPC  H14Y24473   5.740   3.071  14.859  1.1787 -1.3248  0.4754
  197DOPC  C31524474   5.884   3.054  15.017 -0.0533  0.0326  0.7928
  197DOPC  H15X24475   5.816   3.074  15.103 -0.2504  1.0388  0.4167
  197DOPC  H15Y24476   5.984   3.092  15.046 -0.0963 -0.7715  2.0485
  197DOPC  C31624477   5.906   2.898  14.995 -0.7180 -0.0053 -0.6058
  197DOPC  H16X24478   5.970   2.884  14.905  0.9741  1.2697  0.3399
  197DOPC  H16Y24479   5.949   2.848  15.084 -0.3559  0.5127 -0.4853
  197DOPC  C31724480   5.773   2.825  14.968  0.0483  0.1660 -0.0648
  197DOPC  H17X24481   5.703   2.863  15.046 -1.5943 -1.6406 -0.5640
  197DOPC  H17Y24482   5.715   2.866  14.882 -0.6109  0.9322  0.7185
  197DOPC  C31824483   5.792   2.673  14.978  0.3576 -0.6199  0.1670
  197DOPC  H18X24484   5.901   2.652  14.985  0.4735 -0.1536 -0.1862
  197DOPC  H18Y24485   5.744   2.638  15.072  1.6820 -2.3525  0.2399
  197DOPC  H18Z24486   5.746   2.625  14.889  2.0023  0.7986 -1.5441
  198DOPC     N24487   2.114   2.648  12.474 -0.2781  0.5699  0.4838
  198DOPC   C1224488   1.978   2.705  12.438  0.5615  0.3602  0.3233
  198DOPC  H12A24489   1.899   2.668  12.502  1.9646  0.2389  2.0471
  198DOPC  H12B24490   1.945   2.665  12.343  0.7189 -1.4743  1.0004
  198DOPC   C1324491   2.211   2.712  12.382 -0.3035 -0.2187 -0.3983
  198DOPC  H13A24492   2.195   2.700  12.276  0.9330  3.3596 -1.1527
  198DOPC  H13B24493   2.221   2.818  12.402  2.4588  0.0912 -2.7279
  198DOPC  H13C24494   2.308   2.677  12.416 -0.2198 -0.9189 -1.3098
  198DOPC   C1424495   2.122   2.497  12.461  0.2184 -0.1733 -0.2721
  198DOPC  H14A24496   2.114   2.464  12.358  1.4714  0.3332 -0.5472
  198DOPC  H14B24497   2.206   2.463  12.519 -0.6936 -0.2634  1.0385
  198DOPC  H14C24498   2.034   2.454  12.506 -1.4829  3.4760  0.2997
  198DOPC   C1524499   2.147   2.686  12.614 -0.1205  0.0926  0.2927
  198DOPC  H15A24500   2.134   2.792  12.626  1.9298  0.4483 -0.1543
  198DOPC  H15B24501   2.248   2.656  12.641 -0.1791  0.3041  0.7466
  198DOPC  H15C24502   2.078   2.647  12.687 -0.5992 -2.4003 -1.3635
  198DOPC   C1124503   1.964   2.866  12.428 -0.1645  0.1559 -0.5345
  198DOPC  H11A24504   2.036   2.911  12.356 -0.9631 -0.4850 -1.7636
  198DOPC  H11B24505   1.879   2.891  12.361 -1.1594 -1.0380  0.2389
  198DOPC     P24506   1.857   2.889  12.663  0.2166  0.0148  0.0914
  198DOPC   O1324507   1.875   2.745  12.709 -0.1377 -0.5378  0.1369
  198DOPC   O1424508   1.723   2.926  12.610 -0.1764  0.1839 -0.5358
  198DOPC   O1224509   1.969   2.925  12.556  0.2754  0.2854  0.4723
  198DOPC   O1124510   1.880   2.980  12.794 -0.5020  0.3294  0.0165
  198DOPC    C124511   1.983   3.083  12.779 -0.0770 -0.7149  0.0285
  198DOPC    HA24512   1.949   3.163  12.848  0.4696  1.6740 -2.2932
  198DOPC    HB24513   1.983   3.124  12.675  0.1168 -0.8660 -0.0327
  198DOPC    C224514   2.125   3.026  12.813  0.5877  0.5631  0.6864
  198DOPC    HS24515   2.146   2.957  12.729  0.8934 -1.1141  2.0890
  198DOPC   O2124516   2.119   2.958  12.944 -0.8161 -0.0358  0.0357
  198DOPC   C2124517   2.199   2.854  12.958  0.8728 -0.0100 -0.2022
  198DOPC   O2224518   2.277   2.800  12.881 -0.2502 -0.8149 -0.0680
  198DOPC   C2224519   2.177   2.794  13.104 -0.2458  0.8331  0.1429
  198DOPC   H2R24520   2.230   2.697  13.106 -2.7521 -0.6288 -0.4132
  198DOPC   H2S24521   2.068   2.779  13.121 -0.4525 -0.5632 -2.0747
  198DOPC    C324522   2.238   3.132  12.797 -0.0579 -0.2815 -0.0318
  198DOPC    HX24523   2.194   3.216  12.855 -0.5231 -0.1690 -0.5470
  198DOPC    HY24524   2.245   3.159  12.690  1.6978 -1.6818 -0.3285
  198DOPC   O3124525   2.368   3.098  12.846  0.5500  0.4912  0.7074
  198DOPC   C3124526   2.421   3.166  12.943  0.2691 -0.1883 -0.2998
  198DOPC   O3224527   2.390   3.283  12.972 -0.3269 -0.0630 -0.0052
  198DOPC   C3224528   2.523   3.080  13.023 -0.7830  0.4998 -0.2349
  198DOPC   H2X24529   2.483   2.976  13.028  1.0109 -0.2948 -1.4985
  198DOPC   H2Y24530   2.621   3.065  12.972 -1.4484 -1.5058 -1.0198
  198DOPC   C2324531   2.246   2.879  13.208  0.1985 -0.3430  0.1376
  198DOPC   H3R24532   2.225   2.986  13.187 -2.1623 -0.7156  0.2461
  198DOPC   H3S24533   2.356   2.870  13.202  0.1566 -0.0585 -1.3842
  198DOPC   C2424534   2.202   2.830  13.342 -0.3158 -0.0419 -0.1573
  198DOPC   H4R24535   2.211   2.720  13.341 -2.3750 -0.2395 -1.0254
  198DOPC   H4S24536   2.099   2.866  13.365  0.3999  1.7625  0.4659
  198DOPC   C2524537   2.292   2.881  13.453  0.2031 -0.1467  0.1332
  198DOPC   H5R24538   2.301   2.992  13.449  2.6297 -0.2334  1.5963
  198DOPC   H5S24539   2.390   2.836  13.427  0.2099  0.2019 -0.4676
  198DOPC   C2624540   2.252   2.837  13.600 -0.5124  0.5377  0.4714
  198DOPC   H6R24541   2.141   2.839  13.601 -0.5178  0.2181  0.4024
  198DOPC   H6S24542   2.297   2.905  13.676  0.2974  1.8034 -1.0738
  198DOPC   C2724543   2.299   2.697  13.633 -0.2775 -0.8662  0.4300
  198DOPC   H7R24544   2.403   2.690  13.595 -0.1903  2.8094 -0.3828
  198DOPC   H7S24545   2.258   2.620  13.564 -1.2717  0.1835 -0.1983
  198DOPC   C2824546   2.295   2.655  13.782 -0.6495 -0.2800  0.4416
  198DOPC   H8R24547   2.355   2.731  13.837 -2.0290  0.6865  0.6567
  198DOPC   H8S24548   2.347   2.558  13.789 -1.7117 -0.8297  0.8275
  198DOPC   C2924549   2.153   2.658  13.824 -0.1272 -0.3046  0.0114
  198DOPC   H9R24550   2.100   2.751  13.801 -0.3125 -0.7671 -1.6098
  198DOPC  C21024551   2.077   2.552  13.858  0.0995 -0.7503 -0.5819
  198DOPC  H10R24552   1.977   2.580  13.893  0.8033  1.9057 -0.4461
  198DOPC  C21124553   2.120   2.402  13.855  0.0127 -0.8108  0.1269
  198DOPC  H11R24554   2.205   2.389  13.784  0.5168  2.0690  0.0911
  198DOPC  H11S24555   2.040   2.335  13.816 -0.7710  0.1335  0.0842
  198DOPC  C21224556   2.171   2.355  13.991  0.1507  0.3099 -0.8510
  198DOPC  H12R24557   2.248   2.428  14.021  1.4832 -1.2939 -0.2046
  198DOPC  H12S24558   2.218   2.256  13.972  0.9190  0.5837 -0.4198
  198DOPC  C21324559   2.057   2.318  14.094 -0.0947 -0.2498  0.5682
  198DOPC  H13R24560   2.004   2.223  14.070  1.7691 -1.2984  0.4768
  198DOPC  H13S24561   1.984   2.400  14.075  1.3086  0.6717 -1.1840
  198DOPC  C21424562   2.100   2.327  14.240 -0.2766 -0.5794 -0.2454
  198DOPC  H14R24563   2.171   2.248  14.273 -0.1006 -0.1649  0.3834
  198DOPC  H14S24564   2.008   2.300  14.295  0.4128  0.4120  1.4770
  198DOPC  C21524565   2.142   2.468  14.282 -0.4776  0.3690  0.0637
  198DOPC  H15R24566   2.067   2.540  14.243 -0.7756  0.0348  0.0135
  198DOPC  H15S24567   2.236   2.499  14.230 -0.2275  0.2664  0.4528
  198DOPC  C21624568   2.149   2.483  14.434  0.0775 -0.1269  0.0736
  198DOPC  H16R24569   2.251   2.445  14.458  0.9351  2.5129  0.8910
  198DOPC  H16S24570   2.062   2.428  14.475 -0.6098  0.7461 -0.1938
  198DOPC  C21724571   2.128   2.636  14.472 -0.0692  0.1731  0.0491
  198DOPC  H17R24572   2.025   2.661  14.438  0.0307  1.1079  0.4154
  198DOPC  H17S24573   2.193   2.693  14.403 -3.5413  2.2568 -1.8170
  198DOPC  C21824574   2.158   2.663  14.619  0.4426 -0.6328  0.0411
  198DOPC  H18R24575   2.264   2.637  14.640  0.8433  0.9612  0.1211
  198DOPC  H18S24576   2.088   2.597  14.675 -1.7507 -0.1352 -1.9423
  198DOPC  H18T24577   2.132   2.769  14.640 -0.2147 -0.6750 -0.5172
  198DOPC   C3324578   2.552   3.121  13.162  0.9606  0.0226 -0.1418
  198DOPC   H3X24579   2.454   3.142  13.210  0.5574 -1.3399 -0.3175
  198DOPC   H3Y24580   2.612   3.215  13.164  3.1137 -1.2849  0.1377
  198DOPC   C3424581   2.613   3.020  13.266 -0.3211  0.4295 -0.3395
  198DOPC   H4X24582   2.720   2.998  13.245 -0.5556  0.8761 -2.1126
  198DOPC   H4Y24583   2.554   2.926  13.260  0.2251  0.1696 -2.0322
  198DOPC   C3524584   2.606   3.092  13.404 -0.5778  0.6521  0.2374
  198DOPC   H5X24585   2.500   3.113  13.427 -0.7357  2.2764 -1.7079
  198DOPC   H5Y24586   2.645   3.190  13.370 -1.5777  0.3639 -1.9542
  198DOPC   C3624587   2.697   3.031  13.508  0.4586 -0.0340 -0.2834
  198DOPC   H6X24588   2.800   3.023  13.467  0.3064 -1.3080 -0.4782
  198DOPC   H6Y24589   2.689   3.111  13.584 -1.5891  0.9837 -1.5039
  198DOPC   C3724590   2.640   2.894  13.558 -0.4212 -0.7901 -0.1104
  198DOPC   H7X24591   2.532   2.894  13.586 -0.2782 -1.8740  0.5158
  198DOPC   H7Y24592   2.657   2.815  13.483  1.6369 -1.9678  1.4961
  198DOPC   C3824593   2.717   2.842  13.682 -0.0761  0.1919 -0.3534
  198DOPC   H8X24594   2.824   2.848  13.650  0.4704 -0.9847  1.1276
  198DOPC   H8Y24595   2.691   2.738  13.710  1.8750 -0.0017  0.9055
  198DOPC   C3924596   2.683   2.936  13.795  0.0001 -0.4583  0.0660
  198DOPC   H9X24597   2.713   3.039  13.773  0.3405 -0.3026  1.2087
  198DOPC  C31024598   2.640   2.905  13.919  0.5786  0.4345 -0.3830
  198DOPC  H10X24599   2.622   2.981  13.996  1.1112  0.6745 -0.4894
  198DOPC  C31124600   2.610   2.763  13.964 -0.4882 -0.0845  0.5476
  198DOPC  H11X24601   2.700   2.716  14.009  0.4452 -1.6131 -2.5835
  198DOPC  H11Y24602   2.587   2.696  13.878 -2.3992  1.2303 -0.0470
  198DOPC  C31224603   2.493   2.752  14.059  0.4709 -0.1480  0.8566
  198DOPC  H12X24604   2.466   2.647  14.084  1.0595 -0.4239  0.3768
  198DOPC  H12Y24605   2.407   2.802  14.010  1.7998  1.3460 -0.0474
  198DOPC  C31324606   2.515   2.820  14.198  0.5127 -0.0894 -0.5818
  198DOPC  H13X24607   2.528   2.930  14.202 -0.4387  0.0528 -1.2110
  198DOPC  H13Y24608   2.422   2.798  14.254  0.7696 -0.6665 -0.3750
  198DOPC  C31424609   2.623   2.748  14.287  0.0043  0.3472  0.4775
  198DOPC  H14X24610   2.609   2.637  14.288  0.2892  0.2848 -0.6097
  198DOPC  H14Y24611   2.713   2.769  14.226 -0.4445 -1.9023 -1.1105
  198DOPC  C31524612   2.624   2.807  14.429 -0.3739  0.2920  0.3130
  198DOPC  H15X24613   2.598   2.915  14.428  3.5449  1.3960  0.6188
  198DOPC  H15Y24614   2.733   2.800  14.449 -0.4061  2.5553  1.6286
  198DOPC  C31624615   2.562   2.713  14.532  0.1556  0.1721  0.3423
  198DOPC  H16X24616   2.453   2.708  14.511  0.4297  0.1514 -1.1329
  198DOPC  H16Y24617   2.613   2.615  14.519  1.6204  0.9923 -0.3749
  198DOPC  C31724618   2.580   2.761  14.681  0.0878  0.0581  0.7379
  198DOPC  H17X24619   2.686   2.794  14.693  0.6270 -1.9001  1.8881
  198DOPC  H17Y24620   2.507   2.842  14.700 -0.6072 -0.6733  1.2685
  198DOPC  C31824621   2.552   2.650  14.782 -0.2656  0.6179 -0.3517
  198DOPC  H18X24622   2.442   2.642  14.791 -0.1732 -1.4820 -0.7348
  198DOPC  H18Y24623   2.580   2.552  14.738  0.2701 -0.1293  1.5320
  198DOPC  H18Z24624   2.604   2.665  14.879 -0.1355  1.1033 -0.4895
  199DOPC     N24625   1.149   2.953  12.658  0.7069  0.6301 -0.4269
  199DOPC   C1224626   1.013   2.978  12.717  0.3710 -0.7251  0.9633
  199DOPC  H12A24627   1.006   3.032  12.810 -0.0408 -1.4484  1.3623
  199DOPC  H12B24628   0.965   2.886  12.747  2.1294 -1.0916  2.8646
  199DOPC   C1324629   1.237   2.899  12.768  0.3858  0.5524  0.1743
  199DOPC  H13A24630   1.195   2.814  12.819  0.8383 -0.5559 -1.2265
  199DOPC  H13B24631   1.329   2.874  12.716 -1.2235 -1.7237 -1.7920
  199DOPC  H13C24632   1.266   2.977  12.838  0.6710 -1.2584  2.1881
  199DOPC   C1424633   1.210   3.082  12.615 -0.1936  0.2671 -0.3282
  199DOPC  H14A24634   1.223   3.156  12.693  0.3573 -0.2565  0.0894
  199DOPC  H14B24635   1.309   3.072  12.573  0.2812  0.2779  0.7527
  199DOPC  H14C24636   1.142   3.121  12.541 -0.2429 -4.3118 -3.0592
  199DOPC   C1524637   1.143   2.857  12.542 -0.3629  0.0680 -0.8273
  199DOPC  H15A24638   1.244   2.832  12.511 -0.0580 -0.1208  0.2898
  199DOPC  H15B24639   1.094   2.902  12.457  1.4653  1.4304 -1.2388
  199DOPC  H15C24640   1.092   2.767  12.574 -0.5201  0.8708  1.3086
  199DOPC   C1124641   0.918   3.050  12.619 -0.4004 -0.2945 -0.0681
  199DOPC  H11A24642   0.921   2.991  12.525 -0.4696  0.3717 -0.4911
  199DOPC  H11B24643   0.816   3.038  12.662  0.2584 -2.1835  1.1059
  199DOPC     P24644   0.876   3.303  12.683 -0.3234 -0.0392 -0.4789
  199DOPC   O1324645   0.754   3.341  12.615  0.3621  0.2654 -0.2831
  199DOPC   O1424646   0.983   3.399  12.701  0.1993  0.0622 -0.1779
  199DOPC   O1224647   0.944   3.189  12.595  0.0715 -0.5311  0.2799
  199DOPC   O1124648   0.842   3.220  12.814  0.0621  0.0529  0.0427
  199DOPC    C124649   0.706   3.214  12.861  0.0404 -0.2780 -0.1688
  199DOPC    HA24650   0.645   3.164  12.782  0.4865 -2.8202  0.9809
  199DOPC    HB24651   0.662   3.315  12.875  1.2653  0.1785  0.5198
  199DOPC    C224652   0.698   3.141  12.998 -0.1212 -1.0809  0.3281
  199DOPC    HS24653   0.746   3.208  13.072  1.2605 -0.9986 -0.6079
  199DOPC   O2124654   0.765   3.011  12.995 -0.5915 -0.2025 -0.3990
  199DOPC   C2124655   0.807   2.962  13.102  0.3136 -0.2045 -0.0828
  199DOPC   O2224656   0.792   3.000  13.218 -0.5552  0.0786  0.1461
  199DOPC   C2224657   0.886   2.840  13.066 -0.8466 -0.3406 -0.8789
  199DOPC   H2R24658   0.940   2.853  12.969  0.3811  1.0166 -0.0658
  199DOPC   H2S24659   0.823   2.749  13.059 -0.0690 -0.9681  0.0783
  199DOPC    C324660   0.548   3.134  13.042 -0.3169  0.6618 -0.1966
  199DOPC    HX24661   0.495   3.050  12.993 -0.3135 -0.7727  2.1070
  199DOPC    HY24662   0.484   3.220  13.016 -0.2371  0.9166  0.4435
  199DOPC   O3124663   0.535   3.117  13.188  0.4529  0.4419  0.7294
  199DOPC   C3124664   0.549   3.218  13.267 -0.5151  0.2234  0.2502
  199DOPC   O3224665   0.574   3.331  13.236 -0.1548  0.0338  0.5291
  199DOPC   C3224666   0.545   3.161  13.409 -0.7558  1.3909 -0.2809
  199DOPC   H2X24667   0.456   3.097  13.426 -0.5797  0.5279 -2.3554
  199DOPC   H2Y24668   0.632   3.094  13.422 -1.3623  0.7912  0.8824
  199DOPC   C2324669   1.003   2.830  13.162 -0.0757  0.3650 -0.2293
  199DOPC   H3R24670   1.058   2.923  13.188  2.6776 -1.4154  0.7410
  199DOPC   H3S24671   1.081   2.761  13.123  0.7463 -0.9681  3.4272
  199DOPC   C2424672   0.975   2.767  13.300  0.5389 -0.3870  0.8363
  199DOPC   H4R24673   0.910   2.822  13.371  2.3776  0.9330  1.5576
  199DOPC   H4S24674   1.072   2.752  13.352  0.6654  0.4166  0.8522
  199DOPC   C2524675   0.914   2.621  13.287 -1.0160 -0.5690  0.0018
  199DOPC   H5R24676   0.963   2.570  13.201  0.1888  0.3365  0.1246
  199DOPC   H5S24677   0.808   2.630  13.253 -0.3727 -0.6618 -2.1526
  199DOPC   C2624678   0.924   2.542  13.418  0.2064  0.4207  0.1505
  199DOPC   H6R24679   1.029   2.511  13.433 -0.5335 -1.7651  1.2280
  199DOPC   H6S24680   0.860   2.455  13.393 -1.9183  1.7166  0.7729
  199DOPC   C2724681   0.873   2.604  13.554 -0.4392  0.2602 -0.1724
  199DOPC   H7R24682   0.762   2.606  13.550 -0.6348 -3.7881 -1.0782
  199DOPC   H7S24683   0.924   2.701  13.573 -0.8493 -0.1054  3.5546
  199DOPC   C2824684   0.901   2.514  13.680 -0.1285 -0.4363 -0.1783
  199DOPC   H8R24685   1.004   2.478  13.659 -0.8258 -1.7625 -1.5393
  199DOPC   H8S24686   0.843   2.419  13.668  0.8675 -0.9086 -1.5160
  199DOPC   C2924687   0.888   2.577  13.812  0.3842 -0.2044  0.0570
  199DOPC   H9R24688   0.810   2.655  13.815  1.3566  0.8363 -0.8646
  199DOPC  C21024689   0.959   2.538  13.920  0.8793  0.2599 -0.3201
  199DOPC  H10R24690   0.948   2.607  14.005  0.6608  1.0310 -0.9646
  199DOPC  C21124691   1.072   2.438  13.930 -0.2495  0.0960  0.0095
  199DOPC  H11R24692   1.097   2.425  13.823  1.1729  2.2493  0.0079
  199DOPC  H11S24693   1.034   2.346  13.980 -1.2642  1.2519  1.4623
  199DOPC  C21224694   1.201   2.484  14.007  0.6205  0.8587 -0.2811
  199DOPC  H12R24695   1.220   2.588  13.972 -1.3588  0.8490 -1.5755
  199DOPC  H12S24696   1.286   2.416  13.985  0.6973  0.7513  0.3276
  199DOPC  C21324697   1.162   2.488  14.158  0.0950  0.6396 -0.3928
  199DOPC  H13R24698   1.156   2.383  14.193 -0.2828  0.1107 -1.9488
  199DOPC  H13S24699   1.065   2.543  14.158 -1.4520 -1.8937 -0.5420
  199DOPC  C21424700   1.269   2.567  14.239  0.2537 -0.3662 -0.1442
  199DOPC  H14R24701   1.266   2.670  14.199 -0.6590  0.3380  1.6352
  199DOPC  H14S24702   1.372   2.526  14.240  0.1252 -0.8763  3.0461
  199DOPC  C21524703   1.216   2.590  14.382 -0.1516 -0.1483 -0.2947
  199DOPC  H15R24704   1.115   2.635  14.381 -0.6054 -1.1147 -1.5864
  199DOPC  H15S24705   1.280   2.671  14.422  1.5030 -1.4890 -0.1045
  199DOPC  C21624706   1.222   2.462  14.478 -0.4907 -0.2945 -0.0338
  199DOPC  H16R24707   1.328   2.430  14.485 -0.5977 -0.8795 -0.8799
  199DOPC  H16S24708   1.160   2.385  14.427 -0.1145 -0.0724 -0.8497
  199DOPC  C21724709   1.174   2.500  14.624 -0.3596  0.2690  0.0395
  199DOPC  H17R24710   1.185   2.610  14.638 -3.3418  0.6411  0.1066
  199DOPC  H17S24711   1.239   2.443  14.694  0.9527 -1.2853 -2.3223
  199DOPC  C21824712   1.027   2.464  14.639 -0.6560 -0.0103  0.6976
  199DOPC  H18R24713   1.005   2.524  14.731  0.9559  1.8767 -0.0629
  199DOPC  H18S24714   1.005   2.358  14.664  1.5181 -0.1006  2.6225
  199DOPC  H18T24715   0.960   2.502  14.559 -0.7559 -2.0842 -0.2600
  199DOPC   C3324716   0.530   3.270  13.516 -0.2141  0.1144 -0.0340
  199DOPC   H3X24717   0.466   3.355  13.486 -0.3666  0.4018  1.0766
  199DOPC   H3Y24718   0.631   3.315  13.527 -0.5756  0.7305  0.7993
  199DOPC   C3424719   0.499   3.206  13.647 -0.6211  0.2896  0.2201
  199DOPC   H4X24720   0.571   3.124  13.669 -0.7993 -1.4158 -4.3737
  199DOPC   H4Y24721   0.399   3.157  13.644 -0.7860  0.6116  0.4616
  199DOPC   C3524722   0.486   3.303  13.761  0.1617  0.1975 -0.4089
  199DOPC   H5X24723   0.413   3.381  13.731 -1.2614 -0.2974  1.5724
  199DOPC   H5Y24724   0.581   3.347  13.799  0.2718 -0.0849 -0.3548
  199DOPC   C3624725   0.426   3.224  13.881 -0.5562 -0.1440 -0.2339
  199DOPC   H6X24726   0.330   3.186  13.841 -1.3223  2.9389 -1.6060
  199DOPC   H6Y24727   0.500   3.143  13.895  2.3652  1.9117 -2.5735
  199DOPC   C3724728   0.404   3.309  14.015 -0.9484  0.1036  0.1892
  199DOPC   H7X24729   0.359   3.407  13.987 -1.9624  0.2406  2.1622
  199DOPC   H7Y24730   0.338   3.250  14.082  0.5642 -0.3415  1.3591
  199DOPC   C3824731   0.528   3.342  14.097 -0.0609  0.1591  0.8120
  199DOPC   H8X24732   0.499   3.410  14.180 -0.6892 -0.9974  1.5527
  199DOPC   H8Y24733   0.591   3.393  14.020  0.8528 -1.8351  0.1865
  199DOPC   C3924734   0.616   3.229  14.147  0.5701  0.0539  0.1189
  199DOPC   H9X24735   0.706   3.206  14.089 -1.7523 -1.4948 -3.2282
  199DOPC  C31024736   0.600   3.177  14.266 -0.3297 -0.0653 -0.9014
  199DOPC  H10X24737   0.671   3.105  14.310 -4.2450 -3.0567  1.1207
  199DOPC  C31124738   0.483   3.192  14.357 -0.3227  0.1343 -0.0455
  199DOPC  H11X24739   0.463   3.089  14.394  1.4685 -1.1496 -2.3759
  199DOPC  H11Y24740   0.384   3.212  14.309 -0.9087  1.5851  1.6397
  199DOPC  C31224741   0.499   3.293  14.465  0.4734  0.2062 -0.9940
  199DOPC  H12X24742   0.412   3.284  14.533  1.4310 -3.3493 -0.0117
  199DOPC  H12Y24743   0.490   3.388  14.408  2.3787 -0.2529 -2.1567
  199DOPC  C31324744   0.628   3.285  14.548 -0.7434  0.6278 -0.1504
  199DOPC  H13X24745   0.619   3.200  14.619 -0.6060  2.1314  1.7704
  199DOPC  H13Y24746   0.712   3.273  14.476 -0.6580 -3.1224  0.3856
  199DOPC  C31424747   0.643   3.398  14.653  0.2859  0.1229  0.2650
  199DOPC  H14X24748   0.626   3.498  14.608  0.6317 -0.2071 -0.6336
  199DOPC  H14Y24749   0.571   3.393  14.737  0.2215 -0.3668  0.1812
  199DOPC  C31524750   0.787   3.395  14.700 -0.5197 -0.1646 -0.4929
  199DOPC  H15X24751   0.846   3.431  14.613 -0.3021  1.2303  0.2066
  199DOPC  H15Y24752   0.816   3.291  14.727 -0.6237 -0.5063 -1.6407
  199DOPC  C31624753   0.820   3.487  14.823  0.0530  0.0521 -0.2742
  199DOPC  H16X24754   0.786   3.592  14.809 -0.0678 -0.2476 -2.6359
  199DOPC  H16Y24755   0.772   3.436  14.909 -1.6953 -0.7152 -1.6267
  199DOPC  C31724756   0.972   3.491  14.856  0.3139 -0.2094 -0.9646
  199DOPC  H17X24757   1.023   3.393  14.845 -0.2584 -1.1054  2.8623
  199DOPC  H17Y24758   1.016   3.566  14.787  1.3854  0.6310  0.5594
  199DOPC  C31824759   0.999   3.560  14.991  0.0453 -0.5891  0.1314
  199DOPC  H18X24760   1.040   3.500  15.075  1.5705  1.1274  0.7024
  199DOPC  H18Y24761   1.063   3.651  14.983 -0.9388  0.0659 -0.4354
  199DOPC  H18Z24762   0.902   3.602  15.025 -0.1773 -0.3010 -0.8540
  200DOPC     N24763   4.409   4.965  12.492 -0.0984 -0.0413  0.4011
  200DOPC   C1224764   4.557   4.928  12.535  0.5235 -0.4753  0.2712
  200DOPC  H12A24765   4.612   5.014  12.568 -0.6832  0.9037 -1.1245
  200DOPC  H12B24766   4.617   4.895  12.451  0.5575  0.7198 -0.1873
  200DOPC   C1324767   4.416   5.032  12.356 -0.2759  0.2228 -0.2134
  200DOPC  H13A24768   4.488   4.978  12.296  0.8891 -0.7788  1.9253
  200DOPC  H13B24769   4.322   5.028  12.303 -0.3751  2.4455 -0.2926
  200DOPC  H13C24770   4.453   5.133  12.363  0.2534 -0.0261  0.9876
  200DOPC   C1424771   4.342   5.058  12.587  0.1243 -0.1260 -0.2014
  200DOPC  H14A24772   4.346   5.019  12.688 -0.6882 -0.5341 -0.3111
  200DOPC  H14B24773   4.381   5.158  12.592 -1.6729  0.5592  1.1658
  200DOPC  H14C24774   4.234   5.059  12.578  0.1553 -1.7174 -1.1633
  200DOPC   C1524775   4.336   4.836  12.473 -0.3672  0.4543  0.8190
  200DOPC  H15A24776   4.345   4.797  12.373 -3.8581 -0.0207  0.5747
  200DOPC  H15B24777   4.230   4.849  12.487 -0.3795  0.0667  1.0984
  200DOPC  H15C24778   4.363   4.769  12.553 -1.9731  1.0228  1.8881
  200DOPC   C1124779   4.570   4.828  12.650  0.3044 -0.1367  0.3820
  200DOPC  H11A24780   4.673   4.830  12.691  0.8621  1.1192 -0.9741
  200DOPC  H11B24781   4.504   4.855  12.735  0.5020 -1.4951  0.9954
  200DOPC     P24782   4.631   4.624  12.496 -0.2272  0.2160  0.3109
  200DOPC   O1324783   4.730   4.724  12.445  0.4775 -0.6099  0.3599
  200DOPC   O1424784   4.557   4.551  12.394 -0.0488  0.1849  0.1843
  200DOPC   O1224785   4.536   4.690  12.602  0.4620 -0.0608 -0.2786
  200DOPC   O1124786   4.718   4.526  12.582  0.1347  0.3219 -0.2228
  200DOPC    C124787   4.679   4.406  12.652 -0.0564  0.6503 -0.3530
  200DOPC    HA24788   4.748   4.324  12.621 -1.0649 -0.5142  0.3933
  200DOPC    HB24789   4.578   4.367  12.630  0.2704  0.2893 -1.2622
  200DOPC    C224790   4.702   4.422  12.805  0.3675  0.1265 -0.1633
  200DOPC    HS24791   4.806   4.458  12.820  0.4103 -0.0198 -0.1036
  200DOPC   O2124792   4.683   4.299  12.879  0.1036  0.9966 -0.0379
  200DOPC   C2124793   4.773   4.209  12.869  0.0838 -0.1182  0.1714
  200DOPC   O2224794   4.884   4.222  12.816 -0.5550  0.0553 -0.0659
  200DOPC   C2224795   4.723   4.091  12.968 -0.5367 -0.1341 -0.0796
  200DOPC   H2R24796   4.665   4.015  12.912  0.6598  0.7589 -2.6595
  200DOPC   H2S24797   4.656   4.140  13.043 -2.5693 -1.0084 -1.2493
  200DOPC    C324798   4.610   4.525  12.869  0.0943 -0.6769  0.6158
  200DOPC    HX24799   4.507   4.492  12.846  0.2125 -3.0147  2.9752
  200DOPC    HY24800   4.643   4.615  12.813  0.0799 -0.7991  0.4081
  200DOPC   O3124801   4.632   4.550  13.011 -0.3237  0.3615 -0.5531
  200DOPC   C3124802   4.562   4.473  13.088 -0.7422  0.0108  0.0604
  200DOPC   O3224803   4.462   4.411  13.054  0.4710 -0.4562 -0.4346
  200DOPC   C3224804   4.624   4.461  13.226  0.1443  0.0209  1.2744
  200DOPC   H2X24805   4.730   4.428  13.223  0.0662 -0.1460 -0.6455
  200DOPC   H2Y24806   4.615   4.552  13.290 -1.3832 -0.5173  1.8756
  200DOPC   C2324807   4.837   4.011  13.020  0.0990  0.1173 -0.2139
  200DOPC   H3R24808   4.926   4.067  13.055  1.0137 -1.8511  0.7748
  200DOPC   H3S24809   4.874   3.951  12.934  2.9565 -0.3553  1.1976
  200DOPC   C2424810   4.793   3.911  13.136 -0.2598  0.0637  0.4294
  200DOPC   H4R24811   4.880   3.842  13.128 -1.4651 -1.3452 -1.3703
  200DOPC   H4S24812   4.698   3.859  13.111 -0.7038  1.0286  0.0421
  200DOPC   C2524813   4.760   3.981  13.276 -0.2211  0.4559 -0.4845
  200DOPC   H5R24814   4.664   4.034  13.259 -0.2900  0.0444 -1.4315
  200DOPC   H5S24815   4.837   4.061  13.288  0.6029 -0.1326 -1.6099
  200DOPC   C2624816   4.732   3.893  13.401  0.0167  0.2817  0.4192
  200DOPC   H6R24817   4.654   3.816  13.381 -0.4911  0.3983  1.7897
  200DOPC   H6S24818   4.679   3.938  13.488 -1.4123 -0.3483 -0.0850
  200DOPC   C2724819   4.862   3.811  13.440 -0.1799 -0.0948  0.6207
  200DOPC   H7R24820   4.933   3.884  13.485  0.6623  0.6245 -1.7664
  200DOPC   H7S24821   4.916   3.769  13.353  1.1493  0.0180  1.3698
  200DOPC   C2824822   4.845   3.681  13.528  0.4558  0.3508  0.4383
  200DOPC   H8R24823   4.946   3.649  13.560  1.2911  0.9529 -1.4757
  200DOPC   H8S24824   4.814   3.604  13.454  1.6974  1.1084 -0.9081
  200DOPC   C2924825   4.737   3.673  13.638  0.1876 -0.4498 -0.2182
  200DOPC   H9R24826   4.635   3.646  13.607 -0.7719  1.6144  0.9431
  200DOPC  C21024827   4.750   3.708  13.766  0.0247  0.1460  0.0312
  200DOPC  H10R24828   4.666   3.697  13.837  2.1524 -0.3896  2.6341
  200DOPC  C21124829   4.872   3.763  13.833  0.9939  0.0029 -0.1249
  200DOPC  H11R24830   4.860   3.873  13.843 -0.2726 -0.0623 -0.7355
  200DOPC  H11S24831   4.962   3.745  13.771  0.8629  1.3075 -0.7359
  200DOPC  C21224832   4.900   3.698  13.970  0.0983  0.4012  0.0902
  200DOPC  H12R24833   4.996   3.739  14.007 -0.5970  1.4327  0.8101
  200DOPC  H12S24834   4.919   3.591  13.947  2.9745  1.0509 -0.9149
  200DOPC  C21324835   4.794   3.723  14.087 -0.1619  0.8241 -0.7428
  200DOPC  H13R24836   4.692   3.697  14.051  0.5027 -0.8833 -1.5418
  200DOPC  H13S24837   4.805   3.827  14.124  0.9269  0.2237  0.6869
  200DOPC  C21424838   4.795   3.619  14.207 -0.0916 -0.0798  0.0465
  200DOPC  H14R24839   4.899   3.621  14.247 -0.8994  1.4727  2.2548
  200DOPC  H14S24840   4.764   3.523  14.159 -1.2015  2.1721 -4.1568
  200DOPC  C21524841   4.705   3.667  14.321  0.8727 -0.3280 -1.0410
  200DOPC  H15R24842   4.596   3.655  14.303  0.6323  0.6455 -0.3118
  200DOPC  H15S24843   4.730   3.775  14.334 -1.8513  0.1829  0.7626
  200DOPC  C21624844   4.732   3.601  14.452  0.3284  0.2240 -0.2139
  200DOPC  H16R24845   4.841   3.599  14.477  0.3219 -1.8429 -0.2061
  200DOPC  H16S24846   4.700   3.496  14.442  0.9577 -0.1299  1.1911
  200DOPC  C21724847   4.678   3.666  14.585 -0.3311 -0.8724 -0.1244
  200DOPC  H17R24848   4.568   3.683  14.576  0.0371  1.5535 -0.7432
  200DOPC  H17S24849   4.711   3.772  14.588 -1.6583 -0.3511 -2.0246
  200DOPC  C21824850   4.712   3.597  14.718  0.0654  0.5555  0.1142
  200DOPC  H18R24851   4.710   3.485  14.720  0.7745  0.3785 -3.1287
  200DOPC  H18S24852   4.645   3.632  14.799  2.6704  2.9882  1.3843
  200DOPC  H18T24853   4.813   3.627  14.753 -0.9120  1.8969  1.9116
  200DOPC   C3324854   4.548   4.358  13.309  0.4408  0.2725 -0.4404
  200DOPC   H3X24855   4.554   4.260  13.257  0.4002 -0.0819  0.2115
  200DOPC   H3Y24856   4.441   4.386  13.301  0.5828  1.4082  1.1975
  200DOPC   C3424857   4.600   4.361  13.454 -0.3130 -0.1341  0.0718
  200DOPC   H4X24858   4.564   4.450  13.510  0.4428  0.1504  0.1180
  200DOPC   H4Y24859   4.707   4.391  13.450 -0.0770 -1.0598 -0.9900
  200DOPC   C3524860   4.581   4.223  13.526 -0.1260 -1.0922  0.0437
  200DOPC   H5X24861   4.579   4.139  13.453 -2.0549  1.0072 -2.5115
  200DOPC   H5Y24862   4.484   4.229  13.579 -0.0138 -0.0050  0.1430
  200DOPC   C3624863   4.683   4.217  13.633  0.0431  0.2081  0.0251
  200DOPC   H6X24864   4.686   4.111  13.664 -0.0917 -0.1699 -1.1766
  200DOPC   H6Y24865   4.786   4.244  13.603  1.0493 -1.4049  1.8790
  200DOPC   C3724866   4.644   4.297  13.756  0.0267 -0.2766  0.5244
  200DOPC   H7X24867   4.608   4.395  13.717 -0.3967 -0.3969  0.6102
  200DOPC   H7Y24868   4.556   4.256  13.810  0.3531 -1.4669  0.1777
  200DOPC   C3824869   4.761   4.308  13.854  0.0755  0.0716 -0.1040
  200DOPC   H8X24870   4.736   4.391  13.924  1.1267 -0.5051  0.9976
  200DOPC   H8Y24871   4.856   4.336  13.802  0.1342  0.6394  0.3018
  200DOPC   C3924872   4.778   4.171  13.928 -0.0345 -0.5619 -0.0612
  200DOPC   H9X24873   4.797   4.086  13.861  0.5004 -0.1548 -0.4312
  200DOPC  C31024874   4.775   4.140  14.057 -0.5551  0.1899  0.2945
  200DOPC  H10X24875   4.797   4.035  14.083  0.8276 -0.3307 -2.4796
  200DOPC  C31124876   4.750   4.244  14.166  0.0801  0.3472  0.0197
  200DOPC  H11X24877   4.734   4.339  14.110  0.8976  0.1571 -0.5453
  200DOPC  H11Y24878   4.835   4.262  14.235 -1.3158 -0.2891  1.9979
  200DOPC  C31224879   4.628   4.212  14.255  0.3071 -0.2172  0.4046
  200DOPC  H12X24880   4.561   4.144  14.198  1.3274 -1.3401  0.5109
  200DOPC  H12Y24881   4.570   4.303  14.279 -0.6985 -0.4503 -1.0334
  200DOPC  C31324882   4.664   4.138  14.381  0.3237  0.5155 -0.2332
  200DOPC  H13X24883   4.564   4.120  14.426 -0.1319  0.6226 -1.1880
  200DOPC  H13Y24884   4.709   4.039  14.356 -0.2018  0.7220 -2.1418
  200DOPC  C31424885   4.738   4.222  14.484 -0.0546  0.7767  0.1143
  200DOPC  H14X24886   4.846   4.197  14.479 -0.2058 -0.3071  1.6175
  200DOPC  H14Y24887   4.725   4.331  14.466 -1.5872  0.1473 -3.5942
  200DOPC  C31524888   4.708   4.197  14.630 -0.4318 -0.1891 -0.7234
  200DOPC  H15X24889   4.606   4.236  14.650 -0.8957 -1.2345 -0.9807
  200DOPC  H15Y24890   4.785   4.246  14.694 -0.8427 -1.2507  0.6220
  200DOPC  C31624891   4.702   4.055  14.677 -0.4111 -0.3734  0.8867
  200DOPC  H16X24892   4.623   3.991  14.631  1.3798 -0.8087 -1.7915
  200DOPC  H16Y24893   4.794   4.008  14.635 -0.5738  0.2950 -0.2469
  200DOPC  C31724894   4.697   4.060  14.827 -0.2667 -0.6276 -0.7575
  200DOPC  H17X24895   4.790   4.116  14.852 -0.3687  0.2706 -2.2547
  200DOPC  H17Y24896   4.615   4.128  14.859 -0.3103 -0.1401 -1.8743
  200DOPC  C31824897   4.682   3.925  14.895 -0.1646 -0.4756 -0.0991
  200DOPC  H18X24898   4.598   3.869  14.849 -0.0370  0.9228 -2.2101
  200DOPC  H18Y24899   4.779   3.875  14.875  0.2507 -0.3420  1.5118
  200DOPC  H18Z24900   4.677   3.934  15.005  2.1806 -1.4642  0.1471
  201SOD    SOD24901   5.075   0.958  18.482 -0.1672  0.0430  0.0342
  202SOD    SOD24902   4.020   0.498  10.880  0.1835  0.0017  0.2672
  203SOD    SOD24903   1.405   3.283  18.041  0.3714 -0.0781 -0.2496
  204SOD    SOD24904   3.392   5.238  11.987  0.4056 -0.2357 -0.1561
  205SOD    SOD24905   5.642   4.481  19.585  0.4261  0.4092  0.2051
  206SOD    SOD24906   4.598   0.007  10.133 -0.0548  0.2650 -0.6596
  207SOD    SOD24907   1.869   6.660  11.441  0.1420  0.3564 -0.2569
  208SOD    SOD24908   3.802   5.671  20.773  0.4108  0.3556  0.1337
  209SOD    SOD24909   5.896   2.371  11.058 -0.4917  0.0139  0.1699
  210SOD    SOD24910   3.906   0.641  20.484 -0.1970  0.1740 -0.4683
  211SOD    SOD24911   4.624   5.422  18.324 -0.6745 -0.2911  0.1994
  212SOD    SOD24912   1.978   2.626  18.550  0.1726  0.3817  0.0774
  213SOD    SOD24913   2.748   0.063  12.508 -0.1056  0.1404  0.1904
  214SOD    SOD24914   4.496   2.746  20.639 -0.0038  0.0233  0.0501
  215SOD    SOD24915   2.461   6.420  20.121  0.2975 -0.0339  0.2080
  216SOD    SOD24916   1.051   4.762  20.063 -0.1989 -0.2103 -0.2471
  217SOD    SOD24917   3.242   2.462  11.715  0.3835  0.1123  0.0558
  218SOD    SOD24918   0.236   6.651  18.284 -0.0924  0.0169  0.1192
  219SOD    SOD24919   1.117   1.377  17.434 -0.0001 -0.2535 -0.1619
  220SOD    SOD24920   1.071   4.824  10.546  0.0413 -0.1838  0.3951
  221SOD    SOD24921   3.257   6.071  12.019 -0.0216  0.6031 -0.1820
  222SOD    SOD24922   0.720   5.234  20.135 -0.1259  0.1039  0.2975
  223SOD    SOD24923   5.740   5.036  12.202  0.2945  0.2028 -1.1287
  224SOD    SOD24924   4.087   5.139  11.152  0.1225  0.2716  0.2343
  225SOD    SOD24925   0.866   5.756  11.957 -0.1315  0.0643  0.1268
  226SOD    SOD24926   3.414   2.516  17.625  0.5561  0.3149  0.0371
  227CLA    CLA24927   5.150   3.768  10.617  0.5716 -0.2592 -0.1163
  228CLA    CLA24928   4.725   0.435   9.828 -0.2108 -0.0109  0.5041
  229CLA    CLA24929   2.043   4.234  10.475 -0.2503 -0.3454 -0.0792
  230CLA    CLA24930   3.280   1.764  18.179  0.6127  0.1061 -0.0790
  231CLA    CLA24931   4.780   3.533  20.779 -0.3685 -0.0134 -0.4856
  232CLA    CLA24932   4.989   4.938  18.849 -0.1976  0.2672  0.1577
  233CLA    CLA24933   6.675   3.866  21.012 -0.1913 -0.2694 -0.3804
  234CLA    CLA24934   2.222   2.870  18.877 -0.0882 -0.0480 -0.2563
  235CLA    CLA24935   0.766   5.151  11.895 -0.3761 -0.0260 -0.0165
  236CLA    CLA24936   4.231   6.469  19.350 -0.2133 -0.3393 -0.0511
  237CLA    CLA24937   1.127   5.375  19.924  0.4680  0.0834 -0.1214
  238CLA    CLA24938   4.706   0.472  12.594  0.0777 -0.1304  0.3984
  239CLA    CLA24939   3.010   3.562  10.299  0.5806 -0.0680 -0.0182
  240CLA    CLA24940   6.126   1.106  19.292 -0.1948  0.1896 -0.0302
  241CLA    CLA24941   1.655   2.247  11.111 -0.1440 -0.2389 -0.0908
  242CLA    CLA24942   6.269   1.194  18.589 -0.0345  0.0465 -0.1972
  243CLA    CLA24943   3.477   0.202  10.413  0.0708  0.0450 -0.1436
  244CLA    CLA24944   4.491   3.642  11.541 -0.1477 -0.1847 -0.3634
  245CLA    CLA24945   2.264   3.914  12.399  0.5818 -0.3150  0.4462
  246CLA    CLA24946   5.267   2.924  18.374 -0.3909  0.2205  0.2286
  247CLA    CLA24947   4.195   2.623  11.651  0.5461  0.0220  0.0245
  248CLA    CLA24948   6.433   1.132  11.206 -0.0905  0.2864 -0.0104
  249CLA    CLA24949   1.993   6.624  11.917 -0.5354 -0.1946 -0.1428
  250CLA    CLA24950   5.313   1.108  20.164  0.0609 -0.4116 -0.3383
  251CLA    CLA24951   4.731   6.159  19.772  0.1953 -0.5167 -0.3256
  252CLA    CLA24952   1.689   0.761  10.316  0.1603  0.0243 -0.1434
  253TIP3   OH224953   6.055   2.127  20.627 -0.0626 -0.6144 -0.2371
  253TIP3    H124954   6.066   2.195  20.693 -3.0218  2.0923 -2.2298
  253TIP3    H224955   6.025   2.051  20.677 -2.0417  1.2452  1.6617
  254TIP3   OH224956   3.142   6.407  17.806 -0.3718 -0.4985  0.2286
  254TIP3    H124957   3.071   6.347  17.783 -0.2177  0.0938 -2.0178
  254TIP3    H224958   3.155   6.460  17.727  1.4866  0.5016  1.1437
  255TIP3   OH224959   6.349   0.371  17.927 -0.1354  0.6323 -1.2396
  255TIP3    H124960   6.425   0.429  17.938 -2.0901  2.8445  2.6444
  255TIP3    H224961   6.387   0.283  17.924  2.6736  1.5685  1.4369
  256TIP3   OH224962   0.582   3.448  20.965 -0.0503 -0.7232 -0.2915
  256TIP3    H124963   0.610   3.464  21.055 -1.3446 -0.1438  0.0349
  256TIP3    H224964   0.623   3.518  20.914 -0.0514 -0.5101  0.0004
  257TIP3   OH224965   4.685   3.703  18.858  0.1628 -0.7625  0.1737
  257TIP3    H124966   4.609   3.745  18.818 -1.1203 -2.4016  0.7787
  257TIP3    H224967   4.736   3.776  18.894  0.4778  0.6105 -2.7945
  258TIP3   OH224968   5.381   5.538  19.921  0.6275  0.3842  0.0587
  258TIP3    H124969   5.311   5.485  19.959  0.0530  0.2620 -1.1336
  258TIP3    H224970   5.339   5.587  19.850  1.2648  2.0400  0.7652
  259TIP3   OH224971   3.821   0.468  20.336  0.1343 -0.1870  0.4138
  259TIP3    H124972   3.796   0.389  20.384  0.6611 -0.0603  0.9131
  259TIP3    H224973   3.747   0.486  20.279 -1.5022  0.8461  2.6729
  260TIP3   OH224974   3.419   4.723  18.020 -0.0315 -0.2314 -0.3619
  260TIP3    H124975   3.390   4.693  17.934  3.3996 -2.2178 -1.0242
  260TIP3    H224976   3.408   4.646  18.077  0.8671 -0.0289  0.1001
  261TIP3   OH224977   6.232   1.951  19.352  0.1561  0.1603 -0.0769
  261TIP3    H124978   6.278   1.978  19.273  0.2991 -1.3798 -0.5420
  261TIP3    H224979   6.254   2.018  19.417  1.0248  0.7775 -0.9840
  262TIP3   OH224980   4.707   2.729  20.573  0.0131  0.1751 -0.4413
  262TIP3    H124981   4.764   2.800  20.602  0.7731 -0.4492 -0.3751
  262TIP3    H224982   4.766   2.664  20.535 -0.5580 -0.8292  0.3215
  263TIP3   OH224983   5.669   2.753  20.187 -0.3561 -0.5996 -0.4377
  263TIP3    H124984   5.590   2.756  20.241 -0.7264 -0.0431 -1.0053
  263TIP3    H224985   5.721   2.683  20.226 -2.4058 -3.0676 -1.8441
  264TIP3   OH224986   6.540   2.903  19.387  0.6852 -0.0873 -0.2963
  264TIP3    H124987   6.582   2.818  19.405 -1.0456 -0.9084  0.0741
  264TIP3    H224988   6.571   2.926  19.300  2.3319 -0.3627  0.1741
  265TIP3   OH224989   5.554   4.495  19.804  0.3170  0.7836 -0.4354
  265TIP3    H124990   5.463   4.524  19.814 -0.0585 -0.8111  1.5099
  265TIP3    H224991   5.593   4.511  19.890  1.1140 -0.9729 -0.4354
  266TIP3   OH224992   0.514   3.924  19.719  0.8526 -0.1579  0.0430
  266TIP3    H124993   0.536   3.839  19.683  1.1869 -0.1945  0.3318
  266TIP3    H224994   0.489   3.906  19.810  0.8781  0.0480  0.0907
  267TIP3   OH224995   4.053   2.204  17.897  0.3085  0.2231 -0.3049
  267TIP3    H124996   4.076   2.242  17.811  1.9271  0.8498  0.3610
  267TIP3    H224997   4.135   2.163  17.927 -0.0604  0.5764  1.2245
  268TIP3   OH224998   1.698   2.921  20.698  0.3672 -0.5728  0.1834
  268TIP3    H124999   1.786   2.920  20.734  0.1822  1.4899  0.8403
  268TIP3    H225000   1.673   3.013  20.699 -1.3051 -0.9584 -1.2221
  269TIP3   OH225001   5.564   3.399  20.778  0.2725 -0.2095 -0.4954
  269TIP3    H125002   5.541   3.382  20.869  1.6631 -1.1745 -0.3094
  269TIP3    H225003   5.657   3.419  20.779  0.3334 -0.3238 -1.7191
  270TIP3   OH225004   1.093   3.202  18.858 -0.3715  0.0742  0.2748
  270TIP3    H125005   1.001   3.214  18.833 -0.4744 -0.7713  0.2036
  270TIP3    H225006   1.100   3.109  18.880  0.7794 -0.1942 -1.0465
  271TIP3   OH225007   0.101   5.909  19.429 -0.4213  0.1560 -0.4235
  271TIP3    H125008   0.103   5.830  19.375  0.9671  0.6409 -1.1224
  271TIP3    H225009   0.105   5.981  19.366  0.7644  0.7437  0.2895
  272TIP3   OH225010   5.431   1.379  19.253  0.2874  0.2177 -0.5931
  272TIP3    H125011   5.510   1.373  19.199  1.2719  2.2600  0.4938
  272TIP3    H225012   5.385   1.456  19.219  0.7105  1.2868  1.1524
  273TIP3   OH225013   6.555   2.282  19.568  0.8979  0.0132  0.0404
  273TIP3    H125014   6.498   2.302  19.642  0.4238 -0.9268 -0.0500
  273TIP3    H225015   6.628   2.232  19.606  1.3758  0.7187  0.0686
  274TIP3   OH225016   0.514   1.471  18.450  0.1134  0.4528  1.0930
  274TIP3    H125017   0.516   1.396  18.509  0.5547  0.1616  0.7241
  274TIP3    H225018   0.605   1.481  18.421  0.0299  1.0304  1.0095
  275TIP3   OH225019   3.629   2.562  19.123  0.1525  0.0813 -0.5790
  275TIP3    H125020   3.644   2.468  19.109  2.1188  0.1153  0.9680
  275TIP3    H225021   3.536   2.568  19.145  0.4336 -1.8284  1.4606
  276TIP3   OH225022   3.780   1.970  20.403 -0.1730  0.3362  0.4096
  276TIP3    H125023   3.805   1.965  20.310 -0.9464 -0.0764  0.2183
  276TIP3    H225024   3.729   2.051  20.409  1.4626  1.3914  0.8813
  277TIP3   OH225025   6.545   2.911  19.130  0.3905 -0.2370  0.4061
  277TIP3    H125026   6.581   2.838  19.079  0.6855 -0.8349  1.4270
  277TIP3    H225027   6.463   2.933  19.087  1.0045 -0.1923 -0.7807
  278TIP3   OH225028   1.343   4.384  20.090  0.5485 -0.0842 -0.5803
  278TIP3    H125029   1.377   4.337  20.013 -0.7720 -0.9255 -0.6749
  278TIP3    H225030   1.311   4.315  20.148 -0.5867  0.6559 -0.3027
  279TIP3   OH225031   0.227   2.661  19.069 -0.1116  0.6113  0.2039
  279TIP3    H125032   0.132   2.652  19.080  0.1152 -0.7116  1.4080
  279TIP3    H225033   0.263   2.643  19.156  1.2627  0.7908 -0.3078
  280TIP3   OH225034   1.573   4.120  20.488  0.2609 -0.1016  0.6405
  280TIP3    H125035   1.496   4.064  20.475  0.0905 -0.1728  1.8156
  280TIP3    H225036   1.607   4.136  20.400 -2.8767  2.4886 -0.3097
  281TIP3   OH225037   1.751   3.192  17.823 -0.0072  0.0899 -0.1980
  281TIP3    H125038   1.743   3.116  17.880  0.4706 -0.6842 -1.1387
  281TIP3    H225039   1.834   3.179  17.777 -0.4482  0.6219 -1.1659
  282TIP3   OH225040   5.323   3.007  19.878  0.3895 -0.0333 -0.0744
  282TIP3    H125041   5.264   2.978  19.809 -0.2845  1.0549  0.0240
  282TIP3    H225042   5.340   2.928  19.930 -1.7687 -0.2061  0.4740
  283TIP3   OH225043   4.935   0.323  20.472 -0.4196  0.2427 -0.0214
  283TIP3    H125044   4.917   0.405  20.426 -2.0786 -1.0808 -1.9205
  283TIP3    H225045   4.863   0.314  20.534 -0.6792 -0.1004 -0.3600
  284TIP3   OH225046   4.187   3.652  11.598  0.1607 -0.4205  0.4334
  284TIP3    H125047   4.206   3.680  11.688 -0.2933  0.6404  0.2246
  284TIP3    H225048   4.272   3.652  11.555  0.3262 -0.5127  0.7556
  285TIP3   OH225049   6.220   0.218  12.422  0.2069  0.5280 -0.1918
  285TIP3    H125050   6.145   0.231  12.364 -0.5719 -1.1619  0.3708
  285TIP3    H225051   6.220   0.295  12.479 -1.7847  0.0858  0.4966
  286TIP3   OH225052   5.676   1.327  11.995 -0.4863 -0.2269 -0.3476
  286TIP3    H125053   5.652   1.339  12.087 -0.2623 -0.0667 -0.3082
  286TIP3    H225054   5.666   1.233  11.979 -0.0632 -0.3235 -0.0302
  287TIP3   OH225055   1.786   4.756  11.487 -0.0458 -0.0324 -0.9049
  287TIP3    H125056   1.732   4.835  11.479 -0.9716 -0.1516  2.4938
  287TIP3    H225057   1.760   4.701  11.414 -2.3656  1.1767 -1.0712
  288TIP3   OH225058   5.436   1.436  10.910  0.0079 -0.5015  0.0338
  288TIP3    H125059   5.430   1.415  11.004 -0.1334 -0.2768  0.0744
  288TIP3    H225060   5.379   1.371  10.868  0.3632 -0.8418  0.0673
  289TIP3   OH225061   0.874   6.427  11.915 -0.2276  0.2986  0.2568
  289TIP3    H125062   0.799   6.382  11.955 -1.0134  0.2374 -1.2031
  289TIP3    H225063   0.883   6.386  11.830  2.8275 -1.1374  1.1466
  290TIP3   OH225064   3.061   6.276  10.434  0.2258 -0.5254  0.2164
  290TIP3    H125065   3.005   6.234  10.499  2.3056 -0.3323  2.2782
  290TIP3    H225066   3.007   6.345  10.396 -1.2447 -1.0106  1.3477
  291TIP3   OH225067   0.038   3.393  10.166  0.4032  0.1435  1.0541
  291TIP3    H125068   0.129   3.364  10.159  0.4264  0.5287 -0.9490
  291TIP3    H225069  -0.013   3.322  10.127  0.0244  0.7174  0.4883
  292TIP3   OH225070   2.605   5.486  10.243 -0.0780 -0.2782 -0.3640
  292TIP3    H125071   2.534   5.538  10.205 -0.0660 -0.6459 -0.8977
  292TIP3    H225072   2.645   5.544  10.308 -2.0808 -0.7204  1.3517
  293TIP3   OH225073   4.863   2.863  12.226  0.6991  0.4470 -0.0382
  293TIP3    H125074   4.834   2.790  12.171  0.5677  0.8075 -0.4587
  293TIP3    H225075   4.931   2.907  12.175  2.8527 -1.0276  1.3923
  294TIP3   OH225076   3.626   0.916  13.127 -0.3219 -0.3056  0.0192
  294TIP3    H125077   3.624   1.010  13.146 -2.8320 -0.2886  0.0267
  294TIP3    H225078   3.714   0.900  13.094  0.6754  1.7410  1.4679
  295TIP3   OH225079   0.072   1.073   9.864 -0.2837 -0.2054 -0.2732
  295TIP3    H125080   0.110   1.013   9.929 -1.4028 -0.2438  0.3670
  295TIP3    H225081   0.102   1.159   9.890  1.4681 -0.4618 -1.2890
  296TIP3   OH225082   3.697   6.273   9.700 -0.4480  0.1253 -0.4467
  296TIP3    H125083   3.679   6.324   9.621 -4.6452  0.9960  0.7956
  296TIP3    H225084   3.735   6.335   9.761 -0.6861  0.4223 -0.5981
  297TIP3   OH225085   6.095   3.427  11.360  0.0823  0.2323 -0.6903
  297TIP3    H125086   6.186   3.442  11.335 -0.1663 -0.1639 -1.8852
  297TIP3    H225087   6.044   3.460  11.286 -0.6776 -1.1680 -0.8245
  298TIP3   OH225088   0.535   2.425   9.857  0.7918  0.2483 -0.4024
  298TIP3    H125089   0.512   2.518   9.863  0.0795  0.1207 -1.0076
  298TIP3    H225090   0.459   2.380   9.896  1.3883 -0.0621  0.4317
  299TIP3   OH225091   4.091   0.890   9.553 -0.3417 -0.2328  0.2996
  299TIP3    H125092   4.125   0.825   9.615 -0.1829  0.8163  1.3343
  299TIP3    H225093   4.162   0.902   9.490 -0.0208 -0.3902  0.6273
  300TIP3   OH225094   4.931   3.370  11.502  0.0922  0.0285  0.1109
  300TIP3    H125095   4.959   3.296  11.449 -0.6312 -0.4109  0.3209
  300TIP3    H225096   4.837   3.379  11.482  0.5570  2.1628 -1.4376
  301TIP3   OH225097   4.931   3.825  11.877 -0.1851  0.3589 -0.0107
  301TIP3    H125098   4.940   3.823  11.972 -1.9825 -0.4088  0.1815
  301TIP3    H225099   4.891   3.910  11.858 -0.6511  0.1487  0.0168
  302TIP3   OH225100   3.023   3.265   9.795 -0.6491 -0.2881  0.0659
  302TIP3    H125101   3.039   3.175   9.824  0.7525 -0.3197 -0.7543
  302TIP3    H225102   3.059   3.319   9.865  1.9255 -0.3710 -1.0996
  303TIP3   OH225103   4.516   3.842  11.819 -0.5947  0.4936 -0.3016
  303TIP3    H125104   4.440   3.826  11.763 -0.7867  1.4641 -0.3436
  303TIP3    H225105   4.529   3.760  11.867 -0.3321 -0.4068 -1.8546
  304TIP3   OH225106   1.039   4.560   9.533 -0.3199 -0.0380  0.5800
  304TIP3    H125107   0.958   4.524   9.569 -1.5591 -0.1473 -2.0652
  304TIP3    H225108   1.022   4.654   9.525 -1.0788 -0.3143 -1.8700
  305TIP3   OH225109   5.007   1.629  10.185  0.2106  0.0805 -0.2906
  305TIP3    H125110   4.963   1.695  10.237  0.0517  0.3719 -0.7889
  305TIP3    H225111   5.064   1.678  10.126  0.1317 -0.2233 -0.6280
  306TIP3   OH225112   2.422   5.581  10.948 -0.0529  0.1599  0.2925
  306TIP3    H125113   2.473   5.517  10.998  0.9740  1.4421  0.9351
  306TIP3    H225114   2.412   5.655  11.008 -0.8966  0.7629 -0.5757
  307TIP3   OH225115   3.541   3.685  12.573  0.4606 -0.0234  0.1906
  307TIP3    H125116   3.474   3.651  12.631 -0.8647 -0.1243 -1.3466
  307TIP3    H225117   3.624   3.662  12.615 -0.4447 -1.3496  1.3045
  308TIP3   OH225118   0.360   3.626  12.296 -0.1110  0.0002 -0.3527
  308TIP3    H125119   0.355   3.675  12.378  0.5613  0.0644 -0.3425
  308TIP3    H225120   0.293   3.558  12.304  2.0555 -2.1129  1.6914
  309TIP3   OH225121   5.213   3.351  10.161  0.1542  0.9132 -0.0139
  309TIP3    H125122   5.242   3.273  10.113 -0.9600  1.2393 -1.2861
  309TIP3    H225123   5.153   3.318  10.227  0.2492  0.6388 -0.0641
  310TIP3   OH225124   1.030   0.691  10.794  0.2856 -0.2823  0.1362
  310TIP3    H125125   1.012   0.687  10.888 -0.4529  0.4672  0.0290
  310TIP3    H225126   0.947   0.714  10.754  0.5899 -0.6239 -0.7139
  311TIP3   OH225127   4.572   6.404  12.366 -0.2575 -0.5075 -0.5738
  311TIP3    H125128   4.576   6.362  12.452  1.7444 -1.4523 -1.0688
  311TIP3    H225129   4.510   6.352  12.316 -0.7111 -0.5270  0.0097
  312TIP3   OH225130   5.933   1.042  10.556  0.3901 -0.5353 -0.5683
  312TIP3    H125131   5.845   1.013  10.578  1.3380 -2.3223  1.1945
  312TIP3    H225132   5.951   1.112  10.619  0.8824 -1.5081  0.4228
  313TIP3   OH225133   1.590   1.369  10.641 -0.3055 -0.3519  0.3841
  313TIP3    H125134   1.644   1.447  10.642  0.1857 -0.6769  1.7665
  313TIP3    H225135   1.506   1.398  10.608  0.1841  0.5409 -0.1029
  314TIP3   OH225136   6.555   2.498  11.771 -0.1408 -0.1658 -0.3130
  314TIP3    H125137   6.601   2.576  11.740  0.0268  0.3390  1.1202
  314TIP3    H225138   6.507   2.528  11.848 -2.9702 -0.6611 -1.7453
  315TIP3   OH225139   5.567   6.538  12.589  0.2166  0.0332 -0.1163
  315TIP3    H125140   5.592   6.456  12.546 -0.1742 -1.1093  1.7088
  315TIP3    H225141   5.553   6.514  12.681 -0.5440  2.0298  0.3531
  316TIP3   OH225142   1.028   3.807  11.167 -0.0775 -0.0377  0.0760
  316TIP3    H125143   1.042   3.785  11.259  1.7203  1.6211  0.2743
  316TIP3    H225144   0.999   3.898  11.168  1.7583  0.6252 -1.0099
  317TIP3   OH225145   5.424   3.760  11.734  0.1935  0.0743 -0.4620
  317TIP3    H125146   5.335   3.759  11.768  0.7683  0.3575  1.1183
  317TIP3    H225147   5.433   3.675  11.689 -1.2672  0.5778 -1.8155
  318TIP3   OH225148   4.751   6.082  11.473  0.5093 -0.2067  0.1988
  318TIP3    H125149   4.684   6.018  11.453  1.9911 -1.7343 -0.0778
  318TIP3    H225150   4.791   6.050  11.554  0.9801  0.6144  0.3006
  319TIP3   OH225151   6.231   1.917  12.161  0.4744 -0.1554 -0.2468
  319TIP3    H125152   6.319   1.945  12.136  0.5336 -0.8075 -0.7963
  319TIP3    H225153   6.229   1.824  12.139 -0.8210  0.1570 -1.5772
  320TIP3   OH225154   5.696   6.027  10.311 -0.1805 -0.0261  0.3490
  320TIP3    H125155   5.612   6.065  10.283  0.5128  1.7694  0.5399
  320TIP3    H225156   5.747   6.021  10.230 -0.6767 -1.6910  0.1350
  321TIP3   OH225157   0.873   2.210  11.197 -0.0803 -0.6893  0.2209
  321TIP3    H125158   0.802   2.246  11.251  0.7264  0.6390  0.4474
  321TIP3    H225159   0.939   2.183  11.261 -0.8038 -3.0018  0.0798
  322TIP3   OH225160   6.490   6.307  11.264  0.6426 -0.4294 -0.1529
  322TIP3    H125161   6.493   6.214  11.241 -0.4940 -0.2094 -1.3277
  322TIP3    H225162   6.412   6.315  11.318 -0.3417  0.1243 -1.6037
  323TIP3   OH225163   1.345   6.259  19.160  0.4488  0.4749  0.7197
  323TIP3    H125164   1.256   6.284  19.135  1.2850  1.8138 -1.2449
  323TIP3    H225165   1.363   6.310  19.239 -0.4761  0.2529  1.0907
  324TIP3   OH225166   0.973   5.777  19.778  0.8084  0.0844  0.1045
  324TIP3    H125167   0.914   5.755  19.706  1.0412 -0.8327  0.1835
  324TIP3    H225168   0.942   5.862  19.809 -0.7925 -0.5948  0.4737
  325TIP3   OH225169   6.558   4.645  18.927  0.1586 -0.2519  0.1454
  325TIP3    H125170   6.496   4.701  18.881  1.4491  1.2786  0.2096
  325TIP3    H225171   6.601   4.595  18.858 -0.7510 -0.9435  0.0602
  326TIP3   OH225172   5.337   3.598  20.742 -0.1472  0.1596 -0.1875
  326TIP3    H125173   5.389   3.634  20.814  0.5603 -1.3307  0.1001
  326TIP3    H225174   5.399   3.540  20.696 -1.5568 -1.8489  0.2851
  327TIP3   OH225175   3.456   3.232  19.396 -0.0893  0.3999 -0.1807
  327TIP3    H125176   3.380   3.265  19.349 -0.5564 -0.9390 -0.3950
  327TIP3    H225177   3.489   3.308  19.444 -1.7488  0.9393  0.1826
  328TIP3   OH225178   2.615   1.914  18.240 -0.2905  0.4385  0.7260
  328TIP3    H125179   2.664   1.982  18.286  1.7880 -1.2587  1.1182
  328TIP3    H225180   2.666   1.834  18.252 -3.8675 -1.8628  2.4915
  329TIP3   OH225181   5.340   1.333  20.803 -0.0649  0.0818 -0.2023
  329TIP3    H125182   5.425   1.289  20.805 -0.9140 -1.7697 -1.7601
  329TIP3    H225183   5.337   1.375  20.717 -1.9952 -2.7867 -1.7023
  330TIP3   OH225184   2.311   0.344  19.177 -0.3662  1.1421 -0.2574
  330TIP3    H125185   2.244   0.334  19.245  0.0135  2.7952  0.3951
  330TIP3    H225186   2.378   0.399  19.217  0.7368  0.6661 -1.3751
  331TIP3   OH225187   0.348   4.122  19.519 -0.3486  0.4657 -0.3925
  331TIP3    H125188   0.310   4.135  19.432 -0.5288  1.4170 -0.1797
  331TIP3    H225189   0.431   4.078  19.503 -2.2657 -3.3755 -0.7638
  332TIP3   OH225190   5.936   4.400  21.157 -0.6012 -0.0200 -0.2903
  332TIP3    H125191   5.896   4.314  21.143  0.2045 -0.3650 -0.5462
  332TIP3    H225192   5.872   4.447  21.211 -2.1550  0.0891 -2.1373
  333TIP3   OH225193   4.689   4.183  17.564 -0.5893  0.5339 -0.4406
  333TIP3    H125194   4.652   4.113  17.511  1.5607  0.0396 -1.3929
  333TIP3    H225195   4.670   4.157  17.654  0.3108 -1.3978 -0.7645
  334TIP3   OH225196   3.796   4.041  20.003 -0.4905  0.3052 -0.2468
  334TIP3    H125197   3.863   4.076  19.944 -0.2881 -1.2701 -1.0037
  334TIP3    H225198   3.730   4.003  19.944 -1.2398  0.3918  0.5178
  335TIP3   OH225199   5.364   6.525  21.016  0.0224 -0.2098  0.4457
  335TIP3    H125200   5.345   6.614  20.986  0.6236 -0.2907 -0.2031
  335TIP3    H225201   5.280   6.480  21.015 -0.3654  0.4729  1.2176
  336TIP3   OH225202   1.329   0.147  18.188 -0.5707 -0.1741  0.2029
  336TIP3    H125203   1.360   0.073  18.136 -1.0658  0.1982 -0.6523
  336TIP3    H225204   1.394   0.215  18.173 -0.5457 -0.1719  0.3255
  337TIP3   OH225205   6.182   5.489  20.566  0.3608 -0.2958 -0.0084
  337TIP3    H125206   6.134   5.469  20.485  1.2159  0.4893 -0.7331
  337TIP3    H225207   6.137   5.438  20.634 -2.0682  1.1226 -0.4616
  338TIP3   OH225208   2.363   5.434  19.165 -0.8753 -0.2159 -0.2888
  338TIP3    H125209   2.427   5.506  19.162 -0.8754 -0.2060 -0.0704
  338TIP3    H225210   2.313   5.443  19.084 -0.5670 -0.2524 -0.4894
  339TIP3   OH225211   1.177   3.284  19.152  0.0222  0.3094 -0.9216
  339TIP3    H125212   1.211   3.195  19.146 -2.0239 -0.7491  1.3210
  339TIP3    H225213   1.123   3.294  19.074 -1.1922 -1.1751 -0.3211
  340TIP3   OH225214   5.798   3.547  18.442 -0.0467  0.0151  0.1630
  340TIP3    H125215   5.825   3.626  18.489  3.0819 -1.7274  1.6245
  340TIP3    H225216   5.770   3.487  18.510 -0.3570 -0.8667 -0.7198
  341TIP3   OH225217   4.061   1.725  18.746 -0.3749 -0.6613 -0.1634
  341TIP3    H125218   4.055   1.739  18.840 -0.2341  0.1546 -0.2626
  341TIP3    H225219   4.085   1.811  18.711  0.6893 -1.2080 -0.8379
  342TIP3   OH225220   1.953   5.822  18.209 -0.0573 -0.0454 -0.7137
  342TIP3    H125221   1.907   5.769  18.274 -0.4805  0.4431 -0.6065
  342TIP3    H225222   1.895   5.824  18.133 -0.9266  1.7850 -0.0538
  343TIP3   OH225223   3.117   0.011  20.814  0.1458  0.0118  0.3014
  343TIP3    H125224   3.134  -0.082  20.831  0.9846 -0.1130 -1.0391
  343TIP3    H225225   3.129   0.054  20.898  1.3398 -0.8941  0.6108
  344TIP3   OH225226   0.203   0.470  18.377  0.2738  0.2585  0.5987
  344TIP3    H125227   0.178   0.511  18.293  1.0803 -0.9255 -0.2461
  344TIP3    H225228   0.123   0.428  18.408 -0.0055  0.6225  0.3827
  345TIP3   OH225229   2.432   2.401  18.041 -0.0579 -0.2505 -0.3517
  345TIP3    H125230   2.411   2.487  18.005 -0.4054 -0.5245 -0.8247
  345TIP3    H225231   2.528   2.395  18.032 -0.2453 -0.9240 -2.7603
  346TIP3   OH225232   1.219   1.585  20.689 -0.4175  0.4741  0.6542
  346TIP3    H125233   1.128   1.592  20.718 -0.4509  2.0339  0.2684
  346TIP3    H225234   1.269   1.574  20.770 -0.8287  1.1753  1.0173
  347TIP3   OH225235   0.631   0.544  20.973  0.3272  0.4121 -0.7356
  347TIP3    H125236   0.622   0.601  20.897 -0.4026 -1.0087 -1.7584
  347TIP3    H225237   0.541   0.529  21.002  0.3681 -1.3806 -1.4170
  348TIP3   OH225238   2.320   5.972  18.011  0.2141  0.1851 -0.1738
  348TIP3    H125239   2.311   5.919  17.932 -0.3350  1.7534 -1.2075
  348TIP3    H225240   2.403   6.018  18.000  0.2829  0.1803  0.3093
  349TIP3   OH225241   0.758   4.663  19.635 -0.7557 -0.8759 -0.5592
  349TIP3    H125242   0.825   4.715  19.591  0.2285 -1.7677 -0.1315
  349TIP3    H225243   0.698   4.637  19.565 -1.5473  1.1872 -0.7318
  350TIP3   OH225244   3.279   2.209  20.963  0.2306 -0.2342  0.0117
  350TIP3    H125245   3.368   2.245  20.959 -1.1540  3.8438  0.5383
  350TIP3    H225246   3.276   2.162  21.047  1.4045  1.3512  1.0176
  351TIP3   OH225247   6.011   1.564  18.520 -0.1641 -0.6228  0.1319
  351TIP3    H125248   5.922   1.600  18.517 -0.0920 -0.4360 -3.2127
  351TIP3    H225249   5.999   1.470  18.524 -0.4257 -0.5601  1.4772
  352TIP3   OH225250   3.956   2.754  18.599  0.4595 -0.5338 -0.1357
  352TIP3    H125251   3.995   2.752  18.511 -1.0764 -0.5355 -0.8688
  352TIP3    H225252   3.884   2.691  18.594  0.3569 -0.5429  1.1456
  353TIP3   OH225253   0.044   0.283  20.047  0.2848  0.3216 -0.0243
  353TIP3    H125254   0.114   0.264  19.984 -0.2069 -0.3697 -0.3760
  353TIP3    H225255   0.069   0.234  20.125 -0.3966 -0.9048 -0.5496
  354TIP3   OH225256   3.198   5.226  20.597 -0.4120  0.2285  0.4297
  354TIP3    H125257   3.226   5.216  20.506 -0.9130 -0.9605  0.3872
  354TIP3    H225258   3.152   5.310  20.599 -1.4144 -0.2577 -0.7006
  355TIP3   OH225259   4.428   1.580  20.930  0.1028 -0.2253 -0.3227
  355TIP3    H125260   4.395   1.666  20.955 -0.2526 -0.2422 -0.7128
  355TIP3    H225261   4.517   1.596  20.899 -0.4373  0.2461 -1.7540
  356TIP3   OH225262   5.498   4.819  19.227 -0.3112 -0.3506 -0.0491
  356TIP3    H125263   5.532   4.791  19.142  1.5665  1.6439 -0.0460
  356TIP3    H225264   5.572   4.811  19.287 -1.4049 -1.0376  1.2828
  357TIP3   OH225265   5.546   5.820  19.702  0.7107  0.0275 -0.0988
  357TIP3    H125266   5.512   5.840  19.789 -1.3420 -2.7689 -0.1213
  357TIP3    H225267   5.634   5.786  19.717  0.1465 -1.0097  0.9821
  358TIP3   OH225268   5.519   4.659  20.668  0.4996 -0.3072 -0.5282
  358TIP3    H125269   5.557   4.720  20.732  1.5608 -1.2281 -0.2387
  358TIP3    H225270   5.517   4.575  20.713 -3.1046 -0.1247 -0.0950
  359TIP3   OH225271   6.373   0.016  18.856 -0.2942 -0.1654 -0.0139
  359TIP3    H125272   6.306   0.009  18.924  0.7477 -2.8037  0.8784
  359TIP3    H225273   6.451   0.044  18.902 -0.3959  1.5672 -0.8188
  360TIP3   OH225274   6.263   2.046  18.056  0.3758  0.0732  0.0347
  360TIP3    H125275   6.246   1.951  18.056  0.5195  0.0313  1.2839
  360TIP3    H225276   6.261   2.070  17.964  0.7026 -1.2167 -0.3379
  361TIP3   OH225277   3.729   5.743  19.786  0.3345  0.1025  0.0307
  361TIP3    H125278   3.731   5.832  19.750 -1.4409  0.1846  0.0419
  361TIP3    H225279   3.729   5.755  19.881  1.5960  0.0096  0.0595
  362TIP3   OH225280   0.795   0.221  18.490  0.4292 -0.0412  0.1450
  362TIP3    H125281   0.732   0.154  18.464  2.4131 -2.0185  0.1071
  362TIP3    H225282   0.852   0.232  18.414  3.4175 -2.4208  1.8234
  363TIP3   OH225283   5.481   0.562  18.710 -0.0780  0.5672  0.0375
  363TIP3    H125284   5.505   0.588  18.621 -1.1099 -0.9136 -0.7128
  363TIP3    H225285   5.443   0.641  18.748  1.6826  1.6443 -0.2899
  364TIP3   OH225286   2.527   4.773  19.252  0.2230 -0.1585  0.3602
  364TIP3    H125287   2.618   4.745  19.237  0.1516  0.2329 -0.9095
  364TIP3    H225288   2.476   4.692  19.244  0.3719 -0.2521  0.3402
  365TIP3   OH225289   4.493   4.126  19.401  0.1307  0.6181 -0.1484
  365TIP3    H125290   4.482   4.036  19.372  0.0787  0.7506 -0.5397
  365TIP3    H225291   4.490   4.178  19.321  0.7574  0.9184  0.0192
  366TIP3   OH225292   4.359   0.019  18.063 -0.5216  0.0502  0.0366
  366TIP3    H125293   4.272  -0.017  18.081  0.0184 -2.1922 -1.4211
  366TIP3    H225294   4.342   0.103  18.021 -1.9691 -0.1717  0.1268
  367TIP3   OH225295   1.879   0.710  18.909  0.3467  0.0688  0.5463
  367TIP3    H125296   1.812   0.647  18.884  0.2961  0.4461 -0.2776
  367TIP3    H225297   1.847   0.794  18.877  1.3646  0.2037 -0.1652
  368TIP3   OH225298   5.247   3.197  20.076  0.3928  0.0425 -0.6076
  368TIP3    H125299   5.252   3.280  20.028  2.0900 -0.8731 -2.1295
  368TIP3    H225300   5.246   3.130  20.009 -0.7084 -1.2095  0.6061
  369TIP3   OH225301   0.956   6.113  18.779 -0.4316  0.4166  0.6732
  369TIP3    H125302   1.020   6.151  18.720 -0.8560  2.1854  1.2997
  369TIP3    H225303   0.999   6.035  18.815  0.3399  0.0929 -0.8846
  370TIP3   OH225304   5.547   0.433  19.254 -0.0097 -0.2027  0.1377
  370TIP3    H125305   5.607   0.505  19.234  1.2504 -1.3592 -0.3626
  370TIP3    H225306   5.463   0.460  19.216  0.6221  0.6767 -0.6750
  371TIP3   OH225307   5.065   1.393  20.086 -0.0264  0.1498  0.3606
  371TIP3    H125308   5.143   1.420  20.134 -0.5220 -2.1295  2.6634
  371TIP3    H225309   4.992   1.417  20.143 -0.7896 -0.7676 -0.1931
  372TIP3   OH225310   6.017   3.751  17.541 -0.3668  0.0889  0.2717
  372TIP3    H125311   5.975   3.803  17.610 -0.3932  0.0740  0.2657
  372TIP3    H225312   5.981   3.785  17.460 -0.4574 -0.0036  0.2720
  373TIP3   OH225313   0.838   4.892  20.474  0.0587  0.0058  0.5781
  373TIP3    H125314   0.747   4.863  20.471  0.3907 -1.9178  3.9528
  373TIP3    H225315   0.835   4.979  20.513 -0.3614  0.7715 -1.0548
  374TIP3   OH225316   5.926   6.638  20.821  0.5731  0.0304  0.0008
  374TIP3    H125317   5.831   6.645  20.810  0.5975  1.3799  0.4240
  374TIP3    H225318   5.951   6.722  20.859  1.5416 -1.3595  2.7077
  375TIP3   OH225319   3.780   1.049  18.254  0.6128  0.2590  0.5767
  375TIP3    H125320   3.787   1.144  18.267  2.1837  0.3208 -0.4923
  375TIP3    H225321   3.757   1.039  18.162  2.0954 -0.4208  0.2587
  376TIP3   OH225322   6.239   4.267  18.134 -0.2074 -0.1843 -0.0902
  376TIP3    H125323   6.305   4.335  18.150 -0.6826  0.3912 -0.5161
  376TIP3    H225324   6.286   4.185  18.144  1.0416  0.2038 -2.2789
  377TIP3   OH225325   3.080   2.622  18.893  0.3176  0.1987 -0.0308
  377TIP3    H125326   3.142   2.627  18.966  1.4115  0.4602 -0.9570
  377TIP3    H225327   3.040   2.536  18.902 -0.3661  0.6367  1.4976
  378TIP3   OH225328   5.684   1.499  18.466 -0.3144  0.3236  0.3760
  378TIP3    H125329   5.677   1.537  18.553  0.1469  0.1568  0.4881
  378TIP3    H225330   5.685   1.405  18.481  2.2487  0.2826  0.4171
  379TIP3   OH225331   6.655   0.059  18.732  0.2275  0.1602  0.4867
  379TIP3    H125332   6.582   0.121  18.729  0.8572  0.9276  0.5520
  379TIP3    H225333   6.699   0.079  18.815 -0.4696 -1.4496  1.2684
  380TIP3   OH225334   1.835   4.211  18.463 -0.3124 -0.3773  0.2572
  380TIP3    H125335   1.744   4.241  18.459  0.2120  1.2622 -0.2501
  380TIP3    H225336   1.887   4.289  18.441  1.1704 -1.5780 -0.6876
  381TIP3   OH225337   0.830   4.038  19.718 -0.2322  0.0815 -0.0144
  381TIP3    H125338   0.865   3.956  19.753 -2.3092 -0.5258  0.8149
  381TIP3    H225339   0.764   4.064  19.783 -0.7301  1.5610 -1.0800
  382TIP3   OH225340   4.509   1.093  19.854 -0.1575  0.6657  0.8529
  382TIP3    H125341   4.497   0.998  19.846 -1.3482  0.9062 -0.4203
  382TIP3    H225342   4.436   1.131  19.807  1.5875  2.2489 -0.7382
  383TIP3   OH225343   0.099   5.166  18.248  0.2206 -0.0974 -0.1762
  383TIP3    H125344   0.115   5.077  18.279 -0.4862 -0.7564 -1.6311
  383TIP3    H225345   0.124   5.165  18.156 -0.4751  1.0150 -0.4071
  384TIP3   OH225346   2.899   5.570  20.197 -0.4468  0.5360 -0.2992
  384TIP3    H125347   2.824   5.542  20.145 -0.4210  2.5167 -1.5221
  384TIP3    H225348   2.949   5.490  20.211 -1.3433 -0.3710 -1.9174
  385TIP3   OH225349   2.478   0.998  19.859  0.7718  0.3800 -0.3899
  385TIP3    H125350   2.441   0.941  19.926 -0.3636 -0.0994 -1.3881
  385TIP3    H225351   2.568   0.966  19.848 -0.0122 -1.7096 -1.3745
  386TIP3   OH225352   1.293   4.610  19.128  0.1798  0.0587  0.0938
  386TIP3    H125353   1.254   4.544  19.185 -1.0316  0.9913  0.3792
  386TIP3    H225354   1.275   4.578  19.039 -0.4900  0.0432  0.2303
  387TIP3   OH225355   2.483   0.587  18.941 -0.2157 -0.0814 -0.8297
  387TIP3    H125356   2.458   0.621  19.027  0.7870  1.0011 -0.9413
  387TIP3    H225357   2.515   0.499  18.959 -1.4634 -0.4569 -0.3228
  388TIP3   OH225358   6.350   3.976  18.429  0.4221  0.5693  0.0934
  388TIP3    H125359   6.415   3.905  18.425 -0.2503 -0.0838  0.4965
  388TIP3    H225360   6.401   4.056  18.416  1.5645  0.2018  1.8961
  389TIP3   OH225361   5.300   0.097  20.954 -0.2876 -0.1451 -0.0085
  389TIP3    H125362   5.365   0.149  20.906  1.5017 -0.9488  1.3867
  389TIP3    H225363   5.218   0.145  20.944  1.0232  2.3089  0.1981
  390TIP3   OH225364   5.854   1.677  20.960 -0.4392 -0.1147 -0.0055
  390TIP3    H125365   5.922   1.743  20.976 -1.8735  1.3293  0.3026
  390TIP3    H225366   5.852   1.668  20.865 -0.1206  0.1550 -0.0421
  391TIP3   OH225367   4.729   2.507  20.130 -0.3903 -0.3399 -0.0552
  391TIP3    H125368   4.719   2.413  20.111 -0.3974 -0.3382 -0.0597
  391TIP3    H225369   4.647   2.546  20.101  0.4469 -0.0075 -2.1249
  392TIP3   OH225370   1.900   4.585  20.374  0.0873  0.1990 -0.1496
  392TIP3    H125371   1.835   4.561  20.440  0.1203 -1.4971 -0.7051
  392TIP3    H225372   1.923   4.676  20.396 -2.1954  0.7413  0.2558
  393TIP3   OH225373   1.744   6.054  19.816  0.5673  0.0206  0.5753
  393TIP3    H125374   1.784   6.141  19.825  0.4240  0.3054 -1.2526
  393TIP3    H225375   1.676   6.052  19.883 -0.7829  2.1408 -0.6165
  394TIP3   OH225376   1.042   0.517  21.352 -0.0060 -0.5868 -0.2211
  394TIP3    H125377   1.023   0.424  21.365 -0.3221 -0.3955  0.8458
  394TIP3    H225378   1.003   0.560  21.429 -3.4184  0.9067 -2.5161
  395TIP3   OH225379   1.489   5.973  20.667 -0.0227 -0.6662 -0.0610
  395TIP3    H125380   1.460   6.064  20.669 -1.4287 -1.1059  1.0488
  395TIP3    H225381   1.580   5.976  20.697 -0.8763  0.1262  2.7294
  396TIP3   OH225382   2.151   6.030  19.407 -0.2464  0.1095  0.0647
  396TIP3    H125383   2.184   5.986  19.486 -1.0877 -0.7514 -0.0433
  396TIP3    H225384   2.089   5.967  19.369  0.4250  0.3569 -1.5032
  397TIP3   OH225385   3.123   0.082  18.186 -0.7098  0.5630 -0.3341
  397TIP3    H125386   3.140   0.122  18.101 -1.3095  0.9206 -0.2924
  397TIP3    H225387   3.177   0.131  18.248 -3.5806  3.4080  0.2155
  398TIP3   OH225388   4.510   5.056  20.139 -0.1213  0.3139  0.2463
  398TIP3    H125389   4.458   5.017  20.069 -1.0735  0.7993  0.6531
  398TIP3    H225390   4.595   5.075  20.099 -0.0971 -0.9199 -0.3133
  399TIP3   OH225391   6.443   2.548  18.107 -0.1669 -0.4275 -0.9975
  399TIP3    H125392   6.505   2.563  18.178  0.2746  1.5336 -1.7303
  399TIP3    H225393   6.422   2.636  18.075 -1.2487 -1.2069 -2.5338
  400TIP3   OH225394   5.718   5.417  19.198 -0.3034 -0.8825  0.2754
  400TIP3    H125395   5.769   5.340  19.222 -0.4342 -0.4599  2.0774
  400TIP3    H225396   5.677   5.445  19.280 -0.7601  0.7397 -0.4583
  401TIP3   OH225397   0.241   5.071  19.309  0.0365 -0.6174  0.2287
  401TIP3    H125398   0.280   5.101  19.227  0.0352 -0.6650  0.2111
  401TIP3    H225399   0.179   5.140  19.333  0.4261 -0.3493  0.4714
  402TIP3   OH225400   1.078   5.923  20.463 -0.0202  0.1735  0.0824
  402TIP3    H125401   1.125   5.967  20.392 -0.8517 -2.6235 -2.3455
  402TIP3    H225402   1.000   5.977  20.476  0.6090  1.2531 -0.4148
  403TIP3   OH225403   0.133   3.446  21.290  0.0821  0.3982  0.2329
  403TIP3    H125404   0.107   3.526  21.336 -0.4451  0.8450 -0.8125
  403TIP3    H225405   0.228   3.444  21.298 -0.0331  0.0096  2.0467
  404TIP3   OH225406   3.274   3.594  18.661  0.0116  0.1456 -0.0168
  404TIP3    H125407   3.227   3.538  18.724 -0.1952 -0.8883 -1.0502
  404TIP3    H225408   3.363   3.600  18.696 -0.1258 -0.3289  0.4381
  405TIP3   OH225409   0.801   2.660  18.280 -0.7657  0.4293 -0.2632
  405TIP3    H125410   0.781   2.625  18.194  0.4364  0.7376 -0.6900
  405TIP3    H225411   0.841   2.587  18.327 -2.8558 -0.2148  0.6163
  406TIP3   OH225412   4.150   5.567  20.449 -0.1661  0.5379  0.3596
  406TIP3    H125413   4.209   5.636  20.420  0.3984  0.2088  0.6878
  406TIP3    H225414   4.194   5.528  20.525  1.1527 -2.2776 -1.6700
  407TIP3   OH225415   5.787   6.396  21.067  0.6128 -0.1688 -0.4826
  407TIP3    H125416   5.700   6.371  21.097  0.3024 -0.3498 -1.4812
  407TIP3    H225417   5.773   6.473  21.012  1.0790 -0.1733 -0.6203
  408TIP3   OH225418   4.969   5.232  19.690  0.3005 -0.5026 -0.3634
  408TIP3    H125419   4.962   5.185  19.607 -2.5296 -1.7214  0.4208
  408TIP3    H225420   5.022   5.175  19.746  2.3452  0.3952 -1.2876
  409TIP3   OH225421   6.578   5.535  19.651 -0.0079  0.3848  0.3227
  409TIP3    H125422   6.514   5.564  19.586  0.2978  1.5526  0.5162
  409TIP3    H225423   6.586   5.609  19.712 -0.9155 -0.9570  2.1942
  410TIP3   OH225424   3.623   4.706  19.329  0.1312  0.1841  0.3208
  410TIP3    H125425   3.653   4.659  19.406  0.7437  0.6264  0.3591
  410TIP3    H225426   3.653   4.653  19.255  1.6198  0.9391  0.3373
  411TIP3   OH225427   0.608   1.402  20.113 -0.1098 -0.3978 -0.2636
  411TIP3    H125428   0.683   1.343  20.125 -0.6796 -1.1265 -0.2407
  411TIP3    H225429   0.545   1.351  20.063 -1.8039 -0.8443  2.1872
  412TIP3   OH225430   0.836   5.570  18.507  0.4707 -0.2692 -0.0179
  412TIP3    H125431   0.881   5.635  18.561  0.4078 -0.2930  0.0606
  412TIP3    H225432   0.809   5.501  18.567 -0.1521  0.0023  0.0170
  413TIP3   OH225433   4.351   4.052  20.221  0.1565  0.3415  0.3788
  413TIP3    H125434   4.272   4.074  20.271 -0.6568 -0.6074 -0.4292
  413TIP3    H225435   4.357   3.956  20.227  0.4796  0.2843 -0.6843
  414TIP3   OH225436   0.404   1.545  20.257  0.3022  0.4174 -0.1725
  414TIP3    H125437   0.474   1.497  20.213  1.6263  3.0440 -1.1504
  414TIP3    H225438   0.448   1.595  20.326 -0.7746  1.2432 -0.0554
  415TIP3   OH225439   2.226   0.077  21.072 -0.1739  0.4469 -0.0327
  415TIP3    H125440   2.233   0.171  21.052  1.5815  0.2947 -0.2717
  415TIP3    H225441   2.266   0.069  21.159 -2.0732  0.1726  0.8649
  416TIP3   OH225442   5.878   1.822  19.118 -0.1564  0.0372  0.1837
  416TIP3    H125443   5.849   1.887  19.181  0.5297 -0.2286  0.7988
  416TIP3    H225444   5.956   1.783  19.158  0.9923  0.6447 -1.3199
  417TIP3   OH225445   1.809   5.643  20.950 -0.0662 -0.3777 -0.4899
  417TIP3    H125446   1.741   5.705  20.974 -0.3909 -0.1041 -2.0143
  417TIP3    H225447   1.878   5.697  20.911  0.7391 -0.7266  0.3980
  418TIP3   OH225448   2.330   6.044  19.203 -0.0999  0.0024 -0.0681
  418TIP3    H125449   2.281   5.992  19.266  0.6979 -0.5541  0.1029
  418TIP3    H225450   2.361   6.119  19.253 -0.4135  0.1385 -0.0765
  419TIP3   OH225451   6.262   6.639  19.114 -0.0789 -0.5491 -0.1501
  419TIP3    H125452   6.226   6.557  19.147 -1.0181 -0.6235 -1.2757
  419TIP3    H225453   6.185   6.693  19.096  0.5388  1.0949  1.7508
  420TIP3   OH225454   2.569   1.471  20.361  0.6607  0.0080  0.3329
  420TIP3    H125455   2.548   1.481  20.454 -1.6301 -2.0288  0.1553
  420TIP3    H225456   2.519   1.540  20.317 -0.4426 -0.6781  0.4589
  421TIP3   OH225457   6.385   3.131  19.316  0.4956  0.3859  0.5398
  421TIP3    H125458   6.348   3.177  19.391 -2.9016 -0.0892 -0.6811
  421TIP3    H225459   6.383   3.038  19.342  2.9931  0.4594  1.2432
  422TIP3   OH225460   4.705   3.405  19.678 -0.2502  0.0012 -0.2238
  422TIP3    H125461   4.688   3.349  19.754  4.2801 -1.4623  0.0021
  422TIP3    H225462   4.630   3.391  19.621 -1.1251 -3.4224  1.4888
  423TIP3   OH225463   1.468   3.101  18.159  0.2574  0.5295  0.0591
  423TIP3    H125464   1.509   3.023  18.122  0.1439  0.6033 -0.2192
  423TIP3    H225465   1.528   3.127  18.230 -0.4437 -0.6501  1.1346
  424TIP3   OH225466   5.687   3.334  20.467 -0.3796  0.4260  0.0777
  424TIP3    H125467   5.605   3.372  20.435 -0.7273  0.2451  0.7294
  424TIP3    H225468   5.662   3.251  20.506  0.2202  0.0477 -0.3310
  425TIP3   OH225469   3.761   0.057  20.255  0.1648 -0.5182  0.7082
  425TIP3    H125470   3.725   0.125  20.199  1.1508 -0.7414 -0.2319
  425TIP3    H225471   3.745  -0.025  20.209  1.2618 -0.6776  0.5737
  426TIP3   OH225472   6.459   1.487  20.681  0.1321  0.0729 -0.5547
  426TIP3    H125473   6.524   1.497  20.612  1.4429  1.7386  0.8046
  426TIP3    H225474   6.401   1.563  20.670  0.0648  0.0853 -0.1494
  427TIP3   OH225475   4.163   6.245  19.784 -0.0740  0.0606  0.0874
  427TIP3    H125476   4.130   6.322  19.831 -0.9562  0.3016 -0.8982
  427TIP3    H225477   4.214   6.281  19.712  1.7829 -0.3123  1.1477
  428TIP3   OH225478   1.284   3.803  18.293  0.0579  0.2039  0.6483
  428TIP3    H125479   1.367   3.837  18.327  0.2213 -0.3003  0.7515
  428TIP3    H225480   1.300   3.790  18.199  0.0268  0.3034  0.6286
  429TIP3   OH225481   4.986   4.214  18.701 -0.3576  0.1890 -0.4750
  429TIP3    H125482   5.078   4.230  18.721 -0.0359 -1.8863 -0.1029
  429TIP3    H225483   4.984   4.125  18.666 -2.1069  0.5589 -1.4136
  430TIP3   OH225484   3.520   6.358  20.295  0.7065 -0.2093  0.7603
  430TIP3    H125485   3.596   6.370  20.238  0.4851  0.1896  0.5382
  430TIP3    H225486   3.541   6.407  20.374  1.3340 -1.3888  1.3412
  431TIP3   OH225487   2.496   4.388  21.120  0.0136  0.1463  0.2346
  431TIP3    H125488   2.417   4.434  21.092 -0.3027 -0.6837 -0.2601
  431TIP3    H225489   2.552   4.457  21.156  0.9126  1.5305 -3.3318
  432TIP3   OH225490   3.450   1.614  19.232 -0.4328  0.3124 -0.1889
  432TIP3    H125491   3.398   1.668  19.291 -0.3958  0.8887 -0.6632
  432TIP3    H225492   3.416   1.525  19.243  1.3552 -0.1537  2.7046
  433TIP3   OH225493   4.022   5.330  19.829 -0.0075 -0.5475  0.1502
  433TIP3    H125494   4.019   5.324  19.925 -0.5804 -2.2776  0.0577
  433TIP3    H225495   3.967   5.406  19.809 -2.1430 -1.7445  1.1063
  434TIP3   OH225496   2.595   5.624  19.240  0.0790 -0.5928 -0.2330
  434TIP3    H125497   2.650   5.551  19.211  0.2109 -0.3573 -0.5737
  434TIP3    H225498   2.563   5.663  19.160  0.3400 -0.0197 -0.0619
  435TIP3   OH225499   1.239   2.308  19.576  0.1986 -0.2060 -0.0930
  435TIP3    H125500   1.212   2.267  19.658 -2.0172  1.6738  0.2212
  435TIP3    H225501   1.203   2.251  19.508 -1.1928  0.1481  0.3115
  436TIP3   OH225502   5.475   4.991  20.415 -0.2796  0.0567  0.0152
  436TIP3    H125503   5.424   4.968  20.337  0.0187 -2.6546  0.5103
  436TIP3    H225504   5.412   4.988  20.486 -0.3530  1.5845  0.0516
  437TIP3   OH225505   6.074   0.758  18.188 -0.2822 -0.2864 -0.9428
  437TIP3    H125506   6.087   0.791  18.276  1.3507  0.0350 -1.2729
  437TIP3    H225507   5.987   0.790  18.163 -1.1665 -1.1488  0.8467
  438TIP3   OH225508   0.911   6.345  20.541 -0.2307 -0.1960  0.3454
  438TIP3    H125509   0.949   6.325  20.627  0.1370 -0.8196  0.0393
  438TIP3    H225510   0.906   6.261  20.497  2.4273  0.4377 -1.4239
  439TIP3   OH225511   3.192   0.174  17.925 -0.0193  0.0818 -0.2360
  439TIP3    H125512   3.226   0.254  17.886 -0.9089  0.5000 -0.1916
  439TIP3    H225513   3.245   0.104  17.888 -0.6150  0.4888 -1.9490
  440TIP3   OH225514   2.307   4.206  17.987  0.4052  0.3260  0.0463
  440TIP3    H125515   2.239   4.203  17.919  0.6735 -0.0335 -0.2150
  440TIP3    H225516   2.387   4.224  17.939  0.7281 -0.7388  0.1568
  441TIP3   OH225517   6.089   3.965  18.044  0.2071  0.1136  0.1306
  441TIP3    H125518   6.118   3.994  17.958  0.6372 -1.7806 -0.3995
  441TIP3    H225519   6.168   3.965  18.098  0.2844 -0.4281  0.0215
  442TIP3   OH225520   0.902   6.035  19.954  0.3992 -0.3541 -0.5887
  442TIP3    H125521   0.923   6.115  20.002  0.4225 -0.6975 -0.0178
  442TIP3    H225522   0.809   6.020  19.971 -0.6230  1.5804 -3.7261
  443TIP3   OH225523   2.907   3.505  17.504 -0.1205 -0.5846  0.2256
  443TIP3    H125524   2.868   3.444  17.566 -2.3951 -1.2711 -1.6895
  443TIP3    H225525   2.947   3.450  17.437 -1.1997 -0.0202 -0.9342
  444TIP3   OH225526   3.012   0.616  20.605 -0.7895  0.1200 -0.5535
  444TIP3    H125527   3.071   0.675  20.652 -1.6679  0.0380  0.6742
  444TIP3    H225528   3.064   0.585  20.531  0.0094  1.6867 -0.6980
  445TIP3   OH225529   5.380   3.852  20.400  0.6403  0.0588 -0.2764
  445TIP3    H125530   5.447   3.842  20.468  1.1860  1.1747 -0.6210
  445TIP3    H225531   5.357   3.762  20.376  0.4108 -0.3736  1.3849
  446TIP3   OH225532   3.614   0.547  20.833  0.0766 -0.1136 -0.5119
  446TIP3    H125533   3.592   0.624  20.885  1.5654  0.0271 -0.0541
  446TIP3    H225534   3.564   0.558  20.752  0.7642  1.6742 -0.7321
  447TIP3   OH225535   2.683   3.661  18.944 -0.4875  0.0307  0.0564
  447TIP3    H125536   2.639   3.731  18.993 -0.7951 -0.1401  0.0243
  447TIP3    H225537   2.697   3.591  19.008  0.8702  0.5572  0.3880
  448TIP3   OH225538   2.346   4.474  18.458  0.4466 -0.2445  0.2887
  448TIP3    H125539   2.430   4.458  18.502  1.2457 -2.5778 -1.8905
  448TIP3    H225540   2.342   4.409  18.388 -2.0877  1.3960 -1.2556
  449TIP3   OH225541   5.351   5.724  19.543  0.0979  1.0643 -0.1594
  449TIP3    H125542   5.373   5.710  19.451  0.0171  0.1343 -0.0518
  449TIP3    H225543   5.436   5.731  19.587  0.2082 -0.6243 -0.0185
  450TIP3   OH225544   5.412   1.488  19.495  0.1591  0.0455  0.1138
  450TIP3    H125545   5.414   1.420  19.428 -1.4721  0.3550 -0.3038
  450TIP3    H225546   5.493   1.476  19.545 -0.4876 -2.7773  0.6202
  451TIP3   OH225547   1.359   3.417  17.625  0.2422 -0.2122 -0.1142
  451TIP3    H125548   1.439   3.424  17.573 -0.4191 -0.6215 -1.2216
  451TIP3    H225549   1.339   3.324  17.626 -1.7431  0.0962 -2.3110
  452TIP3   OH225550   6.427   0.663  18.748 -0.0407  0.2499 -0.2047
  452TIP3    H125551   6.433   0.757  18.734  1.3412  0.1745 -0.2730
  452TIP3    H225552   6.409   0.626  18.662  0.1613  0.3997 -0.3108
  453TIP3   OH225553   2.547   0.122  20.977 -0.1320  0.2680 -0.0575
  453TIP3    H125554   2.637   0.095  20.993 -0.4124  0.0223  1.2222
  453TIP3    H225555   2.502   0.103  21.059 -0.9025  2.2784  0.0303
  454TIP3   OH225556   2.049   4.770  19.770 -0.2332 -0.1937 -0.1029
  454TIP3    H125557   2.112   4.795  19.839 -0.2333 -0.7272  0.0920
  454TIP3    H225558   1.977   4.728  19.817  0.6283 -2.2973 -0.5774
  455TIP3   OH225559   3.001   0.307  20.172  0.2049 -0.1086  0.0100
  455TIP3    H125560   3.051   0.225  20.165 -0.6312 -0.6821  0.4398
  455TIP3    H225561   3.059   0.374  20.138 -0.5778 -1.3985 -4.5917
  456TIP3   OH225562   2.425   1.162  19.447  0.8121  0.1690 -0.4487
  456TIP3    H125563   2.379   1.125  19.372  2.1580 -1.0485 -0.7052
  456TIP3    H225564   2.452   1.087  19.500  2.1572  0.8441 -0.1119
  457TIP3   OH225565   0.410   3.281  18.031  0.3914  0.1548 -0.7321
  457TIP3    H125566   0.456   3.312  17.954  0.4576  0.2731 -0.6450
  457TIP3    H225567   0.391   3.189  18.013 -0.2021  0.3579 -1.1813
  458TIP3   OH225568   6.004   2.086  18.712  0.2321 -0.1484  0.1317
  458TIP3    H125569   5.962   2.146  18.774 -1.0639 -1.6876  0.8192
  458TIP3    H225570   5.955   2.098  18.631 -1.0539 -1.2929  0.6859
  459TIP3   OH225571   5.334   4.470  20.351 -0.4032  0.0927 -0.8838
  459TIP3    H125572   5.346   4.492  20.259  1.0515 -0.6418 -0.8915
  459TIP3    H225573   5.373   4.383  20.361 -1.6019 -0.3522  0.1834
  460TIP3   OH225574   2.410   1.309  18.506  0.3188  0.2087 -0.2064
  460TIP3    H125575   2.374   1.321  18.593 -0.2725 -1.0574 -0.2596
  460TIP3    H225576   2.334   1.292  18.450  0.8890 -1.5934 -0.4868
  461TIP3   OH225577   4.423   2.463  19.399  0.2669 -0.0856 -0.2849
  461TIP3    H125578   4.504   2.425  19.434 -0.3391  0.2553  1.6465
  461TIP3    H225579   4.361   2.456  19.472 -1.8459 -1.4614 -2.1045
  462TIP3   OH225580   3.239   1.416  20.778  0.3666 -0.3940  0.1820
  462TIP3    H125581   3.319   1.421  20.726 -0.8258 -0.5774 -1.7526
  462TIP3    H225582   3.219   1.507  20.799 -0.7417  0.0190 -2.3303
  463TIP3   OH225583   0.548   1.288  18.677 -0.0825  0.0356 -0.1079
  463TIP3    H125584   0.616   1.222  18.674 -0.2107 -0.0808 -0.5337
  463TIP3    H225585   0.521   1.290  18.769 -0.8715 -1.3273 -0.2785
  464TIP3   OH225586   4.400   5.701  20.376  0.0358 -0.4727  0.0129
  464TIP3    H125587   4.474   5.650  20.410 -0.4523 -0.9202  0.4346
  464TIP3    H225588   4.436   5.788  20.361  0.5893 -0.6136  0.4585
  465TIP3   OH225589   2.727   5.769  20.449  0.3963  0.4871  0.0028
  465TIP3    H125590   2.691   5.858  20.451 -2.2714 -0.4270 -1.6627
  465TIP3    H225591   2.692   5.730  20.369  1.3520 -2.1242  0.7372
  466TIP3   OH225592   0.679   0.726  18.917  0.0504  0.1825  0.2430
  466TIP3    H125593   0.752   0.715  18.857  0.1972 -0.5722  0.5414
  466TIP3    H225594   0.709   0.683  18.998 -0.4922  0.3877  0.5560
  467TIP3   OH225595   5.155   5.091  18.471  0.4661 -0.4388 -0.2483
  467TIP3    H125596   5.226   5.100  18.535 -1.1801 -1.1542  1.8225
  467TIP3    H225597   5.101   5.168  18.485 -0.2457 -0.9159 -0.3301
  468TIP3   OH225598   1.784   0.060  20.731 -0.3659 -0.1676 -0.2250
  468TIP3    H125599   1.725   0.041  20.805  1.1304  0.5948  1.2361
  468TIP3    H225600   1.842   0.128  20.764  1.3270 -0.8679 -1.6011
  469TIP3   OH225601   6.055   1.048  17.882  0.4423  0.8304  0.1207
  469TIP3    H125602   5.979   1.105  17.873 -1.0494 -0.9972  0.4248
  469TIP3    H225603   6.092   1.043  17.794 -0.8028  0.4654 -0.4026
  470TIP3   OH225604   1.449   1.199  19.030 -0.0478 -0.9494 -0.1758
  470TIP3    H125605   1.529   1.165  18.990  0.1808 -3.1221  1.9491
  470TIP3    H225606   1.470   1.290  19.051  0.3320 -0.1771 -3.3968
  471TIP3   OH225607   1.979   0.758  20.919 -0.2589 -0.0244 -0.4129
  471TIP3    H125608   2.017   0.760  21.006 -0.9139  0.5531 -0.1302
  471TIP3    H225609   2.045   0.796  20.862 -1.0327  2.6028  0.3311
  472TIP3   OH225610   5.373   2.658  18.764 -0.0600 -0.1292  0.2984
  472TIP3    H125611   5.319   2.685  18.838  0.4777 -0.8698  0.9775
  472TIP3    H225612   5.428   2.733  18.745  0.7259 -0.3834  1.5197
  473TIP3   OH225613   2.338   6.047  19.823 -0.3716 -0.1520  0.4072
  473TIP3    H125614   2.298   6.113  19.767 -2.9808 -1.9899 -0.1127
  473TIP3    H225615   2.323   5.964  19.777  0.4845 -1.3761  2.2034
  474TIP3   OH225616   4.871   5.712  17.841  1.2055  0.3898 -0.4164
  474TIP3    H125617   4.787   5.742  17.805 -0.3304  0.0099  2.5611
  474TIP3    H225618   4.899   5.643  17.781 -1.2563 -0.3362 -0.8464
  475TIP3   OH225619   1.056   5.518  17.491  0.2701 -0.3595  0.0628
  475TIP3    H125620   1.064   5.614  17.495 -0.9283 -0.2672  0.3940
  475TIP3    H225621   0.997   5.496  17.562  0.4239 -1.3463 -0.1079
  476TIP3   OH225622   5.462   6.518  20.002 -0.0318 -0.6502  0.1056
  476TIP3    H125623   5.480   6.580  19.931 -0.8101 -0.3354  0.1726
  476TIP3    H225624   5.377   6.479  19.979 -1.2279  0.8273  1.7716
  477TIP3   OH225625   3.645   3.231  20.117  0.2628 -0.0040  0.2587
  477TIP3    H125626   3.627   3.146  20.076 -0.8221 -0.2314  1.1324
  477TIP3    H225627   3.727   3.218  20.165 -0.0112 -0.6328  0.5666
  478TIP3   OH225628   5.695   6.460  20.465  0.2342  0.4064  0.1666
  478TIP3    H125629   5.611   6.423  20.492  0.2636  0.0510 -0.2212
  478TIP3    H225630   5.759   6.420  20.525 -0.0299  1.7929  1.4441
  479TIP3   OH225631   3.431   3.737  20.569  0.1330 -0.0043  0.0713
  479TIP3    H125632   3.508   3.782  20.536 -0.7323 -0.0259 -2.1676
  479TIP3    H225633   3.372   3.808  20.596  0.6276  0.0279  1.1174
  480TIP3   OH225634   6.684   1.490  19.733 -0.0315  0.6786 -0.6122
  480TIP3    H125635   6.720   1.480  19.821  1.1004 -0.9408 -1.2071
  480TIP3    H225636   6.662   1.401  19.705 -4.5573  1.4924 -0.3822
  481TIP3   OH225637   4.978   0.109  19.904 -0.1036 -0.6748  0.4026
  481TIP3    H125638   5.008   0.195  19.932  0.1365 -0.2729 -1.0091
  481TIP3    H225639   4.887   0.123  19.878  0.0643 -0.7546 -0.2312
  482TIP3   OH225640   5.197   2.401  20.483 -0.3177 -0.1712  0.0714
  482TIP3    H125641   5.163   2.477  20.530 -0.4082  0.0672 -0.3770
  482TIP3    H225642   5.258   2.360  20.544 -2.1001 -1.1693  1.2840
  483TIP3   OH225643   4.763   1.050  19.775  0.4353 -0.3671 -0.1627
  483TIP3    H125644   4.681   1.075  19.818  0.2059 -2.1679  0.5446
  483TIP3    H225645   4.781   1.122  19.714 -0.9885  0.6722  0.5728
  484TIP3   OH225646   1.994   0.472  19.262  0.7096 -0.5103  0.1798
  484TIP3    H125647   2.001   0.479  19.357  1.5798 -0.7572  0.1413
  484TIP3    H225648   1.935   0.542  19.237 -0.5736 -1.2515  1.0329
  485TIP3   OH225649   6.253   2.361  18.014 -0.0403 -0.2568  0.5181
  485TIP3    H125650   6.277   2.339  17.924 -1.5096  0.2259 -0.0082
  485TIP3    H225651   6.314   2.430  18.039 -1.1394  1.3363 -0.9787
  486TIP3   OH225652   5.138   1.361  20.477  0.3684  0.1285 -0.1157
  486TIP3    H125653   5.194   1.401  20.411  2.1405 -0.0206  1.2341
  486TIP3    H225654   5.179   1.277  20.496 -0.2095  0.0826  1.0441
  487TIP3   OH225655   3.711   2.034  18.943  0.3367  0.7338  0.6216
  487TIP3    H125656   3.655   2.053  18.867 -0.7603  2.4972  1.7836
  487TIP3    H225657   3.667   1.961  18.987 -0.4237  1.3210  0.8685
  488TIP3   OH225658   4.344   1.577  19.343  0.1779 -0.0913  0.5799
  488TIP3    H125659   4.326   1.671  19.344 -0.7192 -0.2589  1.1050
  488TIP3    H225660   4.330   1.548  19.434  0.8611 -0.6551  0.5154
  489TIP3   OH225661   4.497   5.852  20.129 -0.2358  0.5886  0.3258
  489TIP3    H125662   4.499   5.781  20.065 -0.4976  2.0098 -1.3613
  489TIP3    H225663   4.470   5.929  20.078 -0.1375  1.8665  2.1024
  490TIP3   OH225664   0.353   5.473  19.251 -0.0094  0.4826  0.2681
  490TIP3    H125665   0.373   5.441  19.163 -0.9166  0.0718  0.2035
  490TIP3    H225666   0.293   5.408  19.287 -0.0493  0.9185  1.0017
  491TIP3   OH225667   4.076   6.517  20.601 -0.2036  0.3211  0.1902
  491TIP3    H125668   3.986   6.544  20.583  0.4058  1.1832 -1.8918
  491TIP3    H225669   4.091   6.443  20.543  0.2777 -0.1938  0.9466
  492TIP3   OH225670   4.687   4.044  18.246  0.8587  0.8124  0.2765
  492TIP3    H125671   4.741   4.045  18.325  3.1868  0.3147 -1.1924
  492TIP3    H225672   4.748   4.019  18.176 -1.1849  0.8355 -1.6233
  493TIP3   OH225673   1.722   0.896  21.340 -0.0240 -0.0055 -0.3035
  493TIP3    H125674   1.789   0.940  21.288  0.7936 -0.2818  0.5044
  493TIP3    H225675   1.711   0.811  21.297 -2.1106  1.1576 -2.2904
  494TIP3   OH225676   0.042   5.645  19.045 -0.2963  0.1677  0.0714
  494TIP3    H125677   0.122   5.665  18.997  1.7814 -1.1038  2.8066
  494TIP3    H225678   0.000   5.731  19.058  0.0017  0.7359 -2.2489
  495TIP3   OH225679   2.467   0.594  20.000 -0.7709  0.2124 -0.1893
  495TIP3    H125680   2.552   0.579  19.959 -1.1611 -1.0953 -0.5641
  495TIP3    H225681   2.408   0.534  19.955 -2.0862  1.6545 -0.4911
  496TIP3   OH225682   6.604   2.054  17.747 -0.1038 -0.0950 -0.1520
  496TIP3    H125683   6.579   2.081  17.835 -1.6718  0.9866 -0.8711
  496TIP3    H225684   6.528   2.005  17.715  0.9068 -1.4942 -0.5212
  497TIP3   OH225685   1.300   0.849  18.775  0.5366  0.0319 -0.3961
  497TIP3    H125686   1.229   0.910  18.757 -0.1789  0.0868  2.2244
  497TIP3    H225687   1.264   0.763  18.752  0.0588  0.1748 -0.1777
  498TIP3   OH225688   0.784   1.421  18.334  0.3050 -0.2714 -0.5877
  498TIP3    H125689   0.759   1.335  18.301 -0.3979 -0.5273  0.5869
  498TIP3    H225690   0.856   1.404  18.395 -2.0957 -0.5026  2.3860
  499TIP3   OH225691   3.416   5.457  20.497  0.3396  0.3186  0.5599
  499TIP3    H125692   3.446   5.366  20.491  1.8795  0.7007  1.8375
  499TIP3    H225693   3.486   5.508  20.457  0.6006  1.1007  1.9513
  500TIP3   OH225694   4.974   5.848  18.296 -0.2955 -0.1397  0.2130
  500TIP3    H125695   4.916   5.798  18.352 -1.1735  0.1514 -0.4200
  500TIP3    H225696   5.011   5.916  18.354  0.1612 -0.9036  0.8325
  501TIP3   OH225697   0.334   2.429  18.852 -0.4662 -0.0395  0.2812
  501TIP3    H125698   0.279   2.446  18.929 -0.2835 -1.3471  0.7337
  501TIP3    H225699   0.423   2.420  18.888 -0.2849 -0.0403 -0.1651
  502TIP3   OH225700   6.050   3.489  19.330 -0.7272  0.6571  0.2701
  502TIP3    H125701   6.059   3.454  19.418  0.3188 -0.5987 -0.3050
  502TIP3    H225702   6.138   3.519  19.307 -0.4788 -0.9683 -1.1010
  503TIP3   OH225703   4.723   4.781  20.243 -0.3245 -0.2937 -0.1137
  503TIP3    H125704   4.793   4.762  20.307  0.4716  0.0971 -0.8468
  503TIP3    H225705   4.646   4.800  20.297  0.2186 -0.3908  0.7240
  504TIP3   OH225706   5.615   3.612  18.963 -0.2333  0.3747 -0.4868
  504TIP3    H125707   5.699   3.652  18.940 -0.0050  0.6618  0.7836
  504TIP3    H225708   5.628   3.579  19.052 -1.0269 -0.8440 -0.7965
  505TIP3   OH225709   0.142   4.247  17.917  0.2768  0.3312  0.2069
  505TIP3    H125710   0.074   4.186  17.890 -0.8031  2.0931 -1.2978
  505TIP3    H225711   0.221   4.193  17.927 -0.6399 -1.3015 -0.9793
  506TIP3   OH225712   2.499   2.814  18.734 -0.3143 -0.4678  0.5416
  506TIP3    H125713   2.470   2.773  18.653  1.1010 -0.5312  0.0472
  506TIP3    H225714   2.418   2.827  18.784 -0.9416 -2.8904  0.2944
  507TIP3   OH225715   2.751   0.849  17.784 -0.3881 -0.3237 -0.3594
  507TIP3    H125716   2.728   0.931  17.740  0.2603  1.1890  1.9363
  507TIP3    H225717   2.831   0.819  17.740  0.5400  1.4034  0.0662
  508TIP3   OH225718   5.564   1.923  17.674 -0.6012  0.1809  0.3369
  508TIP3    H125719   5.572   1.849  17.614 -1.3855  0.2484  0.1441
  508TIP3    H225720   5.589   1.999  17.621  3.9617 -0.2025  1.4488
  509TIP3   OH225721   3.712   6.301  18.518 -0.1255 -0.1764  0.5963
  509TIP3    H125722   3.805   6.326  18.516 -0.7453  2.4355 -1.3046
  509TIP3    H225723   3.705   6.231  18.453  0.7309 -1.6680  2.0230
  510TIP3   OH225724   4.049   2.104  19.194  0.1089 -0.1716  0.5074
  510TIP3    H125725   3.999   2.022  19.202 -2.0973  0.9760 -0.7096
  510TIP3    H225726   4.035   2.149  19.277 -0.2864 -0.1767  0.4446
  511TIP3   OH225727   3.201   6.636  18.546 -0.5706 -0.1759  0.2959
  511TIP3    H125728   3.172   6.565  18.489 -1.0402  0.1637  0.1050
  511TIP3    H225729   3.122   6.687  18.563 -0.8975 -1.4036  2.9314
  512TIP3   OH225730   5.098   2.570  20.669  0.3816  0.0836 -0.4623
  512TIP3    H125731   5.085   2.657  20.707 -0.5700 -0.6284  0.9279
  512TIP3    H225732   5.013   2.526  20.680  1.3505 -1.6432  0.5355
  513TIP3   OH225733   3.524   2.586  20.886  0.2060  0.3831 -0.6223
  513TIP3    H125734   3.595   2.645  20.908  1.7342 -1.5536 -0.0633
  513TIP3    H225735   3.517   2.591  20.790  0.8716  0.8564 -0.6484
  514TIP3   OH225736   6.496   6.190  20.533 -0.1303  0.1331  0.4576
  514TIP3    H125737   6.439   6.142  20.593 -1.6562 -1.4207 -2.0215
  514TIP3    H225738   6.510   6.130  20.460 -1.1828  2.9416 -2.3143
  515TIP3   OH225739   5.107   0.478  20.239  0.3727  0.1525 -0.5808
  515TIP3    H125740   5.158   0.455  20.317  0.4255 -1.5374 -1.0858
  515TIP3    H225741   5.137   0.566  20.216  0.4684  0.6258  1.2037
  516TIP3   OH225742   5.024   0.364  19.993  0.0083 -0.3728 -0.5415
  516TIP3    H125743   5.035   0.449  19.949 -0.8018 -0.7997 -1.6225
  516TIP3    H225744   5.092   0.363  20.060  0.7363  0.6793 -1.2254
  517TIP3   OH225745   4.568   6.053  17.443  0.2328 -0.3812 -0.2735
  517TIP3    H125746   4.598   5.972  17.484  0.6408 -1.1901 -2.1017
  517TIP3    H225747   4.648   6.095  17.411 -0.1048  0.0203 -0.6006
  518TIP3   OH225748   5.446   5.275  20.166  0.2939  0.3631  0.3557
  518TIP3    H125749   5.508   5.227  20.221 -0.3704  0.7463  1.4566
  518TIP3    H225750   5.448   5.228  20.082  0.5303 -0.8752  1.0344
  519TIP3   OH225751   3.385   6.001  18.411  0.3337  0.1680 -0.0072
  519TIP3    H125752   3.419   5.976  18.325  0.1145  0.4923 -0.1903
  519TIP3    H225753   3.300   5.959  18.417 -0.2257  1.2024 -0.4937
  520TIP3   OH225754   6.560   0.229  20.340  0.0661  0.4606 -0.8286
  520TIP3    H125755   6.587   0.238  20.431  0.4488  0.2116 -0.9139
  520TIP3    H225756   6.641   0.206  20.293  0.1152  1.7672 -1.4180
  521TIP3   OH225757   3.482   6.405  18.679 -0.5339 -0.1867 -0.1683
  521TIP3    H125758   3.446   6.442  18.598  0.5163 -2.3938 -1.7327
  521TIP3    H225759   3.455   6.313  18.678 -0.2207 -0.3534  1.8520
  522TIP3   OH225760   2.969   6.252  19.500  0.8613  0.1800 -0.0402
  522TIP3    H125761   2.983   6.311  19.574 -0.4246 -1.5489  1.6861
  522TIP3    H225762   3.041   6.190  19.504 -0.4863 -1.4058  1.3869
  523TIP3   OH225763   4.111   0.507  19.402 -0.4443 -0.5819  0.3711
  523TIP3    H125764   4.142   0.443  19.467  0.6172  1.0830  1.5908
  523TIP3    H225765   4.191   0.548  19.369 -1.0289 -0.8527 -1.4572
  524TIP3   OH225766   1.332   2.143  17.844  0.4959 -0.2477  0.5024
  524TIP3    H125767   1.273   2.139  17.920  1.2479 -0.3548  1.0876
  524TIP3    H225768   1.295   2.080  17.782  0.9141 -1.5427  1.5320
  525TIP3   OH225769   5.858   1.394  18.890 -0.3271 -0.2597  0.1328
  525TIP3    H125770   5.940   1.363  18.930  0.1147  0.9528  0.2369
  525TIP3    H225771   5.881   1.480  18.855 -1.7053  0.3380  0.6519
  526TIP3   OH225772   2.381   4.775  20.689  0.1080 -0.0469  0.3339
  526TIP3    H125773   2.293   4.796  20.658  0.9007  0.4404 -1.7119
  526TIP3    H225774   2.434   4.850  20.663  0.9140  0.3653  2.8605
  527TIP3   OH225775   6.264   0.699  18.480 -0.1352  0.0596 -0.1711
  527TIP3    H125776   6.206   0.770  18.509  1.6224  2.4676 -2.1798
  527TIP3    H225777   6.205   0.624  18.468 -2.4690  1.7580 -0.0659
  528TIP3   OH225778   1.646   2.706  21.026 -0.2571  0.1278 -0.0242
  528TIP3    H125779   1.572   2.721  21.084  0.6441  0.3594  1.1067
  528TIP3    H225780   1.676   2.794  21.002 -1.0203  0.0481 -1.4230
  529TIP3   OH225781   2.803   2.671  18.634 -0.1819 -0.3767 -0.1802
  529TIP3    H125782   2.760   2.742  18.587  0.3758 -0.6636 -1.1472
  529TIP3    H225783   2.747   2.656  18.711 -0.9175  0.3291 -0.5638
  530TIP3   OH225784   1.469   1.969  18.951  0.1427  0.2941  0.5659
  530TIP3    H125785   1.454   1.992  19.043  2.5327  0.8440  0.8877
  530TIP3    H225786   1.434   2.044  18.902 -1.3090 -0.0802  0.9745
  531TIP3   OH225787   0.754   4.463  19.024  0.3314  0.5111  0.5989
  531TIP3    H125788   0.798   4.547  19.032  0.5980  0.2375  2.2778
  531TIP3    H225789   0.725   4.460  18.932  0.5883  2.2758  0.4231
  532TIP3   OH225790   0.979   2.620  18.590  0.1858 -0.1654 -0.8265
  532TIP3    H125791   0.952   2.534  18.557 -0.5983 -0.5766  0.7887
  532TIP3    H225792   0.904   2.677  18.572  0.0173 -0.2355 -0.3536
  533TIP3   OH225793   3.866   0.206  18.479  0.3691  0.3225 -0.1806
  533TIP3    H125794   3.883   0.143  18.550 -0.5354 -0.0165 -0.2473
  533TIP3    H225795   3.932   0.273  18.490  1.2869 -0.5813 -0.0252
  534TIP3   OH225796   6.267   3.093  17.924  0.5507  0.0554 -0.2755
  534TIP3    H125797   6.195   3.153  17.943 -0.6690 -1.3873 -0.1393
  534TIP3    H225798   6.293   3.114  17.834 -0.6983 -0.0222 -0.6786
  535TIP3   OH225799   3.004   5.906  19.052  0.6226 -0.0492  0.7335
  535TIP3    H125800   2.982   5.992  19.016 -0.2321 -1.4967 -2.5668
  535TIP3    H225801   3.081   5.878  19.002  0.8497 -1.2488  1.7067
  536TIP3   OH225802   2.437   1.265  20.914 -0.2837  0.4132  0.1004
  536TIP3    H125803   2.509   1.203  20.902 -0.9181 -0.1087 -1.2489
  536TIP3    H225804   2.387   1.229  20.987  0.9289  0.9278  1.2427
  537TIP3   OH225805   0.118   5.347  19.315  0.1566 -0.0442 -0.5908
  537TIP3    H125806   0.069   5.345  19.397  0.3632  0.3733 -0.4510
  537TIP3    H225807   0.051   5.365  19.248  0.0729  0.2069 -0.4410
  538TIP3   OH225808   3.717   0.046  19.587  0.5369 -0.4153  0.3433
  538TIP3    H125809   3.789   0.044  19.523 -0.8186  0.0404 -1.2622
  538TIP3    H225810   3.699   0.139  19.600  0.8776 -0.5038  1.5102
  539TIP3   OH225811   0.854   2.942  19.395 -0.0273  0.0764 -0.0248
  539TIP3    H125812   0.839   2.850  19.414 -0.5378  0.3392  0.9338
  539TIP3    H225813   0.795   2.962  19.323  0.0782 -0.3372 -0.2306
  540TIP3   OH225814   5.159   0.046  19.732  0.2452  0.6969  0.6727
  540TIP3    H125815   5.083   0.078  19.781  0.9498  0.9724  1.6081
  540TIP3    H225816   5.234   0.086  19.775  0.9382  0.3509 -0.1801
  541TIP3   OH225817   4.648   2.222  20.320  0.1527  0.0596  0.0740
  541TIP3    H125818   4.713   2.190  20.257  1.0074 -0.0689  0.9795
  541TIP3    H225819   4.593   2.146  20.339 -0.4964  0.2579 -0.9561
  542TIP3   OH225820   1.040   1.268  20.443  1.2732 -0.1325 -0.0328
  542TIP3    H125821   1.037   1.270  20.539 -0.6503 -0.2326 -0.0692
  542TIP3    H225822   1.049   1.175  20.421 -2.0347 -0.5561  0.0329
  543TIP3   OH225823   1.709   6.563  19.532  0.2770 -0.1174  0.2812
  543TIP3    H125824   1.691   6.525  19.618  0.8082 -2.4306 -0.5489
  543TIP3    H225825   1.623   6.580  19.495 -0.0514 -1.7274  0.2237
  544TIP3   OH225826   1.630   5.354  18.758  0.0824 -0.4826  0.3133
  544TIP3    H125827   1.650   5.342  18.851 -0.4678 -0.3585  0.4553
  544TIP3    H225828   1.591   5.441  18.753 -2.2298 -1.4349  0.3924
  545TIP3   OH225829   5.992   0.206  20.090 -1.0790 -0.1929 -0.9276
  545TIP3    H125830   6.060   0.215  20.156 -1.7694 -0.6340 -0.1364
  545TIP3    H225831   5.964   0.115  20.097 -0.0081 -0.7449 -2.9992
  546TIP3   OH225832   3.249   2.667  19.781 -0.2778 -0.5870 -0.4883
  546TIP3    H125833   3.197   2.604  19.732 -0.5393  0.2975 -1.3911
  546TIP3    H225834   3.207   2.673  19.866 -0.6950 -1.0654 -0.6576
  547TIP3   OH225835   0.154   6.011  21.014  0.1337 -0.1633 -0.2180
  547TIP3    H125836   0.161   5.939  20.951  0.7606  0.5409 -0.9771
  547TIP3    H225837   0.084   5.984  21.073 -0.0114 -1.1497 -0.8144
  548TIP3   OH225838   0.437   5.822  21.035  0.6685  0.1894  0.3960
  548TIP3    H125839   0.421   5.858  21.122 -2.0301 -0.8325  0.3985
  548TIP3    H225840   0.402   5.888  20.975  2.1951  0.7268  0.0528
  549TIP3   OH225841   3.126   2.699  18.138  0.7271  0.2940 -0.2594
  549TIP3    H125842   3.068   2.745  18.077 -2.8919 -1.3669  1.6244
  549TIP3    H225843   3.119   2.748  18.220  2.2781  0.1799 -0.0286
  550TIP3   OH225844   4.054   1.133  19.006 -0.0955 -0.0647  0.2787
  550TIP3    H125845   4.016   1.134  19.093 -0.6998  0.7440  0.0154
  550TIP3    H225846   3.981   1.150  18.947  0.5470  0.8236 -0.2925
  551TIP3   OH225847   2.151   5.176  17.486 -0.2668  0.1172 -0.9498
  551TIP3    H125848   2.242   5.175  17.516 -1.2795  3.0615  3.2430
  551TIP3    H225849   2.116   5.091  17.510  0.0425  0.9865  3.5168
  552TIP3   OH225850   2.224   1.237  17.688  0.4277 -0.2320 -0.2931
  552TIP3    H125851   2.300   1.289  17.714 -1.5043  1.4055  2.7886
  552TIP3    H225852   2.225   1.162  17.747  0.0402 -0.5879 -0.7300
  553TIP3   OH225853   2.837   5.747  18.542 -0.0856  0.1288 -0.0672
  553TIP3    H125854   2.762   5.804  18.561 -0.4628 -1.1400  2.9627
  553TIP3    H225855   2.802   5.679  18.485 -0.4888  1.1006 -0.9906
  554TIP3   OH225856   5.286   1.428  20.225  0.2056  0.3805 -0.2307
  554TIP3    H125857   5.373   1.467  20.233  0.0545  0.6394  0.1923
  554TIP3    H225858   5.302   1.338  20.197  0.6210  0.3648  0.0421
  555TIP3   OH225859   2.698   6.032  20.413 -0.1252 -0.3696 -0.7719
  555TIP3    H125860   2.746   6.050  20.332  0.5267 -1.6043 -0.6905
  555TIP3    H225861   2.623   6.091  20.410  1.1317  1.2899 -1.1423
  556TIP3   OH225862   2.990   3.874  20.255  0.1372 -0.2698  0.3640
  556TIP3    H125863   2.913   3.857  20.201  0.0897 -0.4011  0.4712
  556TIP3    H225864   3.057   3.816  20.219  0.4456  0.4879 -0.2964
  557TIP3   OH225865   4.579   2.829  20.862  0.5519 -0.0159 -0.6767
  557TIP3    H125866   4.639   2.811  20.934  0.8769 -0.1239 -0.9714
  557TIP3    H225867   4.605   2.915  20.830  0.5492 -0.0634 -0.8080
  558TIP3   OH225868   2.144   0.334  20.959 -0.4008  0.2839 -0.1573
  558TIP3    H125869   2.116   0.322  20.868 -0.9035  0.2035  0.0068
  558TIP3    H225870   2.071   0.380  21.000 -0.6038 -0.5832  0.4622
  559TIP3   OH225871   3.477   5.655  20.229  0.4114  0.0031  0.3026
  559TIP3    H125872   3.506   5.651  20.138  0.2988 -2.1468  0.2988
  559TIP3    H225873   3.422   5.733  20.233  0.0133 -0.1195 -1.6165
  560TIP3   OH225874   5.653   1.900  20.178 -0.3351 -0.5163 -0.0728
  560TIP3    H125875   5.589   1.910  20.107 -0.3073 -0.1054 -0.0373
  560TIP3    H225876   5.697   1.984  20.182 -0.2211 -0.5971  0.3261
  561TIP3   OH225877   5.965   5.306  18.896  0.1287  0.1884  0.5186
  561TIP3    H125878   5.908   5.312  18.820  2.8983  0.2475 -1.6786
  561TIP3    H225879   5.910   5.265  18.963 -1.9516 -1.4467 -1.9913
  562TIP3   OH225880   0.156   2.781  19.552 -0.2110 -0.3322  0.2625
  562TIP3    H125881   0.169   2.779  19.647  0.1970 -0.8971  0.1983
  562TIP3    H225882   0.185   2.868  19.526 -3.5599  1.1948  1.0849
  563TIP3   OH225883   0.381   0.091  19.460  0.6355  0.3146 -0.0346
  563TIP3    H125884   0.309   0.092  19.523 -0.5942 -0.4277 -1.3629
  563TIP3    H225885   0.341   0.121  19.378  1.6653 -0.7371 -0.9536
  564TIP3   OH225886   4.763   2.230  17.560 -0.0552 -0.0762 -0.1866
  564TIP3    H125887   4.691   2.249  17.500  0.2895  0.6898 -0.3676
  564TIP3    H225888   4.815   2.163  17.515  0.0751  0.3315 -0.6483
  565TIP3   OH225889   1.910   6.438  18.299 -0.0646 -0.2260  0.0073
  565TIP3    H125890   1.932   6.470  18.211  0.4373  1.1437  0.6132
  565TIP3    H225891   1.963   6.490  18.358 -1.0824 -0.4842  1.1957
  566TIP3   OH225892   3.073   1.266  19.341 -0.2098  0.5132 -0.2925
  566TIP3    H125893   3.115   1.321  19.407 -1.2691  2.0794 -0.8683
  566TIP3    H225894   2.980   1.272  19.360 -0.3692 -1.0699 -0.4195
  567TIP3   OH225895   1.917   6.286  21.007 -0.6965  0.3229 -0.5033
  567TIP3    H125896   1.880   6.212  20.959 -0.9759  0.4275 -0.4500
  567TIP3    H225897   1.847   6.351  21.010 -0.1409  0.9886 -1.4022
  568TIP3   OH225898   0.165   6.185  18.653  0.2537 -0.0469 -0.5432
  568TIP3    H125899   0.071   6.167  18.662  0.4718 -0.8572  0.2534
  568TIP3    H225900   0.198   6.114  18.597  0.7105 -0.8923  0.7395
  569TIP3   OH225901   3.137   6.313  19.110  0.5943 -0.0303  0.0187
  569TIP3    H125902   3.124   6.393  19.160 -1.7489 -0.1962 -0.2312
  569TIP3    H225903   3.070   6.253  19.141 -0.2028 -0.5419 -2.4506
  570TIP3   OH225904   6.613   2.655  18.967  0.2903  0.8547  0.0190
  570TIP3    H125905   6.636   2.562  18.963 -1.1183  0.4604  0.5879
  570TIP3    H225906   6.591   2.678  18.877  0.4563  0.5938 -0.0913
  571TIP3   OH225907   3.494   0.122  20.720 -0.2692 -0.2854  0.1808
  571TIP3    H125908   3.466   0.056  20.784  0.2487 -0.5550  0.1364
  571TIP3    H225909   3.532   0.192  20.773 -2.2254  0.7191  0.3381
  572TIP3   OH225910   1.477   1.304  17.603  0.2823  0.0119 -0.3239
  572TIP3    H125911   1.471   1.291  17.508  1.0563 -1.8231 -0.1623
  572TIP3    H225912   1.418   1.377  17.621 -0.8376 -0.4118 -2.0561
  573TIP3   OH225913   3.922   2.176  20.962 -0.2914  0.0060  0.0822
  573TIP3    H125914   3.845   2.174  20.907 -1.2301  1.3747  1.2750
  573TIP3    H225915   3.889   2.198  21.049  1.3772  0.1094  0.7283
  574TIP3   OH225916   1.891   2.151  19.995 -0.5265  0.1589  0.6118
  574TIP3    H125917   1.974   2.145  20.041  1.2488 -0.8546 -2.4721
  574TIP3    H225918   1.871   2.060  19.970 -0.3833  0.7971 -2.1279
  575TIP3   OH225919   0.130   3.209  21.131  0.1741  0.4489 -0.1906
  575TIP3    H125920   0.210   3.251  21.099  2.2077 -1.7375  1.5605
  575TIP3    H225921   0.103   3.263  21.205  0.3047  0.9553 -0.5084
  576TIP3   OH225922   4.858   2.518  20.922  0.1360 -0.9740 -0.2386
  576TIP3    H125923   4.947   2.523  20.958 -0.2845 -0.0192  0.7592
  576TIP3    H225924   4.862   2.450  20.855  2.0914  0.4013 -1.6060
  577TIP3   OH225925   2.943   2.441  20.086 -0.8099 -0.1975  0.1708
  577TIP3    H125926   2.943   2.361  20.033 -0.4532 -0.0552 -0.0438
  577TIP3    H225927   2.867   2.431  20.143 -0.0096 -1.3196  1.0867
  578TIP3   OH225928   0.619   4.574  19.407  0.1728 -0.2377  0.4254
  578TIP3    H125929   0.669   4.497  19.379  0.6313 -0.4811  1.8217
  578TIP3    H225930   0.592   4.616  19.326  2.0584 -0.4815 -0.3929
  579TIP3   OH225931   5.256   0.110  18.455  0.1010 -0.0560  0.1469
  579TIP3    H125932   5.245   0.015  18.462 -0.8869  0.0975  1.0331
  579TIP3    H225933   5.338   0.122  18.408 -0.7332 -1.3571 -1.7747
  580TIP3   OH225934   1.229   0.094  19.376 -0.0932  0.0758 -0.2581
  580TIP3    H125935   1.264   0.160  19.316 -0.2707  1.1794  0.7954
  580TIP3    H225936   1.215   0.143  19.458 -1.7870 -0.9060  0.0601
  581TIP3   OH225937   6.652   3.738  20.069 -0.6595 -0.7007 -0.2257
  581TIP3    H125938   6.660   3.674  19.999 -0.3291 -0.3602 -0.4983
  581TIP3    H225939   6.713   3.808  20.046  0.0892 -0.9833  0.8448
  582TIP3   OH225940   6.535   3.425  21.116  0.6584 -0.0593  0.2850
  582TIP3    H125941   6.512   3.333  21.098 -0.4309  0.0340  1.1250
  582TIP3    H225942   6.579   3.423  21.201  2.9881 -0.0935 -0.8303
  583TIP3   OH225943   1.252   0.549  20.959 -0.2979  0.3320 -0.4827
  583TIP3    H125944   1.242   0.503  21.042 -0.0240 -0.6833 -1.0051
  583TIP3    H225945   1.190   0.623  20.966 -0.9431 -0.2568  0.2532
  584TIP3   OH225946   6.687   1.409  19.389  0.5500  0.2584  0.0528
  584TIP3    H125947   6.703   1.503  19.398 -2.7847  1.0662 -1.1542
  584TIP3    H225948   6.592   1.400  19.386  0.7438 -2.9600 -1.8153
  585TIP3   OH225949   3.207   1.369  19.707 -0.1100  0.4602 -0.1140
  585TIP3    H125950   3.226   1.409  19.622 -0.7583 -0.2772 -0.6171
  585TIP3    H225951   3.179   1.442  19.762  1.0382  1.0649 -0.2961
  586TIP3   OH225952   2.827   4.239  18.373  0.1105 -0.1525 -0.0699
  586TIP3    H125953   2.801   4.152  18.403 -0.6387  0.1735  0.2407
  586TIP3    H225954   2.820   4.235  18.278 -1.7374  0.1199  0.0283
  587TIP3   OH225955   5.999   6.286  18.866 -0.4091 -0.6653 -0.5580
  587TIP3    H125956   5.926   6.329  18.821 -0.4791  0.1822  0.3613
  587TIP3    H225957   6.076   6.312  18.816 -0.2543  1.8320  0.8749
  588TIP3   OH225958   5.738   5.272  20.656  0.2785  0.0224 -0.3271
  588TIP3    H125959   5.703   5.194  20.615  2.3584 -0.7985 -0.6496
  588TIP3    H225960   5.752   5.333  20.584 -0.7436  0.4926 -0.1519
  589TIP3   OH225961   3.953   1.703  20.351  0.0593 -0.1087  0.1795
  589TIP3    H125962   4.047   1.719  20.341 -0.1253  0.8378 -0.1583
  589TIP3    H225963   3.915   1.790  20.362 -0.9001 -0.4071 -0.6632
  590TIP3   OH225964   5.247   4.342  19.883 -0.1642 -0.7778 -0.2289
  590TIP3    H125965   5.314   4.278  19.904  1.1375  0.5722 -0.1167
  590TIP3    H225966   5.221   4.379  19.968 -0.7163 -0.9485 -0.3169
  591TIP3   OH225967   0.264   6.342  20.395  0.7655 -0.2741 -0.0586
  591TIP3    H125968   0.339   6.289  20.368  2.0399 -0.1014  2.7755
  591TIP3    H225969   0.189   6.283  20.386  1.4278 -0.9140 -1.6235
  592TIP3   OH225970   4.791   3.919  19.021 -0.3420 -0.6085 -0.2147
  592TIP3    H125971   4.772   3.875  19.104  0.3606 -0.6902 -0.0844
  592TIP3    H225972   4.843   3.996  19.046 -0.2989 -0.5229 -0.5639
  593TIP3   OH225973   0.160   3.093  19.016 -0.2756 -0.2599 -0.4451
  593TIP3    H125974   0.238   3.144  18.992 -0.7817  1.2272  0.8488
  593TIP3    H225975   0.194   3.021  19.069  0.2515  0.1864 -0.1665
  594TIP3   OH225976   1.668   0.303  19.503  0.1208 -0.1676  0.2534
  594TIP3    H125977   1.654   0.278  19.595  0.6992  1.8532  0.9569
  594TIP3    H225978   1.594   0.360  19.483  0.4783  0.1364 -0.2286
  595TIP3   OH225979   4.425   5.573  18.785 -0.2301 -0.3756  0.1083
  595TIP3    H125980   4.445   5.665  18.766  0.5941  0.3985  3.9139
  595TIP3    H225981   4.335   5.575  18.819  0.2591 -0.6993  1.4908
  596TIP3   OH225982   2.196   5.766  18.928  0.1013  0.5702 -0.1401
  596TIP3    H125983   2.166   5.759  18.837  0.2621  0.3194 -0.1748
  596TIP3    H225984   2.177   5.856  18.953  1.7373  1.1910 -1.0148
  597TIP3   OH225985   0.455   1.325  19.255  0.3340  0.0048  0.2564
  597TIP3    H125986   0.486   1.276  19.331  0.6455 -1.9227 -1.0445
  597TIP3    H225987   0.373   1.283  19.230  0.3530  0.4632 -0.6230
  598TIP3   OH225988   4.257   1.694  19.770 -0.3336  0.9444 -0.3563
  598TIP3    H125989   4.191   1.668  19.834  0.5555 -0.2112  0.1446
  598TIP3    H225990   4.330   1.726  19.822  0.6886 -0.6933 -0.7111
  599TIP3   OH225991   0.854   5.878  18.891 -0.4419  0.0160  0.3932
  599TIP3    H125992   0.785   5.933  18.930 -0.4458  0.2291  0.0876
  599TIP3    H225993   0.849   5.796  18.941 -0.9037  0.0350  0.3914
  600TIP3   OH225994   2.092   3.396  19.883  1.0477  0.1814  0.2973
  600TIP3    H125995   2.016   3.397  19.941  0.1757  1.6856 -0.8005
  600TIP3    H225996   2.097   3.306  19.851  0.4765 -0.2289  1.3119
  601TIP3   OH225997   1.642   4.584  21.167 -0.0622  0.1017 -0.2225
  601TIP3    H125998   1.721   4.532  21.180 -0.1739  0.2296  1.2047
  601TIP3    H225999   1.669   4.674  21.186 -0.8204 -0.0258  1.7877
  602TIP3   OH226000   3.420   2.946  20.666 -0.0484  0.4481 -0.2531
  602TIP3    H126001   3.417   3.041  20.662 -0.5505  0.4392 -0.0610
  602TIP3    H226002   3.513   2.926  20.680  0.2379  0.8622 -1.4391
  603TIP3   OH226003   5.522   0.938  18.017  0.5574  0.7119  0.2298
  603TIP3    H126004   5.432   0.970  18.015 -0.4468 -1.9284  0.6861
  603TIP3    H226005   5.565   0.987  17.946 -0.9200  2.7416  0.6366
  604TIP3   OH226006   3.818   0.057  17.710  0.7669 -0.2933  0.5095
  604TIP3    H126007   3.869   0.000  17.768 -0.2700 -0.8911  0.8535
  604TIP3    H226008   3.736   0.010  17.695  0.7777  0.1016 -1.0069
  605TIP3   OH226009   3.096   5.361  18.792 -0.2056 -0.6566  0.0969
  605TIP3    H126010   3.191   5.369  18.802 -0.2239 -1.2988  0.8516
  605TIP3    H226011   3.066   5.451  18.774  0.4793 -0.3656  0.3832
  606TIP3   OH226012   3.933   1.217  19.525  0.1590  0.0690 -0.6864
  606TIP3    H126013   3.848   1.192  19.489 -0.0561  0.3621 -0.3938
  606TIP3    H226014   3.975   1.134  19.548 -0.2304 -0.0582 -0.4305
  607TIP3   OH226015   4.596   1.663  19.354  0.0345  0.0431  0.3689
  607TIP3    H126016   4.564   1.721  19.423 -0.2821  1.1156 -0.6466
  607TIP3    H226017   4.520   1.610  19.330 -0.4128  1.0475 -0.5033
  608TIP3   OH226018   3.233   1.561  20.099 -0.1912  0.3058  0.2806
  608TIP3    H126019   3.284   1.613  20.037  1.7716 -2.0742 -0.2392
  608TIP3    H226020   3.289   1.551  20.175 -0.2974 -1.3912  0.1813
  609TIP3   OH226021   1.693   1.761  19.946  0.1562  0.5438 -0.0117
  609TIP3    H126022   1.678   1.726  20.034 -0.0755  0.3873 -0.1111
  609TIP3    H226023   1.623   1.722  19.893  0.6251  0.1848 -0.3841
  610TIP3   OH226024   3.697   0.754  20.520 -0.2804 -0.5031  0.4508
  610TIP3    H126025   3.666   0.823  20.462  1.3137 -0.4937 -0.4439
  610TIP3    H226026   3.674   0.784  20.608  1.5791  1.8971  0.2199
  611TIP3   OH226027   1.446   4.149  19.292 -0.3308 -0.1300 -0.3718
  611TIP3    H126028   1.446   4.232  19.245 -1.2496  0.3782  0.4801
  611TIP3    H226029   1.495   4.089  19.236  1.0649  1.1943 -0.6327
  612TIP3   OH226030   3.834   4.434  18.519 -0.3598 -0.0725  1.0927
  612TIP3    H126031   3.754   4.484  18.536 -1.2034  0.0010 -2.4045
  612TIP3    H226032   3.816   4.385  18.439  2.2699 -2.0203  1.5462
  613TIP3   OH226033   6.226   4.981  19.981  0.1740  0.0839  0.0943
  613TIP3    H126034   6.141   4.972  20.024  0.5240 -0.8198  0.6365
  613TIP3    H226035   6.260   4.891  19.976  1.2300  0.4571  0.1761
  614TIP3   OH226036   3.576   0.043  18.240  0.3636 -0.2464 -0.5090
  614TIP3    H126037   3.565   0.020  18.147 -0.1807 -1.3991 -0.1747
  614TIP3    H226038   3.555  -0.037  18.287 -0.3040  0.5852  0.6618
  615TIP3   OH226039   3.921   4.464  20.194 -0.1729  0.2778  0.3490
  615TIP3    H126040   3.987   4.516  20.147 -1.6090  0.7815 -1.2186
  615TIP3    H226041   3.884   4.526  20.258  0.3037  0.2248  0.6827
  616TIP3   OH226042   5.853   1.748  17.687  0.5539 -0.1096 -0.2869
  616TIP3    H126043   5.785   1.704  17.738 -0.4107 -0.3361 -1.7352
  616TIP3    H226044   5.814   1.762  17.601  2.1834  0.1655 -1.0164
  617TIP3   OH226045   6.269   2.081  20.986  0.4441 -0.2012 -0.3313
  617TIP3    H126046   6.324   2.110  21.059  0.6306 -2.1866  0.3813
  617TIP3    H226047   6.284   2.147  20.917  1.7088  0.7031  0.7562
  618TIP3   OH226048   3.993   0.612  20.119  0.4611  0.6390 -0.3462
  618TIP3    H126049   3.940   0.647  20.190 -0.1894  1.7211 -1.3388
  618TIP3    H226050   3.942   0.538  20.086 -0.0419  1.1729 -0.7706
  619TIP3   OH226051   5.594   1.908  18.201 -0.0979 -0.2376 -0.1023
  619TIP3    H126052   5.583   2.002  18.215  1.3418 -0.0681 -0.0106
  619TIP3    H226053   5.626   1.901  18.111 -0.0498 -0.6386 -0.0561
  620TIP3   OH226054   1.564   5.542  20.034 -0.1566 -0.0374  0.6984
  620TIP3    H126055   1.608   5.543  19.949 -1.2620 -0.0374  0.1168
  620TIP3    H226056   1.610   5.608  20.086 -0.0451  0.5882 -0.1861
  621TIP3   OH226057   3.022   3.625  19.086  0.6033  0.0215  0.0949
  621TIP3    H126058   3.039   3.587  19.173  1.2003  0.7947  0.3262
  621TIP3    H226059   2.927   3.628  19.080  0.5480 -0.7065  0.4214
  622TIP3   OH226060   2.335   3.508  19.816 -0.1333 -0.0299 -0.1204
  622TIP3    H126061   2.248   3.473  19.836 -0.9865  2.4154  0.8937
  622TIP3    H226062   2.331   3.598  19.847  3.3451 -0.2965  1.5359
  623TIP3   OH226063   4.379   2.585  19.172 -0.2152 -0.1166 -0.0752
  623TIP3    H126064   4.340   2.667  19.201  1.5829  0.4770  0.8318
  623TIP3    H226065   4.380   2.530  19.251 -0.1519 -0.5002 -0.3403
  624TIP3   OH226066   4.154   4.616  17.417 -0.0005  0.2986  0.2838
  624TIP3    H126067   4.109   4.533  17.401  1.2174 -0.1906 -0.7828
  624TIP3    H226068   4.084   4.682  17.414 -1.0001 -0.6553  1.2092
  625TIP3   OH226069   0.943   5.498  20.383 -0.3999 -0.3495  0.1190
  625TIP3    H126070   0.877   5.467  20.445  1.5817 -3.4179  0.9316
  625TIP3    H226071   0.999   5.556  20.434 -0.5199 -0.4371  0.3506
  626TIP3   OH226072   6.176   2.131  18.294 -0.4026  0.0213  0.1912
  626TIP3    H126073   6.208   2.106  18.207  0.4590 -0.4462  0.6266
  626TIP3    H226074   6.107   2.195  18.276  1.2783  1.6882 -0.8128
  627TIP3   OH226075   2.364   4.691  18.662 -0.1482  0.4524  0.5135
  627TIP3    H126076   2.349   4.607  18.704  1.3917  1.1078  2.5101
  627TIP3    H226077   2.279   4.736  18.666 -0.6365 -0.4658  0.6248
  628TIP3   OH226078   5.065   2.679  20.278 -0.3520  0.6307  0.2998
  628TIP3    H126079   5.116   2.759  20.291 -0.2901  0.4558  1.1881
  628TIP3    H226080   5.125   2.619  20.236 -0.0426  0.6757  0.6697
  629TIP3   OH226081   5.392   3.792  20.061 -0.5379 -0.4693 -0.9660
  629TIP3    H126082   5.305   3.823  20.036 -1.0507 -2.0917 -1.2854
  629TIP3    H226083   5.378   3.739  20.139  0.5603  1.3794  0.5961
  630TIP3   OH226084   6.009   3.087  18.925  0.2099 -0.2177 -0.2823
  630TIP3    H126085   6.013   3.140  19.005  1.3902 -0.0867 -0.4125
  630TIP3    H226086   6.009   3.151  18.854 -1.5193 -0.3103 -0.4007
  631TIP3   OH226087   1.619   3.590  20.757  0.2497 -0.5284 -0.3707
  631TIP3    H126088   1.600   3.518  20.817 -2.5126  0.0096 -0.4447
  631TIP3    H226089   1.533   3.623  20.731  1.3927  1.8525 -1.5099
  632TIP3   OH226090   2.553   3.903  20.930  0.6837  0.0518  0.1295
  632TIP3    H126091   2.519   3.815  20.917  0.6006  0.1375 -0.2353
  632TIP3    H226092   2.516   3.931  21.014 -0.1976  0.1708 -0.2933
  633TIP3   OH226093   4.799   0.038  19.219 -0.5774  0.1156  0.3253
  633TIP3    H126094   4.847   0.119  19.231  0.0529 -0.4451  1.8157
  633TIP3    H226095   4.858  -0.030  19.251 -1.2351 -0.9050 -0.5479
  634TIP3   OH226096   1.540   1.531  19.835 -0.2268  0.0103 -0.2014
  634TIP3    H126097   1.494   1.568  19.760 -2.3258 -1.7672  0.1149
  634TIP3    H226098   1.477   1.472  19.876  1.4774 -0.5146  1.8816
  635TIP3   OH226099   5.470   5.145  19.922  0.9615  0.1097 -0.4521
  635TIP3    H126100   5.409   5.162  19.850  1.2891  0.8973 -0.5505
  635TIP3    H226101   5.535   5.214  19.915  1.4725 -0.3090  0.0905
  636TIP3   OH226102   2.491   1.635  19.581  0.1003 -0.9737  0.0403
  636TIP3    H126103   2.455   1.635  19.670 -0.6825 -1.0385 -0.2690
  636TIP3    H226104   2.501   1.728  19.560  0.3143 -0.9585  0.2048
  637TIP3   OH226105   3.463   4.169  17.447 -0.1357  0.0632 -0.0149
  637TIP3    H126106   3.384   4.177  17.393 -0.1061  2.9309  0.2371
  637TIP3    H226107   3.464   4.077  17.473 -1.3632 -0.9260 -3.0183
  638TIP3   OH226108   1.948   5.314  20.399 -0.1040 -0.3495 -0.6826
  638TIP3    H126109   1.927   5.406  20.387 -1.5695 -0.4732  0.6731
  638TIP3    H226110   1.895   5.286  20.473  0.8163 -2.1272 -0.6290
  639TIP3   OH226111   5.902   5.806  18.123  0.2228  0.4043  0.2891
  639TIP3    H126112   5.914   5.712  18.133 -1.1069  0.2911  1.0444
  639TIP3    H226113   5.897   5.820  18.029 -0.1284 -0.3685  0.1896
  640TIP3   OH226114   2.047   6.167  19.199 -0.1971  0.6062  0.9367
  640TIP3    H126115   2.048   6.260  19.218  2.4231  0.9067 -0.2248
  640TIP3    H226116   2.112   6.129  19.260 -0.9195 -0.4013  1.1129
  641TIP3   OH226117   6.505   2.010  19.926  0.5160  0.5779 -0.3226
  641TIP3    H126118   6.536   2.004  20.016 -1.2731 -1.3266  0.2518
  641TIP3    H226119   6.418   1.970  19.928  0.4885  0.3399 -2.9275
  642TIP3   OH226120   5.202   1.900  18.488 -0.4685 -0.5518  0.0508
  642TIP3    H126121   5.287   1.936  18.513 -0.0251  0.2265 -2.3220
  642TIP3    H226122   5.154   1.974  18.452 -0.8697 -1.5854 -1.6793
  643TIP3   OH226123   1.920   5.038  21.300  0.8444  0.0781 -0.1389
  643TIP3    H126124   1.884   5.118  21.263 -1.9880 -0.8910  0.3235
  643TIP3    H226125   1.874   5.027  21.383  0.2403 -2.6445 -0.7579
  644TIP3   OH226126   3.747   5.446  20.657  0.8027  0.2984 -0.2492
  644TIP3    H126127   3.823   5.390  20.665 -0.4879 -1.5645 -0.4276
  644TIP3    H226128   3.696   5.407  20.586 -1.1728  0.3911  1.0382
  645TIP3   OH226129   3.745   5.859  20.045 -0.0137  0.6907  0.3639
  645TIP3    H126130   3.831   5.895  20.024  0.9512 -1.0663  1.0906
  645TIP3    H226131   3.746   5.848  20.141 -0.3231 -0.9743  0.2175
  646TIP3   OH226132   6.355   4.019  20.758 -0.0483 -0.0075 -0.1583
  646TIP3    H126133   6.383   3.929  20.774 -1.6629 -0.3971  0.7194
  646TIP3    H226134   6.262   4.019  20.780 -0.5946  1.3793 -2.1630
  647TIP3   OH226135   3.182   0.699  18.831 -0.2125  0.7254 -0.4021
  647TIP3    H126136   3.193   0.614  18.873  1.1765  0.7136 -0.7706
  647TIP3    H226137   3.107   0.687  18.772 -0.6223  0.0453  0.2379
  648TIP3   OH226138   1.381   4.896  20.940 -0.5724 -0.3128 -0.3239
  648TIP3    H126139   1.327   4.913  20.862 -3.0026 -0.3595  1.2580
  648TIP3    H226140   1.468   4.927  20.915 -1.6679  1.3586 -2.4407
  649TIP3   OH226141   6.623   0.180  18.470  0.2545 -0.8178  0.4590
  649TIP3    H126142   6.688   0.230  18.518 -0.3667 -0.4202  0.8984
  649TIP3    H226143   6.545   0.180  18.526 -0.2355 -0.9973 -0.1974
  650TIP3   OH226144   0.388   3.201  19.293  0.3987 -0.4265 -0.3370
  650TIP3    H126145   0.467   3.153  19.269  2.0351  0.2612  3.0396
  650TIP3    H226146   0.397   3.286  19.250  0.6492 -0.8974 -1.2455
  651TIP3   OH226147   5.795   1.100  18.873 -0.4711 -0.1148  0.2824
  651TIP3    H126148   5.704   1.117  18.897 -1.0497  0.1447 -1.8623
  651TIP3    H226149   5.841   1.182  18.892  0.0009 -1.0597  3.9356
  652TIP3   OH226150   0.309   1.454  18.254  0.3490 -0.0542  0.3254
  652TIP3    H126151   0.391   1.482  18.293  1.0249  0.0724 -1.1054
  652TIP3    H226152   0.329   1.369  18.215 -0.4644 -0.4572  0.7649
  653TIP3   OH226153   4.791   3.783  19.251 -0.1630 -0.2843  0.0690
  653TIP3    H126154   4.862   3.733  19.291 -0.0627  0.6203  1.0556
  653TIP3    H226155   4.712   3.750  19.296 -0.1255  0.2352  0.5248
  654TIP3   OH226156   2.213   5.933  21.309  0.6944  0.4241  0.5939
  654TIP3    H126157   2.251   5.848  21.332  0.1609  0.1811  0.6069
  654TIP3    H226158   2.119   5.922  21.326  0.2832  0.3008 -1.4704
  655TIP3   OH226159   0.713   1.061  18.711  0.1303  0.4956 -0.2936
  655TIP3    H126160   0.773   1.022  18.775  0.6294  0.1779 -0.9462
  655TIP3    H226161   0.704   0.993  18.644  0.8401  1.4165 -1.3442
  656TIP3   OH226162   5.261   3.428  21.179  0.8129  0.4766  0.5529
  656TIP3    H126163   5.244   3.407  21.088 -1.5455  0.0540  1.0322
  656TIP3    H226164   5.281   3.522  21.178 -0.5894  0.7952 -0.2639
  657TIP3   OH226165   6.563   3.745  20.760  0.2439 -0.3369  0.0578
  657TIP3    H126166   6.484   3.694  20.777 -0.6673  1.3448  1.2076
  657TIP3    H226167   6.575   3.798  20.839  1.8512  0.3004 -0.5663
  658TIP3   OH226168   0.519   2.987  20.224 -0.1523 -0.4062  0.5564
  658TIP3    H126169   0.533   2.913  20.283  2.4079 -1.7264 -1.5350
  658TIP3    H226170   0.490   2.948  20.142  2.6854  0.6345 -1.0690
  659TIP3   OH226171   0.051   2.159  18.582  0.1493 -0.5779  0.1828
  659TIP3    H126172   0.067   2.067  18.599 -2.0435 -0.7825  1.4045
  659TIP3    H226173   0.136   2.201  18.597  1.2309 -2.3749 -0.5860
  660TIP3   OH226174   2.884   6.204  20.550  0.7351 -0.0822 -0.2295
  660TIP3    H126175   2.817   6.137  20.537  0.1836  0.3439  0.3936
  660TIP3    H226176   2.867   6.240  20.637  2.8920 -1.2063  0.7369
  661TIP3   OH226177   2.852   3.200  19.655 -0.5236 -0.5335 -0.1514
  661TIP3    H126178   2.933   3.199  19.605 -1.7719  0.5150 -2.3344
  661TIP3    H226179   2.840   3.292  19.679 -0.8624 -0.7534  0.5684
  662TIP3   OH226180   3.673   0.471  17.776  0.0800  0.2521  0.4431
  662TIP3    H126181   3.659   0.409  17.704 -0.1972  0.4603  0.3165
  662TIP3    H226182   3.655   0.420  17.855 -0.7941  0.3442  0.3081
  663TIP3   OH226183   3.273   4.915  20.282  0.1731 -0.2823 -0.1585
  663TIP3    H126184   3.311   4.829  20.300  0.5587 -0.1050 -0.1222
  663TIP3    H226185   3.261   4.954  20.368 -0.3599 -0.4473 -0.1511
  664TIP3   OH226186   4.880   1.550  19.483  0.0112 -0.3428  0.4968
  664TIP3    H126187   4.794   1.507  19.489 -0.6258  0.9005  0.5157
  664TIP3    H226188   4.908   1.561  19.574 -0.1549 -0.0734  0.5161
  665TIP3   OH226189   3.818   0.291  18.786 -0.6951  0.1155 -0.3346
  665TIP3    H126190   3.862   0.334  18.713  1.5978 -1.6224 -0.0858
  665TIP3    H226191   3.725   0.291  18.761 -0.1648  0.9070 -2.5278
  666TIP3   OH226192   2.345   2.524  19.881  0.4383 -0.5676 -0.0293
  666TIP3    H126193   2.436   2.553  19.879  0.1330  0.5803  1.1902
  666TIP3    H226194   2.327   2.507  19.973 -1.0814  1.0268  0.0270
  667TIP3   OH226195   0.338   1.680  18.485 -0.3108  0.3112 -0.0931
  667TIP3    H126196   0.411   1.620  18.498 -0.9332 -0.0342  2.1624
  667TIP3    H226197   0.262   1.633  18.519 -1.7248  0.5135 -2.6931
  668TIP3   OH226198   3.961   6.553  19.198  0.1883  0.3237 -0.1968
  668TIP3    H126199   4.047   6.548  19.239  1.0311 -2.5472 -2.0112
  668TIP3    H226200   3.973   6.511  19.112 -2.2258  3.0342 -2.0567
  669TIP3   OH226201   5.196   5.460  20.582 -0.1115 -0.1871 -0.3365
  669TIP3    H126202   5.267   5.451  20.518 -0.0513  0.7628 -0.4229
  669TIP3    H226203   5.226   5.411  20.659  0.9274  0.6876 -0.1527
  670TIP3   OH226204   2.276   0.371  19.925 -0.4841 -0.3854 -0.1040
  670TIP3    H126205   2.196   0.369  19.872  0.1981 -1.6893 -1.1467
  670TIP3    H226206   2.247   0.345  20.013 -1.4573  0.7949 -0.0494
  671TIP3   OH226207   1.818   0.119  21.391  0.5499 -0.6698  0.4762
  671TIP3    H126208   1.761   0.167  21.331  1.7545 -1.0358 -1.0363
  671TIP3    H226209   1.838   0.182  21.461 -0.9908 -0.2734  0.5813
  672TIP3   OH226210   0.196   1.897  19.682  0.2092 -0.0259 -0.0402
  672TIP3    H126211   0.149   1.981  19.686  0.1865  0.0112 -0.8826
  672TIP3    H226212   0.288   1.922  19.677  0.5406 -0.1149  3.4459
  673TIP3   OH226213   3.998   6.488  18.503 -0.3063  0.4372 -0.7608
  673TIP3    H126214   4.000   6.565  18.559  1.2824  0.9392 -1.4463
  673TIP3    H226215   4.020   6.521  18.416 -1.8672 -0.4583 -1.5336
  674TIP3   OH226216   5.153   4.878  18.312  0.5820 -0.0152  0.3536
  674TIP3    H126217   5.229   4.895  18.256  0.4247  0.1378  0.1864
  674TIP3    H226218   5.159   4.943  18.382  0.4175  0.2167  0.1516
  675TIP3   OH226219   3.821   3.427  21.071 -0.0850  0.0791  0.0055
  675TIP3    H126220   3.732   3.463  21.070 -0.0851  0.4587  3.0011
  675TIP3    H226221   3.808   3.332  21.071 -0.5719  0.1289  1.0344
  676TIP3   OH226222   4.870   1.225  20.831 -0.6052 -0.1272 -0.5574
  676TIP3    H126223   4.866   1.156  20.766 -1.9323  1.3533 -2.1570
  676TIP3    H226224   4.867   1.306  20.780 -2.5301  1.1108  1.3608
  677TIP3   OH226225   4.908   3.777  20.966 -0.1309 -0.4097 -0.6141
  677TIP3    H126226   4.889   3.852  20.909  0.2580  0.8192  0.7969
  677TIP3    H226227   4.859   3.705  20.928  0.2456  0.3089 -2.5930
  678TIP3   OH226228   1.316   6.437  20.897  0.0844 -0.0872  0.7029
  678TIP3    H126229   1.254   6.506  20.919  0.1696  0.0459  0.5286
  678TIP3    H226230   1.320   6.383  20.975 -1.2224 -0.8393  0.2726
  679TIP3   OH226231   0.945   1.851  18.761 -0.0477  0.1466  0.6177
  679TIP3    H126232   0.886   1.784  18.726 -0.6264  0.2485  1.3911
  679TIP3    H226233   0.901   1.885  18.838  1.4146 -0.3853  1.7476
  680TIP3   OH226234   6.439   3.341  19.165  0.2820 -0.4121  0.5262
  680TIP3    H126235   6.408   3.266  19.216  2.0686 -2.4433 -1.1838
  680TIP3    H226236   6.529   3.319  19.143 -0.1544  0.6776 -2.8867
  681TIP3   OH226237   3.215   0.802  20.667  0.3060 -0.3132  0.2176
  681TIP3    H126238   3.266   0.882  20.679  0.1754 -0.1172 -0.5194
  681TIP3    H226239   3.265   0.750  20.605  0.9679 -1.3249  1.5444
  682TIP3   OH226240   4.219   6.014  17.852 -0.0661 -0.4431 -0.4095
  682TIP3    H126241   4.263   5.955  17.791  0.9568 -0.4733  0.3426
  682TIP3    H226242   4.129   6.019  17.819  0.6157  0.1053 -2.3294
  683TIP3   OH226243   3.189   5.577  20.388  0.3600  0.8118  0.0420
  683TIP3    H126244   3.199   5.650  20.328 -0.0050  1.2105  0.4590
  683TIP3    H226245   3.277   5.539  20.396  0.4636  0.9401 -0.5033
  684TIP3   OH226246   4.760   1.522  18.440  0.1012 -0.2206  0.4301
  684TIP3    H126247   4.790   1.585  18.374 -1.4799  0.1607  0.0163
  684TIP3    H226248   4.809   1.442  18.421  1.4035  0.5743  0.3181
  685TIP3   OH226249   6.244   5.345  19.956 -0.5427  0.1261  0.2527
  685TIP3    H126250   6.326   5.392  19.938 -0.9467  1.0677  0.8147
  685TIP3    H226251   6.260   5.301  20.040 -0.5126  0.0774  0.2212
  686TIP3   OH226252   2.364   6.504  18.623 -0.4942 -0.0825 -0.0235
  686TIP3    H126253   2.298   6.470  18.684  0.0888 -1.1176  0.0579
  686TIP3    H226254   2.443   6.455  18.644  0.1485  0.7058 -0.5360
  687TIP3   OH226255   4.408   4.813  19.513 -0.0235 -0.0452  0.4134
  687TIP3    H126256   4.403   4.853  19.426 -0.5078  1.7575  1.2107
  687TIP3    H226257   4.380   4.722  19.499  1.1337 -0.1732 -1.4934
  688TIP3   OH226258   2.733   1.805  20.873  0.7492 -0.1644  0.4459
  688TIP3    H126259   2.795   1.732  20.876  1.6216  0.5697  1.3760
  688TIP3    H226260   2.789   1.882  20.862 -0.2874  0.2112 -3.7358
  689TIP3   OH226261   5.039   1.022  20.259  0.6368 -0.0016 -0.5569
  689TIP3    H126262   4.999   1.092  20.310 -0.4131 -1.1598  0.2605
  689TIP3    H226263   5.121   1.059  20.227  0.4175  1.3711  0.4206
  690TIP3   OH226264   0.704   2.273  18.360  0.3724  0.8803  0.2700
  690TIP3    H126265   0.657   2.254  18.441  0.6345  2.2057  0.7524
  690TIP3    H226266   0.761   2.197  18.347 -1.1307 -0.3003  0.1990
  691TIP3   OH226267   4.599   0.470  18.621  0.7558  0.1579  0.1431
  691TIP3    H126268   4.559   0.553  18.649  1.6457  0.4452  0.5864
  691TIP3    H226269   4.693   0.483  18.632  0.9666 -0.5860 -0.6915
  692TIP3   OH226270   1.789   0.754  20.566  0.4130  0.0416 -0.0070
  692TIP3    H126271   1.808   0.768  20.473  0.1893 -2.7667 -0.5757
  692TIP3    H226272   1.875   0.740  20.606  0.4436  0.2397 -0.0050
  693TIP3   OH226273   5.302   4.841  19.732 -0.0783  0.4841 -0.1325
  693TIP3    H126274   5.241   4.770  19.709 -0.0372  0.0149  1.1188
  693TIP3    H226275   5.262   4.920  19.696 -1.4348  0.1829  0.6284
  694TIP3   OH226276   0.686   3.694  20.861  0.1280 -0.3301 -0.4360
  694TIP3    H126277   0.759   3.711  20.920  0.2069 -2.6442  0.2566
  694TIP3    H226278   0.655   3.780  20.834  1.8948  0.7295  0.7533
  695TIP3   OH226279   2.984   6.687  19.946  0.4877  0.2309  0.3237
  695TIP3    H126280   2.964   6.595  19.961 -1.9208  0.5513 -0.5334
  695TIP3    H226281   2.900   6.732  19.956  1.3890  2.1793 -0.3636
  696TIP3   OH226282   6.327   4.011  18.146  0.1185 -0.1758  0.2797
  696TIP3    H126283   6.350   4.020  18.238  1.0582  0.7038 -0.0207
  696TIP3    H226284   6.379   3.937  18.115 -0.0874 -0.3787  0.4108
  697TIP3   OH226285   4.080   5.021  19.215  0.9502  0.0777  0.5553
  697TIP3    H126286   4.079   5.093  19.278 -0.5560 -0.7623  1.5759
  697TIP3    H226287   4.105   5.061  19.132 -1.1190  2.0705  0.7957
  698TIP3   OH226288   2.102   1.613  18.761  0.2672 -0.0415 -0.4391
  698TIP3    H126289   2.164   1.615  18.689  0.1426 -1.5140 -0.6033
  698TIP3    H226290   2.022   1.653  18.725  1.0993  2.0121 -0.1773
  699TIP3   OH226291   2.655   1.862  20.069 -0.1597  0.2575 -0.0279
  699TIP3    H126292   2.667   1.808  20.147  0.0206 -0.7323 -0.7158
  699TIP3    H226293   2.642   1.799  19.998  0.9762  1.0874 -1.0249
  700TIP3   OH226294   3.169   5.843  18.840 -0.5558  0.4831  0.3577
  700TIP3    H126295   3.148   5.928  18.802 -1.6574  0.7220  1.4402
  700TIP3    H226296   3.108   5.782  18.798 -0.2803  0.3615  0.1344
  701TIP3   OH226297   0.684   2.128  20.154 -0.2054  0.2594  0.5216
  701TIP3    H126298   0.677   2.219  20.124 -1.0671  0.0581  0.0594
  701TIP3    H226299   0.595   2.107  20.183 -0.3493 -0.8520 -0.6328
  702TIP3   OH226300   3.325   1.082  19.389  0.0911 -0.1340 -0.3047
  702TIP3    H126301   3.263   1.012  19.414 -0.6368  0.4388 -0.4619
  702TIP3    H226302   3.354   1.118  19.473  0.7925 -0.8896 -0.2087
  703TIP3   OH226303   2.997   2.928  20.726  0.5047 -0.5455 -0.7111
  703TIP3    H126304   2.998   2.886  20.812  0.7409 -0.4802 -0.6825
  703TIP3    H226305   3.064   2.881  20.676  3.1559  1.8989  0.3087
  704TIP3   OH226306   5.343   3.891  18.053  0.8774  0.7865  0.2766
  704TIP3    H126307   5.368   3.846  17.972 -0.8318  1.8675 -0.9158
  704TIP3    H226308   5.251   3.911  18.042  0.3870  0.3195  2.8466
  705TIP3   OH226309   4.550   6.252  18.797  0.5110  0.3263  0.0355
  705TIP3    H126310   4.480   6.316  18.782  0.3128  0.0121 -0.3992
  705TIP3    H226311   4.606   6.259  18.720  0.1340 -0.4679 -0.3182
  706TIP3   OH226312   1.497   3.928  19.126 -0.2323  0.0169  0.0741
  706TIP3    H126313   1.411   3.888  19.136 -0.7454  1.5660  2.9838
  706TIP3    H226314   1.558   3.859  19.151 -0.7786 -0.3634  0.3770
  707TIP3   OH226315   6.015   0.629  21.004 -0.2264 -0.8257  0.4391
  707TIP3    H126316   6.020   0.721  21.031  0.6788 -1.0186  0.9767
  707TIP3    H226317   6.056   0.628  20.918  0.4299 -0.8370  0.7457
  708TIP3   OH226318   1.370   0.846  18.080  0.0798 -0.1208  0.3190
  708TIP3    H126319   1.425   0.856  18.003  0.2805  0.7167  0.5547
  708TIP3    H226320   1.280   0.850  18.047  0.1572 -0.7944  0.0151
  709TIP3   OH226321   5.254   1.971  21.007  0.0440 -0.1972 -0.0740
  709TIP3    H126322   5.269   1.924  20.925 -0.5144 -1.0858  0.3044
  709TIP3    H226323   5.167   1.942  21.035 -0.0164  0.5450  0.5320
  710TIP3   OH226324   0.870   4.050  20.514 -0.3310  0.0933  0.6067
  710TIP3    H126325   0.797   4.058  20.575  0.5144  0.8411  1.5684
  710TIP3    H226326   0.870   4.133  20.465 -1.3614 -0.7367 -0.8603
  711TIP3   OH226327   3.626   1.345  18.918 -0.5542 -0.2560  0.2508
  711TIP3    H126328   3.549   1.298  18.951 -2.0381  1.1263 -1.0618
  711TIP3    H226329   3.601   1.374  18.830  0.8502  1.6189  0.3997
  712TIP3   OH226330   0.890   2.242  19.733  0.4617 -0.7005 -0.5220
  712TIP3    H126331   0.945   2.202  19.665 -0.0374  2.6809 -3.1803
  712TIP3    H226332   0.900   2.336  19.720 -2.8412  0.0838  1.5065
  713TIP3   OH226333   1.758   2.123  18.596 -0.0081 -0.2841 -0.1998
  713TIP3    H126334   1.774   2.064  18.523 -0.0036 -0.4075 -0.1000
  713TIP3    H226335   1.836   2.114  18.652  0.3608  0.4168 -0.5839
  714TIP3   OH226336   5.995   6.031  19.985  0.1519 -0.0784  0.0787
  714TIP3    H126337   6.044   6.113  19.988  0.0748 -0.0455  0.5326
  714TIP3    H226338   5.947   6.034  19.902 -1.4256  1.2578  0.9850
  715TIP3   OH226339   2.217   3.422  19.395  0.1951  0.2064 -0.1239
  715TIP3    H126340   2.234   3.502  19.444  1.7927  1.4941 -2.5069
  715TIP3    H226341   2.127   3.431  19.363 -0.0812  0.4124  0.7053
  716TIP3   OH226342   3.744   3.588  20.739 -0.0094  0.4740 -0.0917
  716TIP3    H126343   3.795   3.523  20.788  0.3855  2.4131  2.3242
  716TIP3    H226344   3.690   3.630  20.806 -1.4316  1.5539 -1.8450
  717TIP3   OH226345   2.029   6.096  20.265  0.1425  0.1499  0.3425
  717TIP3    H126346   2.076   6.087  20.182  2.0663 -1.4173  1.5094
  717TIP3    H226347   1.973   6.018  20.270  0.9360 -0.4052  0.9991
  718TIP3   OH226348   1.738   3.573  20.357  0.3938 -0.0535  0.2662
  718TIP3    H126349   1.808   3.554  20.295 -0.2283 -0.3390 -0.3620
  718TIP3    H226350   1.665   3.516  20.330 -0.3074  0.7052  0.5049
  719TIP3   OH226351   2.089   5.326  21.087  0.7228  0.0851  0.7408
  719TIP3    H126352   2.165   5.270  21.099 -0.5178 -1.6988  0.7656
  719TIP3    H226353   2.084   5.339  20.992  0.9958  0.0891  0.7282
  720TIP3   OH226354   1.766   5.137  20.880  0.1630 -0.5914 -0.5484
  720TIP3    H126355   1.800   5.187  20.954 -0.9076  3.4650 -2.4566
  720TIP3    H226356   1.671   5.140  20.891 -0.0758  0.9405 -2.3858
  721TIP3   OH226357   0.363   2.356  21.033  0.1205 -0.0604 -0.1430
  721TIP3    H126358   0.402   2.288  20.979 -0.2906  0.1748 -0.7505
  721TIP3    H226359   0.290   2.312  21.077  0.3797 -0.2199  0.1364
  722TIP3   OH226360   4.266   3.500  19.712 -0.3974  0.1814  0.6552
  722TIP3    H126361   4.211   3.532  19.640  0.5478  1.2679  0.3953
  722TIP3    H226362   4.330   3.443  19.670  0.0609  0.6952  0.6510
  723TIP3   OH226363   4.469   6.243  18.399 -0.3966 -0.3654  0.5303
  723TIP3    H126364   4.514   6.273  18.320  0.4070  1.5696  1.6559
  723TIP3    H226365   4.409   6.315  18.421 -2.2547 -1.8263  0.4756
  724TIP3   OH226366   2.585   6.592  17.855 -0.2338  0.2009  0.4075
  724TIP3    H126367   2.526   6.606  17.781 -1.0552 -0.1787  0.9760
  724TIP3    H226368   2.672   6.590  17.816 -0.6522  0.0432 -0.5443
  725TIP3   OH226369   5.295   5.882  20.612  0.8123 -0.2177  0.0621
  725TIP3    H126370   5.216   5.852  20.657  1.2528  0.1715  1.1271
  725TIP3    H226371   5.290   5.842  20.525 -0.3982 -0.4421  0.2188
  726TIP3   OH226372   2.601   2.850  17.706 -0.2164 -0.0437 -0.3696
  726TIP3    H126373   2.675   2.850  17.645  0.4278  1.3413  0.3842
  726TIP3    H226374   2.526   2.822  17.653  0.2325  1.5939 -1.9244
  727TIP3   OH226375   6.609   3.819  18.402  0.4937  0.2792  0.2372
  727TIP3    H126376   6.610   3.725  18.418 -0.9771  0.2222  0.2132
  727TIP3    H226377   6.592   3.827  18.308  1.0029  0.5664  0.1696
  728TIP3   OH226378   5.134   5.562  18.278  0.0367 -0.2127  0.0710
  728TIP3    H126379   5.058   5.545  18.222 -0.0818  0.0888  0.1395
  728TIP3    H226380   5.209   5.555  18.219 -0.0415 -0.5422  0.0096
  729TIP3   OH226381   0.297   4.007  17.923 -0.9338  0.1828 -0.4507
  729TIP3    H126382   0.267   3.989  18.012  0.2874  2.9546  0.6256
  729TIP3    H226383   0.304   3.920  17.882 -2.2924 -1.1145  1.8548
  730TIP3   OH226384   6.471   5.145  20.564  0.3059 -0.0699 -0.5289
  730TIP3    H126385   6.389   5.175  20.602 -0.2927 -2.2171  0.0052
  730TIP3    H226386   6.447   5.073  20.506  1.7467 -0.3625 -0.8239
  731TIP3   OH226387   1.859   5.539  19.619  0.1121 -0.2902 -0.4090
  731TIP3    H126388   1.775   5.501  19.645 -1.1904  2.0963 -0.7430
  731TIP3    H226389   1.838   5.592  19.542  0.7497  4.2052  2.1555
  732TIP3   OH226390   2.773   2.858  19.933 -0.2161  0.1342 -0.1023
  732TIP3    H126391   2.768   2.927  19.999  0.4693  0.3696 -0.2974
  732TIP3    H226392   2.700   2.799  19.955 -1.1783  1.2140 -0.2817
  733TIP3   OH226393   3.140   1.221  19.086 -0.4498 -0.5078  0.0305
  733TIP3    H126394   3.116   1.128  19.087  1.0891 -0.9627  2.2440
  733TIP3    H226395   3.126   1.251  19.175  2.0882  0.4925  0.1901
  734TIP3   OH226396   4.562   5.514  18.542 -0.5283  0.4608 -0.3960
  734TIP3    H126397   4.647   5.549  18.569  0.2246 -1.9604  0.5920
  734TIP3    H226398   4.501   5.545  18.610  0.2408 -0.5937  0.8222
  735TIP3   OH226399   4.863   1.884  19.438  0.1112  0.5076  0.6504
  735TIP3    H126400   4.934   1.942  19.464  0.4870  1.3156 -1.9098
  735TIP3    H226401   4.905   1.798  19.428  0.5056  0.7485  0.1990
  736TIP3   OH226402   0.058   0.924  19.031 -0.2764 -0.0551 -0.4927
  736TIP3    H126403   0.135   0.962  18.989  0.2033 -0.3042  0.1444
  736TIP3    H226404   0.048   0.838  18.989 -0.3138  0.0483 -0.6964
  737TIP3   OH226405   4.488   4.892  20.641 -0.0561 -0.5559 -0.0599
  737TIP3    H126406   4.505   4.903  20.548 -3.1644 -3.4729 -1.1663
  737TIP3    H226407   4.406   4.939  20.656  0.8365  0.6193  1.4940
  738TIP3   OH226408   2.825   5.647  19.060 -0.0433  0.1773 -0.4563
  738TIP3    H126409   2.804   5.668  19.151 -3.0320 -1.8467 -0.5581
  738TIP3    H226410   2.868   5.726  19.027 -0.2269  1.5290  2.2686
  739TIP3   OH226411   4.507   5.980  19.888  0.0494 -0.1353  0.0126
  739TIP3    H126412   4.557   5.902  19.862  0.9654  0.8676 -1.3826
  739TIP3    H226413   4.566   6.053  19.869 -0.8400  0.9130  1.1763
  740TIP3   OH226414   5.313   3.815  19.793 -0.1482 -0.8185 -0.6393
  740TIP3    H126415   5.269   3.735  19.764 -0.1760 -1.4954  1.1119
  740TIP3    H226416   5.392   3.784  19.838  0.0075  0.1519 -0.2030
  741TIP3   OH226417   1.758   3.692  19.814  0.2424 -0.5582  0.0505
  741TIP3    H126418   1.818   3.766  19.805 -1.3033  0.5233 -2.1833
  741TIP3    H226419   1.712   3.687  19.730 -2.1051 -1.9570  1.3022
  742TIP3   OH226420   4.297   3.857  19.370 -0.7794  0.4721 -0.9913
  742TIP3    H126421   4.289   3.933  19.312  0.0511  0.5978 -0.9553
  742TIP3    H226422   4.259   3.785  19.320 -1.7726  0.9559 -0.9400
  743TIP3   OH226423   3.011   1.997  17.837  0.5292  0.0823 -0.1470
  743TIP3    H126424   3.093   2.044  17.824  1.3660 -1.2653  0.0744
  743TIP3    H226425   2.981   1.975  17.749  0.5016  0.4077 -0.2199
  744TIP3   OH226426   4.316   6.602  20.326  0.8492  0.1229 -0.2191
  744TIP3    H126427   4.240   6.630  20.275  0.1262  0.4783  1.0292
  744TIP3    H226428   4.391   6.636  20.277  0.1190  1.5398 -0.4014
  745TIP3   OH226429   3.150   0.613  19.503 -0.4970 -0.2587  0.1629
  745TIP3    H126430   3.243   0.612  19.526 -0.3802 -0.6029 -0.2991
  745TIP3    H226431   3.106   0.639  19.583 -0.1438 -1.9049  0.9439
  746TIP3   OH226432   5.319   4.334  18.338  0.5542  0.8796  0.3731
  746TIP3    H126433   5.367   4.331  18.421  2.4243  1.9204 -0.6007
  746TIP3    H226434   5.343   4.254  18.293 -1.6643 -0.4516  1.3772
  747TIP3   OH226435   4.170   3.892  20.995  0.4747  0.2323 -0.6962
  747TIP3    H126436   4.173   3.858  21.084 -0.3553 -0.5137 -0.9468
  747TIP3    H226437   4.084   3.867  20.962  1.4049 -1.0360 -2.3137
  748TIP3   OH226438   5.075   6.003  20.176 -0.0406 -0.0476 -0.2469
  748TIP3    H126439   4.982   6.020  20.164 -0.0947  1.1476  1.4260
  748TIP3    H226440   5.111   5.999  20.088 -1.4702  0.7604 -0.9015
  749TIP3   OH226441   3.191   1.462  18.359 -0.1526  0.1161 -0.4768
  749TIP3    H126442   3.121   1.485  18.421 -0.0156 -0.2206 -0.1904
  749TIP3    H226443   3.201   1.539  18.304  0.7279  0.9740  0.8488
  750TIP3   OH226444   0.601   2.450  21.145  0.3049 -0.0721 -0.4906
  750TIP3    H126445   0.601   2.533  21.192 -0.9131 -1.2591  1.7686
  750TIP3    H226446   0.510   2.438  21.116  0.4360 -0.6774 -0.6717
  751TIP3   OH226447   1.596   0.094  20.970  0.6975  0.4246  0.0684
  751TIP3    H126448   1.566   0.166  20.914 -0.9497  0.9643  1.5511
  751TIP3    H226449   1.649   0.137  21.037 -0.3136  0.3023  0.9727
  752TIP3   OH226450   1.642   2.650  19.062 -0.5094  0.2243 -0.0718
  752TIP3    H126451   1.704   2.577  19.057 -0.4530  0.3307 -1.4347
  752TIP3    H226452   1.662   2.703  18.984 -1.1797  1.1820  0.3906
  753TIP3   OH226453   2.961   5.102  20.363 -0.4830 -0.2452 -0.3143
  753TIP3    H126454   2.898   5.104  20.435  0.7675 -2.0829  0.8876
  753TIP3    H226455   3.026   5.038  20.389  2.4338  2.1724 -1.0754
  754TIP3   OH226456   6.660   0.319  18.137  0.0347  0.2933 -0.0490
  754TIP3    H126457   6.628   0.375  18.066 -0.5310  2.2803  1.6715
  754TIP3    H226458   6.595   0.249  18.143 -1.2725  1.4624  0.0694
  755TIP3   OH226459   4.069   0.030  18.063  0.2332  0.2845  0.2313
  755TIP3    H126460   4.007   0.092  18.103 -0.6917 -0.4205 -0.0828
  755TIP3    H226461   4.018  -0.013  17.995  1.3699  0.4072 -0.7123
  756TIP3   OH226462   1.441   3.527  18.956  0.0634  0.0506  0.8494
  756TIP3    H126463   1.532   3.500  18.967 -0.1392  0.2170  3.8742
  756TIP3    H226464   1.441   3.620  18.977 -0.9324 -0.1880  2.0392
  757TIP3   OH226465   4.963   6.066  18.495 -0.0471 -0.2065  0.2869
  757TIP3    H126466   4.952   6.071  18.590  0.0495 -1.5115  0.3758
  757TIP3    H226467   5.014   6.144  18.473 -0.5465  0.4103  1.2230
  758TIP3   OH226468   0.225   1.013  20.487  0.2105  0.2712 -0.3288
  758TIP3    H126469   0.212   1.078  20.556 -0.6405 -0.6977  0.4845
  758TIP3    H226470   0.136   0.988  20.462  0.5220 -0.1707 -1.0207
  759TIP3   OH226471   0.568   2.599  17.469  0.0578 -0.0131 -0.5556
  759TIP3    H126472   0.573   2.534  17.539 -0.6766  1.4321  0.8861
  759TIP3    H226473   0.598   2.681  17.508 -1.5112  1.1112 -1.5428
  760TIP3   OH226474   3.695   2.924  18.402  0.1978 -0.1216 -0.0584
  760TIP3    H126475   3.772   2.977  18.422  1.1119 -1.4932  0.1936
  760TIP3    H226476   3.729   2.835  18.391 -1.6782 -1.3319  2.9225
  761TIP3   OH226477   6.238   1.324  17.938 -0.6655  0.1892  0.4402
  761TIP3    H126478   6.218   1.355  17.850 -0.2967  0.4474  0.4454
  761TIP3    H226479   6.333   1.334  17.946 -0.4055 -1.7377  0.1406
  762TIP3   OH226480   2.734   5.379  19.215 -0.0842 -0.3517  0.6545
  762TIP3    H126481   2.681   5.305  19.185  1.2652 -0.7084 -0.9897
  762TIP3    H226482   2.822   5.342  19.227  0.7212  1.0340 -0.6278
  763TIP3   OH226483   2.526   0.666  18.695 -0.0781 -0.1996  0.5641
  763TIP3    H126484   2.483   0.643  18.777 -0.9419 -1.6093 -0.2488
  763TIP3    H226485   2.589   0.596  18.680  0.6686  0.4845  0.4182
  764TIP3   OH226486   0.400   4.262  19.774  0.5829  0.2195  0.1061
  764TIP3    H126487   0.362   4.245  19.860 -0.5000 -2.5200 -0.8074
  764TIP3    H226488   0.432   4.177  19.744  2.5637  1.4318 -1.4771
  765TIP3   OH226489   1.258   0.185  19.637  0.0247 -0.0249  0.1748
  765TIP3    H126490   1.337   0.187  19.690  0.9913  0.4465 -1.2464
  765TIP3    H226491   1.191   0.148  19.695  1.7291 -2.3054  0.7850
  766TIP3   OH226492   4.282   2.895  20.065 -0.0755 -0.5425 -0.0709
  766TIP3    H126493   4.368   2.916  20.099 -0.0253 -1.3089  0.3008
  766TIP3    H226494   4.261   2.968  20.006  0.2661  0.2935  0.8129
  767TIP3   OH226495   4.372   2.887  18.168 -0.0494 -0.3550  0.3306
  767TIP3    H126496   4.445   2.836  18.202 -0.4802 -1.4124 -0.2872
  767TIP3    H226497   4.298   2.863  18.224  0.0035  0.5007  0.7783
  768TIP3   OH226498   5.821   0.582  19.925 -0.7784  0.9585  0.4429
  768TIP3    H126499   5.856   0.511  19.871 -1.5260 -0.6262  1.9495
  768TIP3    H226500   5.784   0.644  19.862  0.4687  0.3572 -0.9493
  769TIP3   OH226501   4.330   4.362  19.664  0.7126 -0.1249  0.2209
  769TIP3    H126502   4.421   4.333  19.672  0.7915  0.2075  0.5698
  769TIP3    H226503   4.286   4.290  19.620  1.2842 -0.0031 -0.5609
  770TIP3   OH226504   5.438   2.062  18.458 -0.2188 -0.6458 -0.6410
  770TIP3    H126505   5.437   2.108  18.374  0.3304  0.1476 -0.2239
  770TIP3    H226506   5.488   1.983  18.441 -1.2117 -1.1422 -1.3801
  771TIP3   OH226507   4.165   1.640  20.561 -0.0053 -0.2487 -0.6467
  771TIP3    H126508   4.247   1.597  20.534  1.0788 -0.1677  2.1772
  771TIP3    H226509   4.125   1.577  20.621 -0.5853  0.8840  0.1718
  772TIP3   OH226510   1.876   1.656  19.148  0.2787  0.1592  0.2801
  772TIP3    H126511   1.884   1.745  19.115  0.4696 -0.4332 -1.3904
  772TIP3    H226512   1.957   1.640  19.196  0.6121  0.6265 -0.1201
  773TIP3   OH226513   1.363   6.134  20.255 -0.0834 -0.6198  0.2731
  773TIP3    H126514   1.434   6.072  20.273 -0.6146 -0.7276  2.3022
  773TIP3    H226515   1.377   6.205  20.317 -1.0091 -0.0025 -0.2009
  774TIP3   OH226516   2.875   2.511  20.471  0.2548 -0.1024 -0.2103
  774TIP3    H126517   2.801   2.558  20.510  1.0429  1.3559 -0.4020
  774TIP3    H226518   2.845   2.485  20.384  0.2116  1.1765 -0.5922
  775TIP3   OH226519   3.331   2.057  18.325 -0.5163 -0.1418  0.2260
  775TIP3    H126520   3.285   1.980  18.294 -1.2400  0.8668 -1.3504
  775TIP3    H226521   3.416   2.024  18.354 -0.7876 -1.5176 -0.4625
  776TIP3   OH226522   4.307   1.329  18.656 -0.3647 -0.5139 -0.4660
  776TIP3    H126523   4.372   1.372  18.600  0.0781 -0.8199 -0.1995
  776TIP3    H226524   4.229   1.383  18.648  0.6718  1.4107  1.2525
  777TIP3   OH226525   1.104   0.279  18.152 -0.4995  0.1480  0.1013
  777TIP3    H126526   1.141   0.365  18.130 -0.4579  0.8318  2.5677
  777TIP3    H226527   1.174   0.235  18.201 -0.7454 -1.0845 -0.6118
  778TIP3   OH226528   6.113   1.749  20.199 -0.0115 -0.0222  0.0429
  778TIP3    H126529   6.059   1.670  20.204 -0.3704  0.2825  1.4420
  778TIP3    H226530   6.112   1.784  20.287 -1.5313  2.6807 -0.9498
  779TIP3   OH226531   5.955   2.627  19.137  0.2463 -0.5378  0.0875
  779TIP3    H126532   5.892   2.596  19.201 -1.6466  1.9437 -0.4040
  779TIP3    H226533   6.030   2.655  19.189 -0.9684  0.7874  1.2260
  780TIP3   OH226534   2.653   4.398  17.531 -0.0161  0.0990 -0.3013
  780TIP3    H126535   2.690   4.315  17.560 -0.0446  0.1051 -0.2458
  780TIP3    H226536   2.726   4.460  17.537  0.4757 -0.2808 -2.0188
  781TIP3   OH226537   3.158   4.059  21.185 -0.2095  0.1882  0.4328
  781TIP3    H126538   3.220   4.130  21.193 -1.4238  1.1403  1.9878
  781TIP3    H226539   3.202   3.994  21.129  0.7746  2.2734 -1.3434
  782TIP3   OH226540   2.234   0.438  20.458  0.4762 -0.0086 -0.2064
  782TIP3    H126541   2.279   0.362  20.495  1.4770  1.4713  1.7779
  782TIP3    H226542   2.296   0.475  20.396  0.6367  0.1249  0.0352
  783TIP3   OH226543   4.883   0.932  17.969  0.3947  0.1551  0.0938
  783TIP3    H126544   4.941   0.878  18.022 -2.7684 -1.4030  2.2330
  783TIP3    H226545   4.886   1.018  18.010 -0.3793 -0.4835  1.5389
  784TIP3   OH226546   1.080   0.063  18.848  0.2376  0.3861  0.2406
  784TIP3    H126547   1.011  -0.000  18.868  0.7010 -0.2461 -0.1012
  784TIP3    H226548   1.146   0.012  18.801  0.0637  1.3800 -1.1513
  785TIP3   OH226549   0.097   0.843  20.029 -0.4709 -0.1367  0.0828
  785TIP3    H126550   0.025   0.804  20.080  0.1096  0.4641  1.4217
  785TIP3    H226551   0.053   0.900  19.966 -1.2012 -0.3649  0.3646
  786TIP3   OH226552   1.583   3.116  18.903 -1.4618  0.7467  0.3496
  786TIP3    H126553   1.663   3.150  18.863 -1.3122 -1.5668 -1.5326
  786TIP3    H226554   1.512   3.153  18.849 -1.6289  1.8353  1.2794
  787TIP3   OH226555   3.918   3.578  18.406 -0.0368  0.1762 -0.2199
  787TIP3    H126556   4.000   3.627  18.417  2.3106 -3.1751 -1.2126
  787TIP3    H226557   3.915   3.556  18.313 -0.3046 -2.4835  0.3390
  788TIP3   OH226558   1.910   5.900  20.026 -0.0671  0.1990  0.5952
  788TIP3    H126559   1.909   5.856  19.940 -0.9285  0.5996  0.3873
  788TIP3    H226560   1.946   5.987  20.008 -0.5185  0.3859  0.5805
  789TIP3   OH226561   5.853   3.130  19.809  0.1115 -0.1187 -0.4057
  789TIP3    H126562   5.857   3.148  19.715 -0.9428 -0.5695 -0.5568
  789TIP3    H226563   5.864   3.215  19.851  1.4044 -0.0180 -0.8990
  790TIP3   OH226564   4.850   6.323  18.751  0.0365 -0.5929 -0.8337
  790TIP3    H126565   4.798   6.402  18.733 -0.1805 -0.4035  0.5207
  790TIP3    H226566   4.822   6.260  18.684 -0.3593  0.2178 -1.4487
  791TIP3   OH226567   4.249   4.778  19.719  0.7814 -0.1000 -0.5399
  791TIP3    H126568   4.188   4.850  19.702  0.5283 -0.3946 -0.8707
  791TIP3    H226569   4.321   4.793  19.657  0.7086 -0.1563 -0.6378
  792TIP3   OH226570   2.588   4.336  20.844 -0.2384  0.0686 -0.0995
  792TIP3    H126571   2.648   4.279  20.893  0.2772  1.9651  1.6256
  792TIP3    H226572   2.523   4.362  20.909  1.0426  3.4935 -0.0052
  793TIP3   OH226573   2.153   2.580  19.025  0.5953 -0.4042  0.2491
  793TIP3    H126574   2.180   2.667  18.995  0.3831 -0.5846 -0.4959
  793TIP3    H226575   2.228   2.547  19.075  0.8144  0.0610  0.2297
  794TIP3   OH226576   6.378   3.007  18.454  0.6583 -0.0335  0.6615
  794TIP3    H126577   6.372   3.103  18.459 -0.0970 -0.0439  0.0404
  794TIP3    H226578   6.470   2.990  18.433  0.6075  0.6011 -0.1179
  795TIP3   OH226579   6.586   4.584  20.701  0.0785  0.0783  0.4963
  795TIP3    H126580   6.542   4.643  20.640  0.7498  1.1010  0.9889
  795TIP3    H226581   6.515   4.550  20.756 -0.2203  1.0572  0.7330
  796TIP3   OH226582   2.844   0.948  21.045 -0.2672 -0.4602  0.1772
  796TIP3    H126583   2.872   0.865  21.006 -0.2332 -0.2913 -0.1615
  796TIP3    H226584   2.905   0.961  21.118 -0.3204 -0.7698  0.2823
  797TIP3   OH226585   3.913   4.808  19.077 -0.5513 -0.0813  0.2721
  797TIP3    H126586   3.889   4.790  19.168 -1.7716 -0.1968 -0.0573
  797TIP3    H226587   3.858   4.883  19.052  1.3517  1.4084  0.2841
  798TIP3   OH226588   2.887   4.502  18.295 -0.3205  0.2787 -0.2294
  798TIP3    H126589   2.918   4.443  18.227 -0.2463 -0.7077  0.6323
  798TIP3    H226590   2.849   4.445  18.362 -1.0412  1.2574  0.2385
  799TIP3   OH226591   4.793   0.159  18.736 -0.2473  0.0232  0.0643
  799TIP3    H126592   4.750   0.083  18.776 -0.0783  0.0924  0.3764
  799TIP3    H226593   4.875   0.168  18.784  0.6239 -0.7484 -1.1984
  800TIP3   OH226594   1.953   6.465  19.962  0.0740  0.2824  0.3466
  800TIP3    H126595   1.892   6.536  19.941 -2.0814 -0.9155  2.1129
  800TIP3    H226596   1.929   6.439  20.051  1.9645 -1.5202  0.3967
  801TIP3   OH226597   6.356   1.244  20.699  0.0692 -0.0230  0.2517
  801TIP3    H126598   6.404   1.326  20.710 -1.8245  1.3965 -1.4102
  801TIP3    H226599   6.422   1.183  20.666  1.4318  0.9226  1.1087
  802TIP3   OH226600   0.936   5.508  21.208 -0.2216  0.1170  0.3316
  802TIP3    H126601   0.842   5.493  21.216 -0.2809 -0.2446 -0.8501
  802TIP3    H226602   0.972   5.422  21.185  0.3850  0.2779  0.6555
  803TIP3   OH226603   2.433   3.786  20.111 -0.1234 -0.4935  0.3609
  803TIP3    H126604   2.358   3.836  20.144  0.2124 -0.5637  1.2708
  803TIP3    H226605   2.502   3.852  20.099  0.1016 -0.6250  0.8888
  804TIP3   OH226606   2.802   4.040  19.223 -0.3676 -0.9780  0.3330
  804TIP3    H126607   2.786   3.949  19.248 -2.0108 -0.8955 -0.3352
  804TIP3    H226608   2.760   4.092  19.291  0.0953 -0.7165  0.4218
  805TIP3   OH226609   3.977   0.884  18.289  0.1907 -0.4766 -0.1800
  805TIP3    H126610   4.039   0.898  18.217  0.8349 -0.4184  0.3747
  805TIP3    H226611   3.906   0.946  18.272  1.2536  0.9257  0.2596
  806TIP3   OH226612   2.627   0.264  18.418  0.0046 -0.2799  0.2563
  806TIP3    H126613   2.689   0.216  18.362 -0.5346 -0.8950  0.1712
  806TIP3    H226614   2.542   0.251  18.376 -0.2221  0.3181  0.5295
  807TIP3   OH226615   6.071   4.606  20.454 -0.8815 -0.0961 -0.0576
  807TIP3    H126616   5.976   4.607  20.445 -1.0103 -1.0034  1.0029
  807TIP3    H226617   6.102   4.573  20.370 -1.4903  0.3306 -0.4584
  808TIP3   OH226618   4.463   2.962  19.795 -0.4299  0.3513  0.3941
  808TIP3    H126619   4.439   3.055  19.799  1.6263  0.9169  0.8437
  808TIP3    H226620   4.552   2.962  19.758 -0.6485 -1.4907 -0.2082
  809TIP3   OH226621   4.004   1.510  20.749  0.4824  0.3767 -0.2256
  809TIP3    H126622   3.967   1.577  20.805  1.0443  0.4546  0.0606
  809TIP3    H226623   4.055   1.454  20.808  0.7226  0.2035 -0.5882
  810TIP3   OH226624   5.712   6.327  10.777 -0.2261  0.4578 -0.5679
  810TIP3    H126625   5.785   6.387  10.792  0.5563  0.0645 -2.4889
  810TIP3    H226626   5.753   6.241  10.773 -1.0539  0.0260  0.0891
  811TIP3   OH226627   6.061   6.632  18.805  0.2570 -0.2827  0.3963
  811TIP3    H126628   6.086   6.676  18.886  0.0878  0.9288 -0.1893
  811TIP3    H226629   5.965   6.631  18.807  0.1366  1.8445 -0.8104
  812TIP3   OH226630   5.849   5.195  20.007  0.0087 -0.5343 -0.0931
  812TIP3    H126631   5.768   5.186  19.957  0.0778 -1.3047 -0.0744
  812TIP3    H226632   5.884   5.280  19.981 -0.9614 -0.0570  0.1295
  813TIP3   OH226633   2.513   5.154  17.966 -0.3192 -0.0721  0.1979
  813TIP3    H126634   2.592   5.208  17.974 -1.2276  1.4803 -0.8296
  813TIP3    H226635   2.545   5.069  17.935  0.8698  0.8381 -1.2042
  814TIP3   OH226636   6.198   2.036  18.901 -0.0034  0.0832 -0.0853
  814TIP3    H126637   6.126   2.061  18.958  1.7504  1.0711  1.8143
  814TIP3    H226638   6.168   2.058  18.813 -2.4790 -0.7303  0.4882
  815TIP3   OH226639   5.061   4.007  19.824 -0.3353  0.0141  0.0534
  815TIP3    H126640   5.071   3.916  19.798 -1.0100 -0.4033  1.1742
  815TIP3    H226641   5.144   4.029  19.866  0.5346  0.5161 -1.8581
  816TIP3   OH226642   4.090   0.101  21.054 -0.1729  0.5292 -0.2853
  816TIP3    H126643   4.151   0.146  20.996  0.9787 -0.6004  0.0299
  816TIP3    H226644   4.124   0.012  21.062 -0.6949  0.4601  1.5591
  817TIP3   OH226645   4.581   1.140  17.904 -0.3482 -0.2593 -0.3570
  817TIP3    H126646   4.643   1.164  17.835  0.6468 -0.3420  0.4732
  817TIP3    H226647   4.561   1.222  17.949 -1.0099 -0.2023 -0.7391
  818TIP3   OH226648   0.476   0.315  18.058 -0.0314 -0.4096 -0.2148
  818TIP3    H126649   0.390   0.334  18.019 -0.0831 -0.8211 -0.3066
  818TIP3    H226650   0.506   0.236  18.012  0.1447 -0.5892  0.2046
  819TIP3   OH226651   4.777   4.484  19.938  0.0174  0.1059  0.1484
  819TIP3    H126652   4.774   4.464  19.844  3.0768 -1.7341  0.2825
  819TIP3    H226653   4.831   4.414  19.975 -0.0869  1.4406  3.1065
  820TIP3   OH226654   1.099   3.004  19.187  0.0628 -0.1328 -0.5983
  820TIP3    H126655   1.167   2.978  19.124 -0.4424  0.2514 -1.3118
  820TIP3    H226656   1.075   2.922  19.231 -0.1548 -0.5572 -1.4805
  821TIP3   OH226657   0.325   4.616  18.816  0.2484 -0.0768  0.2515
  821TIP3    H126658   0.282   4.695  18.851  1.4604  0.4218  0.6511
  821TIP3    H226659   0.412   4.646  18.789  0.7542 -1.3071  0.4809
  822TIP3   OH226660   4.894   4.339  19.379 -0.1356  0.0242 -0.2998
  822TIP3    H126661   4.894   4.261  19.434 -1.0298  0.4801  0.3661
  822TIP3    H226662   4.817   4.388  19.406 -0.1901  0.6177 -1.4614
  823TIP3   OH226663   2.941   1.384  20.741 -0.1827  0.0232  0.1776
  823TIP3    H126664   3.028   1.402  20.776  1.2791 -1.9786 -2.0947
  823TIP3    H226665   2.922   1.294  20.768 -0.9173 -0.0356 -0.4923
  824TIP3   OH226666   0.225   1.357  18.490  0.7030  0.1911  0.0578
  824TIP3    H126667   0.246   1.392  18.404  0.0772 -0.2923 -0.2989
  824TIP3    H226668   0.289   1.286  18.503  0.9332  0.4016  0.0928
  825TIP3   OH226669   3.058   3.251  18.625  1.0424  0.0755  0.5742
  825TIP3    H126670   3.041   3.325  18.683  3.1525  0.2461  1.0806
  825TIP3    H226671   2.978   3.240  18.575  0.3684  2.1507  1.1069
  826TIP3   OH226672   1.652   4.379  20.050 -0.3697 -0.5331 -0.1540
  826TIP3    H126673   1.592   4.443  20.088 -0.7701 -0.7704 -0.3846
  826TIP3    H226674   1.736   4.424  20.047 -0.4647 -0.3084  0.4660
  827TIP3   OH226675   1.683   3.729  19.444  0.4248 -0.6560  0.2552
  827TIP3    H126676   1.763   3.781  19.449  0.0472 -0.0383  0.1302
  827TIP3    H226677   1.612   3.794  19.450 -0.0619 -1.1557  0.0616
  828TIP3   OH226678   0.984   0.784  18.499  0.0561  0.0757  0.2587
  828TIP3    H126679   0.897   0.787  18.459  0.9215 -0.0338 -1.7949
  828TIP3    H226680   0.997   0.693  18.522  0.0573 -0.1327 -0.5302
  829TIP3   OH226681   6.388   3.906  19.429 -0.3332 -0.0454 -0.2733
  829TIP3    H126682   6.295   3.902  19.452 -0.5326  0.9573 -0.8366
  829TIP3    H226683   6.416   3.815  19.426 -1.1589 -0.3323  0.4625
  830TIP3   OH226684   5.207   1.647  19.596  0.5909 -0.2972 -0.3758
  830TIP3    H126685   5.294   1.627  19.562  0.9786 -0.0298  0.4130
  830TIP3    H226686   5.157   1.677  19.520  1.6756  1.0782 -0.5952
  831TIP3   OH226687   1.470   0.328  20.054  0.0981 -0.2247  0.5007
  831TIP3    H126688   1.525   0.367  20.122  0.2465 -1.9726  1.4174
  831TIP3    H226689   1.384   0.320  20.095 -0.3815  0.7289 -0.2841
  832TIP3   OH226690   1.150   5.113  18.868 -0.0905 -1.0665  0.1875
  832TIP3    H126691   1.137   5.020  18.886  2.8943 -1.4062  1.1592
  832TIP3    H226692   1.215   5.142  18.933  0.7268  1.1481 -1.4693
  833TIP3   OH226693   2.251   5.972  20.968 -0.5764 -0.0530  0.4318
  833TIP3    H126694   2.242   6.028  21.045  1.3843 -1.8379  2.0711
  833TIP3    H226695   2.267   6.032  20.896  2.8886  1.5949  2.3280
  834TIP3   OH226696   5.473   3.895  19.390  0.5272 -0.0356  0.0531
  834TIP3    H126697   5.386   3.915  19.423  0.8073  0.4978  0.4861
  834TIP3    H226698   5.462   3.885  19.295 -0.3815 -2.0781  0.3258
  835TIP3   OH226699   5.400   4.771  18.748  0.0001 -0.3504 -0.8869
  835TIP3    H126700   5.325   4.782  18.691  0.5156 -1.9999 -1.9632
  835TIP3    H226701   5.380   4.823  18.826 -1.3013  0.8991 -2.0051
  836TIP3   OH226702   2.272   5.005  18.139  0.1753 -0.3538  0.3255
  836TIP3    H126703   2.227   4.950  18.075  1.2172 -1.1771  0.2635
  836TIP3    H226704   2.260   4.959  18.222 -1.5723  0.9509  0.8569
  837TIP3   OH226705   0.423   5.955  18.331  0.2561 -0.1643  0.2902
  837TIP3    H126706   0.494   5.931  18.391  0.7061 -0.5103 -0.3614
  837TIP3    H226707   0.456   5.931  18.245 -0.8117 -0.6851  0.0061
  838TIP3   OH226708   1.223   1.089  18.913  0.2256  0.4228 -0.5734
  838TIP3    H126709   1.253   0.999  18.909 -1.6154 -0.3512  1.2027
  838TIP3    H226710   1.285   1.133  18.971 -0.3746 -0.4356  0.7704
  839TIP3   OH226711   5.565   4.247  20.087  0.5804 -0.1379  0.2855
  839TIP3    H126712   5.563   4.154  20.110  0.1872 -0.0416  0.6715
  839TIP3    H226713   5.640   4.256  20.028 -0.0979 -0.9121 -0.7239
  840TIP3   OH226714   2.931   4.046  20.473 -0.1963  0.2847  0.3282
  840TIP3    H126715   2.879   4.094  20.408  0.6852  1.4039  0.4125
  840TIP3    H226716   2.998   4.109  20.501  0.5678 -0.7845  0.9718
  841TIP3   OH226717   4.004   4.384  19.555 -0.2294 -0.0280 -0.6028
  841TIP3    H126718   3.962   4.298  19.544  0.7855 -0.3822 -1.9236
  841TIP3    H226719   4.066   4.390  19.482  1.3637  0.8665  0.7624
  842TIP3   OH226720   0.589   3.759  20.195 -0.4047  0.0098  0.0166
  842TIP3    H126721   0.531   3.832  20.215  0.2266  0.1304  1.5024
  842TIP3    H226722   0.646   3.751  20.271  0.7939 -0.8305 -0.9180
  843TIP3   OH226723   6.639   0.999  20.812  0.1284 -0.6988 -0.7531
  843TIP3    H126724   6.636   1.032  20.722 -0.0791 -1.4856 -1.0421
  843TIP3    H226725   6.583   0.922  20.811 -2.0350  0.7543  0.6836
  844TIP3   OH226726   0.226   1.172  19.887 -0.0046 -0.1232  0.2064
  844TIP3    H126727   0.223   1.104  19.819  1.3831  1.0775 -1.1460
  844TIP3    H226728   0.145   1.160  19.937 -1.2105 -0.9252 -1.8016
  845TIP3   OH226729   3.599   3.159  18.692 -0.7805  0.7527  0.1553
  845TIP3    H126730   3.676   3.103  18.697 -0.8516  0.5784 -0.5246
  845TIP3    H226731   3.525   3.100  18.708 -0.7292  1.1706  2.2431
  846TIP3   OH226732   5.286   1.089  19.393 -0.2772  0.6391 -1.0071
  846TIP3    H126733   5.225   1.118  19.325 -0.7963  0.8735 -0.4610
  846TIP3    H226734   5.242   1.113  19.475 -0.2631 -0.7749 -0.5577
  847TIP3   OH226735   4.054   3.101  20.827 -0.5937  0.3447 -0.0674
  847TIP3    H126736   4.034   3.070  20.739 -1.9302 -2.0071  0.9803
  847TIP3    H226737   4.135   3.151  20.817  0.3265 -1.4355 -2.3236
  848TIP3   OH226738   0.585   6.014  19.267  0.2361 -0.3049 -0.7248
  848TIP3    H126739   0.537   6.023  19.350 -0.3333 -3.5574 -0.5917
  848TIP3    H226740   0.674   6.040  19.289 -0.5268  1.9447  0.0346
  849TIP3   OH226741   3.783   1.934  20.712 -0.2750  0.2638  0.6142
  849TIP3    H126742   3.756   1.934  20.620 -0.4259 -1.2253  0.6430
  849TIP3    H226743   3.749   2.017  20.746 -0.7233  0.5682 -0.5228
  850TIP3   OH226744   6.242   1.798  21.025 -0.4182  0.4596  0.1004
  850TIP3    H126745   6.317   1.747  20.997 -0.9300 -0.0237 -0.4361
  850TIP3    H226746   6.260   1.887  20.993 -2.0798 -0.5184 -4.1985
  851TIP3   OH226747   5.190   1.290  21.034 -0.4276  0.0836  0.0750
  851TIP3    H126748   5.260   1.322  21.092 -1.6954  1.5581  0.8762
  851TIP3    H226749   5.231   1.285  20.948  0.9060  0.0310  0.6831
  852TIP3   OH226750   2.050   0.193  20.391 -0.2637 -0.3358 -0.2106
  852TIP3    H126751   2.107   0.128  20.432 -0.3870 -0.3698 -0.0907
  852TIP3    H226752   1.964   0.150  20.387 -0.1656 -0.4857 -0.8670
  853TIP3   OH226753   6.334   6.209  19.141 -0.0733  0.0488 -0.2132
  853TIP3    H126754   6.407   6.184  19.198  0.6991  1.8110 -0.3777
  853TIP3    H226755   6.362   6.182  19.054 -0.7120 -1.4873  0.0117
  854TIP3   OH226756   5.372   3.185  20.793  0.4141 -0.1434 -0.2496
  854TIP3    H126757   5.447   3.240  20.772  1.5166 -2.1190 -1.8286
  854TIP3    H226758   5.410   3.104  20.827 -1.1411 -0.1270  1.7315
  855TIP3   OH226759   1.555   0.748  20.319  0.0183 -0.7848 -0.6061
  855TIP3    H126760   1.587   0.829  20.360 -1.9518  0.4539 -1.3808
  855TIP3    H226761   1.494   0.713  20.383 -2.9726  1.0872 -2.1992
  856TIP3   OH226762   6.332   0.737  21.055 -0.2586  0.1907 -0.1907
  856TIP3    H126763   6.254   0.780  21.019 -0.6762  0.3943  0.9005
  856TIP3    H226764   6.310   0.722  21.147  0.9622  0.1480  0.1100
  857TIP3   OH226765   1.661   0.553  18.841 -0.4593  0.2130 -0.6728
  857TIP3    H126766   1.596   0.557  18.911 -0.8846 -0.9171 -0.9839
  857TIP3    H226767   1.618   0.593  18.766 -1.3406 -1.6932 -1.2531
  858TIP3   OH226768   5.180   4.520  18.643  0.2305  0.4738 -0.1372
  858TIP3    H126769   5.150   4.610  18.659 -0.7278  0.3032 -0.8190
  858TIP3    H226770   5.119   4.487  18.576  1.1437 -0.3733 -0.5714
  859TIP3   OH226771   5.958   4.507  18.608  0.4339  0.0378  0.0774
  859TIP3    H126772   5.906   4.435  18.573 -0.4573 -0.5305  2.3329
  859TIP3    H226773   6.042   4.468  18.632 -0.0890 -0.3435  1.4042
  860TIP3   OH226774   2.219   2.208  19.471 -0.7452 -0.1403 -0.3697
  860TIP3    H126775   2.248   2.184  19.383  2.0963  3.1916 -0.5981
  860TIP3    H226776   2.178   2.294  19.460  2.0473  1.6421  1.6782
  861TIP3   OH226777   3.062   5.458  20.600 -0.3838  0.3292 -0.2193
  861TIP3    H126778   3.105   5.500  20.526 -0.2976  1.0060  0.2106
  861TIP3    H226779   3.084   5.512  20.676 -0.7177 -0.1838  0.2565
  862TIP3   OH226780   2.573   4.411  19.206  0.4693 -0.1565 -0.0620
  862TIP3    H126781   2.620   4.482  19.161  1.6146  0.5183  2.0730
  862TIP3    H226782   2.484   4.444  19.216  0.5248  0.2036 -0.6935
  863TIP3   OH226783   2.866   2.391  17.060 -0.1222  0.2718 -0.0249
  863TIP3    H126784   2.905   2.395  16.972 -1.9967 -0.1498 -0.9195
  863TIP3    H226785   2.850   2.298  17.074 -0.7318  0.4354  0.3647
  864TIP3   OH226786   1.512   4.568  20.186 -0.0931  0.2499 -0.1899
  864TIP3    H126787   1.444   4.501  20.185 -0.6438  0.8075 -0.2539
  864TIP3    H226788   1.513   4.600  20.276 -1.0301  1.3612 -0.5566
  865TIP3   OH226789   1.422   6.492  19.005 -0.0534  0.2710 -0.3655
  865TIP3    H126790   1.494   6.466  18.948  0.4960  0.3725  0.2744
  865TIP3    H226791   1.406   6.415  19.060  0.5901  0.7760  0.5326
  866TIP3   OH226792   3.508   1.790  20.075 -0.2873 -0.1740  0.4115
  866TIP3    H126793   3.544   1.878  20.073 -1.0091  0.1152 -1.8773
  866TIP3    H226794   3.437   1.791  20.012 -0.7202 -2.2378  0.7894
  867TIP3   OH226795   6.291   0.452  18.204  0.1198  0.5109 -0.0845
  867TIP3    H126796   6.345   0.398  18.145 -0.8680 -1.0012  0.3399
  867TIP3    H226797   6.351   0.479  18.274  0.5677 -0.3220 -0.1379
  868TIP3   OH226798   3.889   0.077  19.009 -0.0291  0.2089 -0.1952
  868TIP3    H126799   3.872   0.136  18.936 -0.1888 -0.0924 -0.4040
  868TIP3    H226800   3.835   0.000  18.991 -0.1446  0.1732  0.2924
  869TIP3   OH226801   1.080   4.319  18.787  0.0622  0.3588  0.3812
  869TIP3    H126802   0.992   4.300  18.755  0.0963  0.9237 -0.0688
  869TIP3    H226803   1.098   4.250  18.851  0.2497 -1.1813 -1.2727
  870TIP3   OH226804   2.670   1.387  18.587  0.3346  0.1674 -0.1204
  870TIP3    H126805   2.668   1.304  18.635  1.1867 -0.0746 -0.4809
  870TIP3    H226806   2.588   1.389  18.538  0.7535 -0.9595 -0.9034
  871TIP3   OH226807   0.892   2.912  19.913  0.5422 -0.1980  0.0811
  871TIP3    H126808   0.882   2.826  19.954  0.7459 -0.1115  0.3119
  871TIP3    H226809   0.819   2.964  19.948  0.2788 -0.3445 -0.2423
  872TIP3   OH226810   4.430   4.161  18.274 -0.2414  0.4612  0.4135
  872TIP3    H126811   4.404   4.200  18.191 -0.4673 -2.0762 -0.7950
  872TIP3    H226812   4.524   4.146  18.265 -0.3650 -0.3382  0.3603
  873TIP3   OH226813   3.941   5.162  18.151 -0.5034  0.2371 -0.0341
  873TIP3    H126814   3.899   5.086  18.193 -2.2305  1.1140 -0.0900
  873TIP3    H226815   4.027   5.130  18.125 -0.8997 -1.4875  0.6243
  874TIP3   OH226816   5.192   1.166  18.488 -0.0987  0.3995  0.4853
  874TIP3    H126817   5.286   1.171  18.471 -0.1875 -0.0745 -0.1620
  874TIP3    H226818   5.175   1.237  18.550  0.6636  0.5644  0.5070
  875TIP3   OH226819   2.306   3.841  19.219 -0.3834  0.3345 -0.6147
  875TIP3    H126820   2.250   3.912  19.248  1.2984  1.1461  0.8459
  875TIP3    H226821   2.253   3.792  19.156 -3.3601 -0.0099  1.9266
  876TIP3   OH226822   1.617   4.200  20.229  0.2254  0.2434 -0.0630
  876TIP3    H126823   1.642   4.129  20.170 -0.2427  1.2875 -1.6065
  876TIP3    H226824   1.603   4.275  20.171  0.5378  1.5610  1.4836
  877TIP3   OH226825   1.769   2.424  20.059  0.1987  0.0924 -0.3582
  877TIP3    H126826   1.773   2.356  20.126 -0.4864  0.7545  0.3724
  877TIP3    H226827   1.783   2.378  19.976  1.7022 -0.6466  0.2797
  878TIP3   OH226828   4.693   0.724  18.021  0.3233  0.2627  0.4958
  878TIP3    H126829   4.715   0.811  17.987 -0.4611  0.8878  1.5306
  878TIP3    H226830   4.776   0.677  18.020  0.5805  0.6828 -0.9988
  879TIP3   OH226831   3.811   4.256  18.295  0.2247 -0.0738 -0.2522
  879TIP3    H126832   3.838   4.276  18.205  1.7263 -1.2106 -0.0973
  879TIP3    H226833   3.784   4.164  18.293 -3.1218  0.7926 -0.2189
  880TIP3   OH226834   1.908   2.524  19.747  0.0812 -0.0145  0.0319
  880TIP3    H126835   1.998   2.531  19.715  0.8225 -0.0428  1.9868
  880TIP3    H226836   1.873   2.448  19.701  0.8319  0.3725 -1.2274
  881TIP3   OH226837   6.189   3.600  18.602 -0.0877  0.7374  0.2746
  881TIP3    H126838   6.231   3.539  18.663 -0.2164  0.4696  0.0942
  881TIP3    H226839   6.228   3.685  18.623 -0.1306  0.6468  0.7320
  882TIP3   OH226840   0.168   1.654  20.155 -0.0478  0.2762 -0.5168
  882TIP3    H126841   0.136   1.668  20.244 -1.8994 -2.2595 -0.6438
  882TIP3    H226842   0.263   1.646  20.164  0.3013  3.9048  0.5540
  883TIP3   OH226843   6.259   3.878  18.668 -0.3223  0.4324  0.1471
  883TIP3    H126844   6.201   3.953  18.681  0.9699  1.6723 -0.9299
  883TIP3    H226845   6.291   3.888  18.578  0.2404 -1.1564  0.1497
  884TIP3   OH226846   0.614   1.212  19.478 -0.3414  0.2221 -0.6890
  884TIP3    H126847   0.575   1.212  19.565 -2.3098 -1.1194 -1.5104
  884TIP3    H226848   0.667   1.292  19.476  0.4984 -0.1468  1.9961
  885TIP3   OH226849   2.960   2.437  17.961  0.0677  0.1354 -0.3059
  885TIP3    H126850   3.016   2.398  17.895 -0.7923  1.1856 -1.7001
  885TIP3    H226851   2.958   2.530  17.941 -0.3691  0.4643  1.0911
  886TIP3   OH226852   5.423   0.688  18.120  0.0941 -0.3940 -0.3531
  886TIP3    H126853   5.483   0.744  18.071 -0.9332  1.4636  0.4298
  886TIP3    H226854   5.337   0.728  18.108 -0.3890 -0.6986  1.7458
  887TIP3   OH226855   0.129   4.459  21.274  0.4262  0.3113 -0.3203
  887TIP3    H126856   0.049   4.437  21.321  0.4366  1.4358  0.2636
  887TIP3    H226857   0.104   4.531  21.216  0.5974 -0.5404 -1.4875
  888TIP3   OH226858   3.531   3.196  20.462 -0.0054  0.2172 -0.5591
  888TIP3    H126859   3.514   3.250  20.384 -3.2286  0.6682  0.3024
  888TIP3    H226860   3.558   3.259  20.528 -0.4144  0.3181 -0.4817
  889TIP3   OH226861   2.934   0.352  18.776 -0.6443 -0.1048  0.4095
  889TIP3    H126862   2.995   0.392  18.839 -1.3902  1.8564 -0.0164
  889TIP3    H226863   2.908   0.270  18.817  0.8710 -0.1145  1.4453
  890TIP3   OH226864   3.097   6.581  21.171 -0.4389  0.1641  0.1305
  890TIP3    H126865   3.167   6.528  21.207  0.5196 -0.0514 -1.9129
  890TIP3    H226866   3.017   6.531  21.188  0.0635 -0.3161  1.1479
  891TIP3   OH226867   2.327   6.615  19.454  0.9348 -0.4604 -0.0382
  891TIP3    H126868   2.252   6.669  19.427  0.9172  0.3477  1.5430
  891TIP3    H226869   2.321   6.537  19.399 -0.4558  0.0679 -0.6766
  892TIP3   OH226870   5.165   2.962  20.668  0.7822  0.2634 -0.4996
  892TIP3    H126871   5.080   2.978  20.710  0.7267 -1.0874 -0.0476
  892TIP3    H226872   5.194   3.049  20.639  0.1326  1.0350  1.0175
  893TIP3   OH226873   2.512   2.540  20.708 -0.1862  0.1228  0.1235
  893TIP3    H126874   2.496   2.487  20.786  1.0293 -1.2094 -0.4709
  893TIP3    H226875   2.471   2.625  20.727 -2.2744 -1.0360  1.0775
  894TIP3   OH226876   1.861   1.862  18.080  0.0192 -0.5147 -0.3657
  894TIP3    H126877   1.953   1.839  18.093  0.0457 -0.2669 -0.0986
  894TIP3    H226878   1.861   1.916  18.001  0.3137  0.7236  0.4465
  895TIP3   OH226879   1.436   5.242  19.912  0.3083  0.5634  0.0650
  895TIP3    H126880   1.476   5.314  19.961  0.6297 -0.5868  1.6044
  895TIP3    H226881   1.343   5.246  19.934  0.3506  0.4282  0.2733
  896TIP3   OH226882   1.574   6.018  20.408 -0.4390  0.3170  0.1932
  896TIP3    H126883   1.646   6.063  20.452 -1.2564  1.9016 -0.0379
  896TIP3    H226884   1.538   5.959  20.474  1.2466 -0.7677  0.2127
  897TIP3   OH226885   0.820   5.579  19.896  0.1423  0.5747  0.7462
  897TIP3    H126886   0.907   5.613  19.913 -0.0403  0.7360  1.3872
  897TIP3    H226887   0.822   5.550  19.805  0.6507  1.2167  0.5539
  898TIP3   OH226888   2.467   0.142  19.993 -0.2776 -0.4086 -0.3519
  898TIP3    H126889   2.445   0.232  19.969 -0.9813 -0.2397  0.8484
  898TIP3    H226890   2.450   0.137  20.087 -0.8417 -1.9754 -0.5043
  899TIP3   OH226891   0.468   2.332  19.291  0.8873  0.2793 -0.0077
  899TIP3    H126892   0.490   2.253  19.242  1.9265  0.8370 -0.4584
  899TIP3    H226893   0.537   2.339  19.357 -1.3036 -1.3245  2.6517
  900TIP3   OH226894   4.337   4.591  18.656 -0.2140  0.4612  0.3304
  900TIP3    H126895   4.253   4.584  18.702  0.8117  2.0883  2.6579
  900TIP3    H226896   4.328   4.670  18.603  0.4683  1.9291  2.2592
  901TIP3   OH226897   4.505   1.718  17.977  0.5924 -0.2297  0.4517
  901TIP3    H126898   4.557   1.701  17.899 -1.4734  0.5777 -1.1984
  901TIP3    H226899   4.445   1.644  17.983 -1.2424  1.0990 -0.5237
  902TIP3   OH226900   5.729   6.066  20.769  0.7626  0.0420 -0.0729
  902TIP3    H126901   5.638   6.093  20.759  1.1964  1.6071 -0.1435
  902TIP3    H226902   5.725   5.973  20.791 -0.8086 -0.1151 -0.8874
  903TIP3   OH226903   5.519   5.806  17.330 -0.3554  0.1094 -0.2753
  903TIP3    H126904   5.542   5.786  17.239 -0.1010  0.4362 -0.2854
  903TIP3    H226905   5.505   5.901  17.330 -1.3936 -0.0351 -0.1960
  904TIP3   OH226906   6.502   2.169  21.096 -0.3319  0.7624 -0.7098
  904TIP3    H126907   6.535   2.121  21.019 -0.5205 -0.6705  0.0785
  904TIP3    H226908   6.581   2.198  21.141  0.2691 -4.2617  2.1995
  905TIP3   OH226909   4.276   4.216  20.007  0.2037  0.2127 -0.1748
  905TIP3    H126910   4.213   4.210  20.079 -1.6845  0.6723 -1.7071
  905TIP3    H226911   4.362   4.209  20.050 -0.8573 -2.4703  1.8009
  906TIP3   OH226912   6.176   6.670  19.640  0.1676 -0.5066  0.0610
  906TIP3    H126913   6.155   6.579  19.656 -2.2563  0.0355  0.3715
  906TIP3    H226914   6.195   6.707  19.726 -0.0220 -0.4549  0.0802
  907TIP3   OH226915   6.317   1.805  19.988 -0.1714 -0.5781  0.0682
  907TIP3    H126916   6.389   1.744  20.001  1.6803  1.4092 -0.1790
  907TIP3    H226917   6.266   1.799  20.069 -0.9827 -3.4988 -0.5717
  908TIP3   OH226918   4.553   4.458  17.665  0.0038 -0.4551  0.1449
  908TIP3    H126919   4.488   4.517  17.628 -0.5357 -0.9514  0.2797
  908TIP3    H226920   4.625   4.458  17.602 -0.5303 -0.6219 -0.4677
  909TIP3   OH226921   5.585   3.111  21.231  0.1857 -0.1912  0.3814
  909TIP3    H126922   5.498   3.138  21.204 -1.1614 -2.6003  1.9300
  909TIP3    H226923   5.600   3.154  21.315  0.4576  0.1264  0.1739
  910TIP3   OH226924   4.961   1.762  18.994  0.0207  0.1539 -0.4302
  910TIP3    H126925   4.920   1.703  19.058 -0.7370 -0.6824 -1.6263
  910TIP3    H226926   4.966   1.846  19.039  1.1825 -0.8120  1.3526
  911TIP3   OH226927   4.547   2.076  18.294 -0.6561  0.2412 -0.1836
  911TIP3    H126928   4.538   2.154  18.238  1.5999 -0.4352 -1.6154
  911TIP3    H226929   4.602   2.016  18.243 -0.8725 -1.5952  1.6241
  912TIP3   OH226930   5.015   2.125  17.971  0.5165  0.3242  0.2255
  912TIP3    H126931   5.037   2.150  18.061  0.2984  0.1991  0.3147
  912TIP3    H226932   5.078   2.056  17.949  2.6689  2.4935 -0.8417
  913TIP3   OH226933   3.060   6.087  18.821  0.2015  0.1501 -0.2073
  913TIP3    H126934   3.113   6.166  18.826  1.1195 -0.4283 -0.4634
  913TIP3    H226935   2.993   6.106  18.756 -0.3801  1.1618  0.6581
  914TIP3   OH226936   3.092   5.613  20.840 -0.6419 -0.6021 -0.0453
  914TIP3    H126937   3.170   5.669  20.836 -1.4740  0.5167 -1.5008
  914TIP3    H226938   3.042   5.647  20.915 -1.0155  0.4802 -0.7602
  915TIP3   OH226939   0.774   0.030  19.629 -0.5880 -0.3887  0.0616
  915TIP3    H126940   0.719  -0.006  19.559  0.1193 -2.7832  0.6269
  915TIP3    H226941   0.720   0.022  19.707 -1.2543  1.9792 -0.0735
  916TIP3   OH226942   3.481   4.848  21.038  0.2813 -0.1828 -0.0215
  916TIP3    H126943   3.564   4.802  21.052 -0.2828 -1.0206  0.6395
  916TIP3    H226944   3.429   4.829  21.117 -1.2850 -1.2863 -1.2606
  917TIP3   OH226945   1.572   6.603  20.118  0.5311  0.4891  0.5534
  917TIP3    H126946   1.527   6.590  20.202 -0.5182  0.1982 -0.0312
  917TIP3    H226947   1.565   6.519  20.073 -0.6840  1.1792 -0.6268
  918TIP3   OH226948   0.126   2.488  19.754 -0.4544 -0.2884  0.5064
  918TIP3    H126949   0.134   2.479  19.659  1.1661  0.6477  0.5293
  918TIP3    H226950   0.138   2.399  19.787 -2.1763 -0.8278 -0.1814
  919TIP3   OH226951   1.336   4.424  20.795  0.2003  0.2170 -0.1439
  919TIP3    H126952   1.420   4.434  20.841 -0.5635  0.4378  1.2471
  919TIP3    H226953   1.305   4.337  20.821 -0.0986  0.2049 -0.5307
  920TIP3   OH226954   3.645   0.582  18.771  0.2627 -0.0266  0.5354
  920TIP3    H126955   3.729   0.569  18.728  0.3890  0.8213  0.4933
  920TIP3    H226956   3.632   0.503  18.823  0.7167 -0.5015 -0.0576
  921TIP3   OH226957   4.076   4.161  19.041 -0.1453 -0.5637  0.2537
  921TIP3    H126958   4.015   4.234  19.027 -0.6785 -1.0357  0.0661
  921TIP3    H226959   4.140   4.169  18.970 -1.0168 -1.0953 -0.6070
  922TIP3   OH226960   5.203   6.462  19.339 -0.4513  0.1222 -0.0516
  922TIP3    H126961   5.212   6.544  19.386  1.7181 -0.4900  0.6951
  922TIP3    H226962   5.216   6.394  19.405  2.3763 -0.7600 -1.3816
  923TIP3   OH226963   2.450   2.844  19.730  0.3922 -0.1493 -0.3307
  923TIP3    H126964   2.533   2.879  19.699  0.8398 -0.7636  0.1685
  923TIP3    H226965   2.452   2.857  19.824 -0.3103  0.3200 -0.3742
  924TIP3   OH226966   4.919   2.089  21.036 -0.6214  0.0364 -0.4156
  924TIP3    H126967   4.958   2.157  21.090 -0.1586  0.0812 -0.8007
  924TIP3    H226968   4.960   2.008  21.066 -1.0502 -0.0583 -0.0699
  925TIP3   OH226969   2.162   5.438  19.631  0.4019  0.5326 -0.1035
  925TIP3    H126970   2.123   5.431  19.543 -1.1973 -2.5817  0.6963
  925TIP3    H226971   2.086   5.445  19.689  1.2344 -0.8755  1.2149
  926TIP3   OH226972   2.091   6.108  19.991  0.5003 -0.1931  0.7959
  926TIP3    H126973   2.038   6.150  19.923  0.8763  0.3649  0.8420
  926TIP3    H226974   2.151   6.052  19.943 -1.6567 -2.7119  0.8159
  927TIP3   OH226975   4.744   2.124  18.571 -0.6347 -0.3201 -0.0620
  927TIP3    H126976   4.800   2.167  18.637  0.4924 -2.8377  0.7527
  927TIP3    H226977   4.655   2.147  18.597 -0.1163  2.3927 -0.3726
  928TIP3   OH226978   2.188   3.756  19.905  0.1370 -0.1423  0.1261
  928TIP3    H126979   2.224   3.769  19.993  0.4180 -1.4672  0.2333
  928TIP3    H226980   2.162   3.843  19.876  0.4490  0.3741  1.3492
  929TIP3   OH226981   1.820   0.271  19.152 -0.0393  0.5218 -0.4407
  929TIP3    H126982   1.828   0.303  19.062  0.3636  0.9528 -0.2569
  929TIP3    H226983   1.864   0.338  19.205  1.2345 -0.5632 -0.0856
  930TIP3   OH226984   1.914   4.946  20.692 -0.4577  0.2451 -0.0107
  930TIP3    H126985   1.857   4.894  20.635  0.7179 -1.3322  0.2029
  930TIP3    H226986   1.855   4.984  20.757 -1.3281 -0.9544 -0.0712
  931TIP3   OH226987   0.593   0.549  19.563 -0.4305 -0.3624 -0.6337
  931TIP3    H126988   0.662   0.616  19.560 -0.8786  0.4177  2.5746
  931TIP3    H226989   0.631   0.477  19.613 -1.8811  0.1056  1.2448
  932TIP3   OH226990   5.815   4.045  20.938 -0.3818  0.1781 -0.5087
  932TIP3    H126991   5.758   4.003  21.003  1.3376  0.4631  1.3034
  932TIP3    H226992   5.756   4.092  20.881 -2.1336 -1.8510 -0.4888
  933TIP3   OH226993   0.583   5.811  17.928  0.0767  0.7928  0.5839
  933TIP3    H126994   0.652   5.832  17.992  0.7636  1.9934 -0.4867
  933TIP3    H226995   0.503   5.806  17.980  0.7495  0.8173  1.6636
  934TIP3   OH226996   5.767   1.011  20.333 -0.1174 -0.4653  0.1812
  934TIP3    H126997   5.774   0.977  20.423 -1.0914 -1.8149 -0.2217
  934TIP3    H226998   5.714   0.946  20.287 -0.4809  0.7178 -1.1294
  935TIP3   OH226999   5.023   4.182  19.581 -0.1189 -0.0066 -0.0282
  935TIP3    H127000   4.989   4.249  19.640 -0.5663 -0.7451  0.5733
  935TIP3    H227001   4.972   4.104  19.602  0.6918 -0.6541 -0.4171
  936TIP3   OH227002   1.718   5.485  21.151 -0.0152  0.3960 -0.4031
  936TIP3    H127003   1.778   5.531  21.093  0.2699  0.6602  0.0912
  936TIP3    H227004   1.631   5.512  21.122  0.1212  0.4694 -0.7508
  937TIP3   OH227005   1.276   1.211  19.498 -0.2676 -0.3055  0.2749
  937TIP3    H127006   1.296   1.200  19.405  0.4688 -0.1955  0.4215
  937TIP3    H227007   1.213   1.283  19.500 -1.4858 -1.3203 -0.2656
  938TIP3   OH227008   5.243   4.731  17.824 -0.0810  0.2358 -0.1955
  938TIP3    H127009   5.217   4.750  17.734 -1.8798  0.4577  0.3348
  938TIP3    H227010   5.287   4.811  17.853 -0.4642  0.5711 -0.5270
  939TIP3   OH227011   0.636   2.546  19.179 -0.0701 -0.2340  0.1135
  939TIP3    H127012   0.704   2.485  19.206 -1.9643 -2.3578  0.3313
  939TIP3    H227013   0.572   2.493  19.132 -2.6873  1.1751  1.8162
  940TIP3   OH227014   5.476   3.582  18.237  0.4258 -0.9283 -0.3909
  940TIP3    H127015   5.442   3.512  18.294  2.0770 -3.2911 -2.1193
  940TIP3    H227016   5.448   3.557  18.149  1.1665  0.5629 -1.0900
  941TIP3   OH227017   1.340   0.494  18.009  0.0464 -0.1297  0.3105
  941TIP3    H127018   1.356   0.532  17.923 -0.0527 -0.9334 -0.0716
  941TIP3    H227019   1.425   0.497  18.053  0.7720 -2.1743 -0.8233
  942TIP3   OH227020   0.408   4.911  19.002 -0.9506 -0.1153 -0.4327
  942TIP3    H127021   0.318   4.883  19.018 -0.9457  0.1425  0.0480
  942TIP3    H227022   0.462   4.841  19.038 -0.9530 -0.1024 -0.4040
  943TIP3   OH227023   5.360   5.658  19.272  0.0280 -0.3389  0.4571
  943TIP3    H127024   5.453   5.645  19.253 -0.5855 -1.7939 -2.0799
  943TIP3    H227025   5.316   5.591  19.219 -2.6013  2.0937 -0.6563
  944TIP3   OH227026   5.315   6.274  20.890 -0.2209  0.1632 -0.0737
  944TIP3    H127027   5.353   6.340  20.948 -0.3521  0.4963 -0.3667
  944TIP3    H227028   5.249   6.230  20.944 -0.0804  0.2157  0.1458
  945TIP3   OH227029   1.431   2.678  18.317 -0.4414  0.1377 -0.2405
  945TIP3    H127030   1.485   2.752  18.344 -0.8195  0.4056 -0.2170
  945TIP3    H227031   1.494   2.608  18.297 -0.0084  0.8384 -1.4350
  946TIP3   OH227032   5.442   2.094  20.533  0.0665  0.5067  0.3122
  946TIP3    H127033   5.521   2.111  20.483 -1.2829  2.7453 -1.2253
  946TIP3    H227034   5.401   2.020  20.489  0.0340  1.0111 -0.5245
  947TIP3   OH227035   0.037   2.144  20.102 -0.7273 -0.4323  0.0316
  947TIP3    H127036   0.020   2.102  20.186 -0.1285 -0.3151  0.2177
  947TIP3    H227037   0.125   2.115  20.078 -0.6125  0.1001 -0.2105
  948TIP3   OH227038   0.199   0.192  18.215  0.1270 -0.5058  0.1708
  948TIP3    H127039   0.197   0.255  18.287  2.3763 -0.6090  0.3832
  948TIP3    H227040   0.126   0.218  18.159 -0.8404  0.4190  1.7663
  949TIP3   OH227041   0.589   4.737  18.809  0.5723  0.0957  0.0167
  949TIP3    H127042   0.615   4.711  18.721  1.7382 -2.0431  0.9174
  949TIP3    H227043   0.659   4.797  18.838  0.4538  0.3950 -0.3104
  950TIP3   OH227044   4.403   2.700  19.811  0.1251  0.2283  0.4888
  950TIP3    H127045   4.405   2.795  19.824 -0.3517  0.1802  0.9947
  950TIP3    H227046   4.322   2.684  19.763  0.4313  0.1206  0.0129
  951TIP3   OH227047   2.917   6.314  20.313 -0.1918 -0.5680 -0.0215
  951TIP3    H127048   3.011   6.333  20.309 -0.6694  2.1504 -0.9370
  951TIP3    H227049   2.905   6.266  20.395  1.8224  0.1565  0.7597
  952TIP3   OH227050   5.414   5.044  18.920  0.2531  0.5137 -0.2282
  952TIP3    H127051   5.392   5.127  18.963 -0.5762 -0.2567  0.8916
  952TIP3    H227052   5.344   4.985  18.945  1.2702 -0.7627 -0.3117
  953TIP3   OH227053   1.291   2.011  18.361 -0.0666 -0.1972  0.2686
  953TIP3    H127054   1.260   1.986  18.274  1.2884  0.3653 -0.4062
  953TIP3    H227055   1.220   1.986  18.420 -1.0661 -0.4722 -1.0066
  954TIP3   OH227056   6.282   4.713  19.938  0.5282 -0.3694  0.0545
  954TIP3    H127057   6.304   4.664  19.858 -0.3070 -0.3166 -0.2214
  954TIP3    H227058   6.318   4.660  20.009  3.1563  0.6332 -0.4327
  955TIP3   OH227059   1.589   5.892  18.773 -0.3789  0.6766  0.3673
  955TIP3    H127060   1.656   5.920  18.711 -1.4815 -1.5811 -2.0256
  955TIP3    H227061   1.512   5.943  18.750 -0.7637 -0.0944 -0.1108
  956TIP3   OH227062   3.715   6.041  19.695  0.1473  0.6543 -0.3247
  956TIP3    H127063   3.775   6.114  19.711 -1.3121  1.8036  0.0122
  956TIP3    H227064   3.644   6.053  19.757  0.3561 -1.6596  0.4723
  957TIP3   OH227065   2.053   5.962  18.427 -0.1634  0.3945 -0.4915
  957TIP3    H127066   2.003   6.044  18.431 -0.6937  0.0742 -0.4355
  957TIP3    H227067   2.040   5.930  18.338  0.0215  0.3574 -0.5057
  958TIP3   OH227068   1.892   6.143  18.715 -0.1821 -0.1515 -0.2119
  958TIP3    H127069   1.948   6.196  18.658  0.6515 -1.7102 -0.9021
  958TIP3    H227070   1.937   6.145  18.800  1.2238 -1.7480 -0.8709
  959TIP3   OH227071   0.006   1.189  20.039 -0.0397 -0.4300 -0.7474
  959TIP3    H127072   0.008   1.284  20.027 -0.2854 -0.0666  1.5380
  959TIP3    H227073  -0.087   1.169  20.055  0.1960 -0.8002  0.2579
  960TIP3   OH227074   6.102   3.322  20.856 -0.3612  0.4613 -0.0864
  960TIP3    H127075   6.193   3.333  20.883 -0.5375 -1.1478  1.2915
  960TIP3    H227076   6.107   3.301  20.763  0.4573  3.1141 -0.7180
  961TIP3   OH227077   0.120   0.935  17.971 -0.3429 -0.0980  0.1906
  961TIP3    H127078   0.096   0.843  17.967  0.1782 -0.1832 -1.6674
  961TIP3    H227079   0.040   0.979  18.001 -1.0028 -1.0008 -0.1981
  962TIP3   OH227080   6.409   1.500  19.453 -0.2512 -0.3356  0.3418
  962TIP3    H127081   6.413   1.540  19.540 -0.8595  1.1839 -0.2897
  962TIP3    H227082   6.391   1.573  19.394  0.3576 -1.3060 -1.0988
  963TIP3   OH227083   0.674   5.729  20.906 -0.2252  0.3343  0.2626
  963TIP3    H127084   0.594   5.747  20.954 -0.4792  1.7363 -0.6251
  963TIP3    H227085   0.744   5.741  20.971 -0.5684  2.0854  0.3712
  964TIP3   OH227086   5.407   1.080  18.729 -0.5258  0.1245 -0.0713
  964TIP3    H127087   5.463   1.027  18.672  0.4678  0.0844  0.9030
  964TIP3    H227088   5.374   1.019  18.795 -1.6742  0.1683 -0.5858
  965TIP3   OH227089   1.566   1.040  17.697 -0.2424 -0.4427 -0.0591
  965TIP3    H127090   1.561   1.116  17.639  1.7916  0.6124  1.0591
  965TIP3    H227091   1.565   0.964  17.638 -1.3838  0.4562 -1.2429
  966TIP3   OH227092   1.617   0.350  20.317 -0.4662 -0.4306  0.0547
  966TIP3    H127093   1.620   0.259  20.287 -0.2192  0.4765 -3.0138
  966TIP3    H227094   1.709   0.374  20.329 -0.5694 -0.8377  1.8964
  967TIP3   OH227095   2.533   0.094  18.837  0.4027 -0.0219 -0.1011
  967TIP3    H127096   2.585   0.028  18.791 -0.0694 -0.0784 -0.5693
  967TIP3    H227097   2.455   0.104  18.782 -0.3182 -0.3147  0.8499
  968TIP3   OH227098   0.524   0.104  20.495 -0.1512  0.2366 -0.0938
  968TIP3    H127099   0.543   0.138  20.582 -0.6703  4.0425 -1.3036
  968TIP3    H227100   0.455   0.162  20.461 -0.1131 -1.2340 -2.9817
  969TIP3   OH227101   4.125   5.861  20.425  0.2482  0.4274  0.3471
  969TIP3    H127102   4.161   5.947  20.402 -0.0814  0.6529  0.6518
  969TIP3    H227103   4.101   5.822  20.340  0.4673  0.6027  0.2024
  970TIP3   OH227104   5.312   4.422  18.916 -0.3495 -0.3314 -0.4107
  970TIP3    H127105   5.266   4.482  18.975  0.7180 -0.9868  1.1431
  970TIP3    H227106   5.305   4.463  18.829 -2.7407  0.1902 -0.0156
  971TIP3   OH227107   1.086   5.342  17.814  0.0750 -0.1539  0.0673
  971TIP3    H127108   1.055   5.288  17.886 -0.2727  0.3653  0.3084
  971TIP3    H227109   1.007   5.381  17.777  0.3719  0.5758  0.1993
  972TIP3   OH227110   2.516   0.513  19.253 -0.2020 -0.7104  0.2328
  972TIP3    H127111   2.549   0.596  19.218 -0.3320 -0.2731  1.1268
  972TIP3    H227112   2.568   0.498  19.332  1.2113 -2.4994 -0.9473
  973TIP3   OH227113   0.460   5.691  19.381 -0.0455  0.1370 -0.1218
  973TIP3    H127114   0.426   5.611  19.340 -0.0176 -0.0010  0.1164
  973TIP3    H227115   0.445   5.760  19.317 -0.9641  0.1122  0.0544
  974TIP3   OH227116   2.567   4.022  20.466 -0.0334  0.0513 -0.4091
  974TIP3    H127117   2.487   4.004  20.516  1.7204 -3.7666  1.4470
  974TIP3    H227118   2.623   4.070  20.526  0.2117  0.0482 -0.6327
  975TIP3   OH227119   0.153   5.266  18.513 -0.0554 -0.0084 -0.0355
  975TIP3    H127120   0.121   5.221  18.435 -0.2533  0.6338 -0.3255
  975TIP3    H227121   0.105   5.226  18.585 -0.3059 -0.1919 -0.3032
  976TIP3   OH227122   2.491   1.219  19.722 -0.0153  0.1440 -0.5146
  976TIP3    H127123   2.459   1.134  19.753  2.0085 -0.6374 -0.4102
  976TIP3    H227124   2.502   1.207  19.628 -0.5097  0.5712 -0.6272
  977TIP3   OH227125   0.330   0.815  19.261  0.5135 -0.2195  0.2641
  977TIP3    H127126   0.390   0.822  19.187 -0.3462 -0.1601 -0.4389
  977TIP3    H227127   0.296   0.726  19.257 -0.5388  0.1861 -0.2165
  978TIP3   OH227128   6.632   6.287  19.624 -0.0712 -0.2622  0.7058
  978TIP3    H127129   6.561   6.349  19.641 -0.1714  0.0903 -0.8454
  978TIP3    H227130   6.710   6.341  19.614 -0.3294 -0.2193 -1.6505
  979TIP3   OH227131   2.619   1.028  20.890 -0.1461  0.6490  0.1264
  979TIP3    H127132   2.627   1.008  20.797 -2.0724 -1.5570  0.3451
  979TIP3    H227133   2.694   0.984  20.931 -1.7028 -2.2697  0.0350
  980TIP3   OH227134   5.110   5.407  20.222 -0.8132  0.0553 -0.2510
  980TIP3    H127135   5.189   5.459  20.238 -0.8612 -0.0990  0.5144
  980TIP3    H227136   5.058   5.461  20.162  0.1718 -0.1482 -1.3190
  981TIP3   OH227137   1.131   4.068  20.698  0.5955 -0.4821  0.7210
  981TIP3    H127138   1.149   4.110  20.614 -3.5633 -0.6529 -0.5066
  981TIP3    H227139   1.090   3.984  20.674 -0.1568 -0.8018  2.9230
  982TIP3   OH227140   2.960   5.159  17.467  0.7194  0.1951  0.0665
  982TIP3    H127141   2.997   5.083  17.512 -0.9921 -0.5964  0.2111
  982TIP3    H227142   2.874   5.129  17.437  0.1225  1.9925 -0.1132
  983TIP3   OH227143   3.906   5.041  20.532 -0.3890  0.4582 -0.3536
  983TIP3    H127144   3.927   5.055  20.440  1.1828  1.3361  0.0961
  983TIP3    H227145   3.894   4.947  20.540  2.6042 -0.0661 -0.8928
  984TIP3   OH227146   2.064   3.696  21.117  0.0693 -0.4473 -0.4211
  984TIP3    H127147   2.016   3.696  21.200 -0.7348 -0.4932 -0.8756
  984TIP3    H227148   2.036   3.777  21.073 -0.4978 -1.0394 -1.1886
  985TIP3   OH227149   2.707   6.268  21.095  0.1358  0.2465 -0.2812
  985TIP3    H127150   2.612   6.282  21.098  0.1584  0.3415 -0.0491
  985TIP3    H227151   2.744   6.345  21.138  0.3873  1.0688 -1.8736
  986TIP3   OH227152   0.712   5.253  20.374 -0.3105 -0.1986  0.4974
  986TIP3    H127153   0.690   5.346  20.367  0.5489 -0.0281 -0.0354
  986TIP3    H227154   0.684   5.228  20.463 -2.0725  0.1444  0.0774
  987TIP3   OH227155   4.971   2.560  17.881 -0.2657 -0.4113  0.3594
  987TIP3    H127156   5.045   2.554  17.821 -1.5864  0.2916 -1.4337
  987TIP3    H227157   4.925   2.476  17.871 -1.0664  0.0983 -0.4798
  988TIP3   OH227158   4.514   3.486  18.890 -0.1257 -0.6100  0.1684
  988TIP3    H127159   4.573   3.558  18.911  0.8238 -1.2656 -0.1576
  988TIP3    H227160   4.509   3.488  18.794  1.2134 -1.9583  0.0414
  989TIP3   OH227161   3.728   3.531  20.461 -0.0336  0.2352  0.0338
  989TIP3    H127162   3.691   3.542  20.549 -1.3428 -0.0542 -0.4523
  989TIP3    H227163   3.782   3.453  20.467  0.3442  0.5470  0.7270
  990TIP3   OH227164   0.396   5.326  18.649 -0.1862  0.5018 -0.0393
  990TIP3    H127165   0.415   5.252  18.591 -1.6119  0.0567  0.0251
  990TIP3    H227166   0.300   5.326  18.658 -0.0209  0.6358  2.2399
  991TIP3   OH227167   0.212   6.606  18.845 -0.1786 -0.1373  0.1409
  991TIP3    H127168   0.290   6.634  18.893  0.2633 -0.5853 -0.3069
  991TIP3    H227169   0.141   6.660  18.881  0.5619  1.2161 -0.3645
  992TIP3   OH227170   3.791   1.197  20.034  0.3138  0.1454 -0.4216
  992TIP3    H127171   3.840   1.229  20.109 -0.3428  0.5029 -0.1414
  992TIP3    H227172   3.846   1.218  19.958  0.3623  1.0178 -0.1560
  993TIP3   OH227173   4.915   1.956  19.162 -0.1953  0.1427  0.3749
  993TIP3    H127174   4.847   1.997  19.109 -0.7122  0.2089  1.0706
  993TIP3    H227175   4.867   1.915  19.235  0.4103 -0.6987  0.3237
  994TIP3   OH227176   2.068   1.309  19.115  0.1889  0.2541  0.6223
  994TIP3    H127177   2.071   1.288  19.021 -0.7657  0.4237  0.5417
  994TIP3    H227178   1.980   1.282  19.142  0.4614  0.1979  1.4789
  995TIP3   OH227179   3.047   6.023  17.734 -1.2706  0.3159  0.4119
  995TIP3    H127180   2.987   6.097  17.723 -0.8813  0.4028 -1.5678
  995TIP3    H227181   3.130   6.055  17.697 -0.9621 -0.9255 -0.0146
  996TIP3   OH227182   1.504   0.249  19.766 -0.0523 -0.1319 -0.5193
  996TIP3    H127183   1.514   0.155  19.786 -0.2427 -0.3763 -1.5495
  996TIP3    H227184   1.486   0.289  19.851 -0.0543 -1.0437 -0.0747
  997TIP3   OH227185   4.354   1.853  18.225  0.7863  0.2735  0.0578
  997TIP3    H127186   4.374   1.939  18.262  0.4182 -0.4487  2.0829
  997TIP3    H227187   4.437   1.822  18.188  1.0082  1.3255 -0.3484
  998TIP3   OH227188   1.755   4.229  19.307 -0.5210  0.4028  0.6235
  998TIP3    H127189   1.789   4.305  19.354  0.3750  0.3297  0.1296
  998TIP3    H227190   1.661   4.232  19.320 -0.3212  0.4544  2.3170
  999TIP3   OH227191   6.303   4.068  20.361  0.5596  0.2062 -0.3436
  999TIP3    H127192   6.357   4.130  20.409  2.2811 -0.7681 -0.9397
  999TIP3    H227193   6.365   4.004  20.326 -1.0784 -1.5990 -0.1382
 1000TIP3   OH227194   1.108   4.977  19.751 -0.2246  0.3200  0.5781
 1000TIP3    H127195   1.072   5.000  19.836 -1.8431  1.7730 -0.4288
 1000TIP3    H227196   1.189   5.027  19.744  0.4648 -0.6118  1.6462
 1001TIP3   OH227197   0.001   1.307  19.035  0.7088  0.0162 -0.3372
 1001TIP3    H127198  -0.027   1.398  19.032 -0.3739 -0.2993 -0.1809
 1001TIP3    H227199   0.020   1.290  19.127  3.6116  0.8348 -0.6810
 1002TIP3   OH227200   3.308   1.274  18.140  0.0068 -0.0188  0.4918
 1002TIP3    H127201   3.362   1.354  18.146 -0.9376  0.8466 -1.4868
 1002TIP3    H227202   3.356   1.210  18.192  1.1127  1.6653  1.6933
 1003TIP3   OH227203   6.350   2.215  20.069  0.0597 -0.1846  0.0297
 1003TIP3    H127204   6.425   2.259  20.109 -0.6686 -0.5902  1.9175
 1003TIP3    H227205   6.355   2.125  20.099  0.5675 -1.0580 -2.4339
 1004TIP3   OH227206   0.845   1.611  18.702  0.4046 -0.2730  0.0925
 1004TIP3    H127207   0.786   1.617  18.777  0.7492  0.5939  0.3121
 1004TIP3    H227208   0.921   1.563  18.735  0.1124 -0.8105 -0.0043
 1005TIP3   OH227209   5.561   6.032  20.191  0.2857  0.0978  0.1493
 1005TIP3    H127210   5.550   6.125  20.172  0.3846  0.2047  0.6003
 1005TIP3    H227211   5.554   6.026  20.286 -1.2780 -0.5714  0.0239
 1006TIP3   OH227212   6.234   5.746  20.912  0.1150  0.0229 -0.1212
 1006TIP3    H127213   6.292   5.747  20.988  1.1957  0.1250 -0.9388
 1006TIP3    H227214   6.211   5.654  20.901  0.0480 -0.0076  0.2477
 1007TIP3   OH227215   4.290   5.116  20.584  0.2048  0.5863  0.2545
 1007TIP3    H127216   4.356   5.121  20.515  0.8803 -0.4821  0.8055
 1007TIP3    H227217   4.298   5.200  20.630  2.7347 -0.3279  1.6749
 1008TIP3   OH227218   4.899   4.422  21.094  0.1663  0.0933 -1.0866
 1008TIP3    H127219   4.824   4.443  21.038 -0.1897 -1.0912 -1.0729
 1008TIP3    H227220   4.975   4.456  21.046 -0.5194  4.1359  0.2903
 1009TIP3   OH227221   6.287   3.339  20.266  0.4945  0.5044 -0.3153
 1009TIP3    H127222   6.321   3.400  20.331 -0.1756  0.3439  0.1966
 1009TIP3    H227223   6.198   3.369  20.249  0.8772  0.9400 -1.6566
 1010TIP3   OH227224   3.064   1.455  18.717 -0.5619  0.0554  0.5160
 1010TIP3    H127225   3.089   1.490  18.802 -0.1669 -2.1651  1.3841
 1010TIP3    H227226   3.135   1.394  18.694 -0.9002  0.2566 -1.1762
 1011TIP3   OH227227   5.992   1.643  18.872  0.1321 -0.1916 -0.0120
 1011TIP3    H127228   5.975   1.684  18.956  0.8449  0.4385 -0.1629
 1011TIP3    H227229   6.050   1.704  18.826 -0.5597 -0.3295 -1.1162
 1012TIP3   OH227230   2.219   3.348  20.135 -0.4752  0.7984 -0.0819
 1012TIP3    H127231   2.212   3.372  20.043  0.8416 -0.8784 -0.6852
 1012TIP3    H227232   2.260   3.424  20.177 -0.2759  1.2467 -1.0634
 1013TIP3   OH227233   2.608   2.596  19.937  0.3788  0.0239  0.2433
 1013TIP3    H127234   2.579   2.613  20.027  1.6520  0.8796  0.5085
 1013TIP3    H227235   2.679   2.533  19.946  0.2698 -0.1686 -0.2087
 1014TIP3   OH227236   5.950   3.222  19.573 -0.3012  0.1328  0.1508
 1014TIP3    H127237   6.033   3.183  19.598 -0.7419 -1.6814 -1.0672
 1014TIP3    H227238   5.916   3.167  19.503 -2.4591  0.8953  0.4871
 1015TIP3   OH227239   4.838   5.549  18.993  0.3064 -0.6774 -0.4340
 1015TIP3    H127240   4.804   5.634  18.966  1.4983 -0.1335 -0.3011
 1015TIP3    H227241   4.763   5.502  19.028 -0.4765  0.1084 -1.0197
 1016TIP3   OH227242   2.815   5.326  18.331  0.5127  0.1056 -0.4263
 1016TIP3    H127243   2.839   5.343  18.240  1.0292  1.7904 -0.0221
 1016TIP3    H227244   2.896   5.340  18.381 -0.1685  1.0731  0.4623
 1017TIP3   OH227245   0.507   5.292  20.093 -0.0487  0.0597  0.6850
 1017TIP3    H127246   0.473   5.356  20.030  1.2544 -0.2525 -0.3587
 1017TIP3    H227247   0.436   5.283  20.157 -1.7208 -0.1599 -1.0972
 1018TIP3   OH227248   1.085   6.574  18.594  0.4752 -0.2890  0.2536
 1018TIP3    H127249   0.998   6.571  18.555  1.0875 -2.3129 -1.1433
 1018TIP3    H227250   1.137   6.626  18.533  0.5886 -0.3056  0.3362
 1019TIP3   OH227251   4.542   3.943  19.183 -0.2752 -0.3573  0.6299
 1019TIP3    H127252   4.518   3.982  19.099 -1.3897  0.9837  1.5083
 1019TIP3    H227253   4.492   3.862  19.187 -2.4702  0.9225  1.1169
 1020TIP3   OH227254   4.419   0.242  20.683  0.2614 -0.0914 -0.3898
 1020TIP3    H127255   4.360   0.287  20.743 -0.7421 -0.4525 -1.0730
 1020TIP3    H227256   4.362   0.184  20.633  1.5021 -2.1177  0.4302
 1021TIP3   OH227257   0.573   5.649  18.716  0.1798 -0.0599 -0.4204
 1021TIP3    H127258   0.579   5.575  18.656 -1.9108  0.2044 -1.0456
 1021TIP3    H227259   0.610   5.617  18.798 -0.2550 -1.6528 -0.8160
 1022TIP3   OH227260   3.082   3.622  17.690 -0.3954 -0.1950  0.0103
 1022TIP3    H127261   3.101   3.713  17.666  0.4312 -0.2288  0.5204
 1022TIP3    H227262   3.010   3.597  17.631 -0.6428  0.7886 -0.1277
 1023TIP3   OH227263   2.161   1.449  20.542  0.3039 -0.3100  0.1760
 1023TIP3    H127264   2.176   1.382  20.476 -0.3349 -0.6801  0.4014
 1023TIP3    H227265   2.203   1.415  20.621  0.0610 -0.4018  0.2656
 1024TIP3   OH227266   4.467   4.787  18.908 -0.5869  0.0827 -0.0572
 1024TIP3    H127267   4.511   4.708  18.940 -0.7209 -0.3902 -0.9932
 1024TIP3    H227268   4.374   4.772  18.925 -0.6846 -0.2791 -0.8538
 1025TIP3   OH227269   2.575   4.638  20.398 -0.3621  0.6816  0.2574
 1025TIP3    H127270   2.603   4.581  20.470  0.2109 -0.3062 -0.7270
 1025TIP3    H227271   2.485   4.611  20.380  0.0294 -0.1766 -0.4486
 1026TIP3   OH227272   3.209   3.336  20.229 -0.3313 -0.0190  0.2972
 1026TIP3    H127273   3.274   3.268  20.210  0.3942  1.0085 -1.0955
 1026TIP3    H227274   3.259   3.406  20.270 -1.2501 -0.6639  2.6670
 1027TIP3   OH227275   1.595   5.369  17.790 -0.2723 -0.0699 -0.3951
 1027TIP3    H127276   1.593   5.294  17.850 -1.1177 -0.1238 -0.4738
 1027TIP3    H227277   1.504   5.382  17.766 -0.2792  1.6403  0.4196
 1028TIP3   OH227278   5.279   0.747  19.667  0.2595 -0.2587  0.7540
 1028TIP3    H127279   5.358   0.725  19.618  0.0818  0.0908  0.3041
 1028TIP3    H227280   5.311   0.777  19.752  0.6027 -0.2543  0.6251
 1029TIP3   OH227281   3.034   4.810  18.658 -0.6682 -0.1586  0.2516
 1029TIP3    H127282   3.010   4.741  18.596  0.8877  1.2168 -2.0020
 1029TIP3    H227283   2.950   4.845  18.689 -1.4863 -1.2005 -0.7068
 1030TIP3   OH227284   1.087   2.861  21.194  0.1150  0.4209 -0.2817
 1030TIP3    H127285   1.163   2.861  21.252  0.4313  0.0734 -0.6907
 1030TIP3    H227286   1.053   2.772  21.200 -0.0545  0.4815 -0.3658
 1031TIP3   OH227287   6.050   3.538  18.959  0.2445  0.0216  0.0660
 1031TIP3    H127288   6.021   3.492  18.880  0.3536 -0.6514  0.4100
 1031TIP3    H227289   6.059   3.629  18.931  0.2567 -0.2024 -0.6947
 1032TIP3   OH227290   3.895   1.846  17.771  0.5045  0.3064 -0.0905
 1032TIP3    H127291   3.831   1.911  17.799  0.3115  0.2359 -0.3657
 1032TIP3    H227292   3.854   1.803  17.695  1.5640  1.4025 -1.3415
 1033TIP3   OH227293   4.961   3.874  20.108 -0.0013  0.3340 -0.1796
 1033TIP3    H127294   4.937   3.843  20.021 -1.8456  0.3842  0.2593
 1033TIP3    H227295   4.918   3.959  20.115  0.5894  0.5825  0.5937
 1034TIP3   OH227296   5.185   3.879  19.478  0.6272 -0.1307  0.2279
 1034TIP3    H127297   5.222   3.893  19.566  1.1219 -1.0263  0.1784
 1034TIP3    H227298   5.092   3.863  19.494  0.7118 -0.2860  0.5978
 1035TIP3   OH227299   4.783   2.759  21.056 -0.4450  0.5143  0.0903
 1035TIP3    H127300   4.822   2.698  20.995  0.0031  0.6326  0.2524
 1035TIP3    H227301   4.756   2.705  21.130 -0.7314  0.4116 -0.0874
 1036TIP3   OH227302   0.412   3.064  18.293  0.0593 -0.7672  0.2751
 1036TIP3    H127303   0.407   3.061  18.197  0.7593 -0.7021  0.2321
 1036TIP3    H227304   0.326   3.095  18.320 -0.1386 -0.7679 -0.3365
 1037TIP3   OH227305   1.154   1.044  20.346  0.1785 -0.2490  0.0362
 1037TIP3    H127306   1.095   0.970  20.333  1.3096 -1.0501 -0.7218
 1037TIP3    H227307   1.228   1.027  20.286 -0.3352  2.3686 -1.4940
 1038TIP3   OH227308   1.365   4.015  18.816 -0.3234  0.4460 -0.1458
 1038TIP3    H127309   1.302   3.943  18.811 -1.1256  1.1420 -0.3426
 1038TIP3    H227310   1.336   4.068  18.890  0.9086 -0.0007  0.6941
 1039TIP3   OH227311   2.886   3.289  18.924 -0.0951 -0.4530  0.2402
 1039TIP3    H127312   2.824   3.230  18.880 -0.2757 -0.1611  0.0929
 1039TIP3    H227313   2.830   3.347  18.976 -0.3236  2.1391 -2.5776
 1040TIP3   OH227314   4.835   4.803  20.831  0.0343  0.2175 -0.5189
 1040TIP3    H127315   4.807   4.887  20.867  2.3307  1.0010 -0.3878
 1040TIP3    H227316   4.794   4.798  20.745 -3.0709 -0.2703  0.8397
 1041TIP3   OH227317   5.111   0.683  19.240 -0.3635  0.3429  0.4467
 1041TIP3    H127318   5.177   0.747  19.268 -0.5106  0.2461  1.0360
 1041TIP3    H227319   5.045   0.686  19.309  0.0671 -1.1075  0.9591
 1042TIP3   OH227320   2.398   2.092  19.630 -0.0053  0.1456 -0.2366
 1042TIP3    H127321   2.465   2.153  19.662 -0.8693  0.9407  0.1026
 1042TIP3    H227322   2.338   2.147  19.580 -1.0715 -0.3225  0.4923
 1043TIP3   OH227323   3.941   2.765  19.577  0.3093  0.1519 -0.1839
 1043TIP3    H127324   3.853   2.767  19.614  0.5453  1.2345  0.3692
 1043TIP3    H227325   3.952   2.675  19.546 -0.4121 -0.4345  1.1509
 1044TIP3   OH227326   5.090   0.834  20.556 -0.3609  0.1949 -0.3463
 1044TIP3    H127327   5.070   0.869  20.643 -0.2675 -0.9273  0.1430
 1044TIP3    H227328   5.181   0.803  20.563  0.4496  2.1232 -1.5260
 1045TIP3   OH227329   5.678   4.992  18.810 -0.1055 -0.2130 -1.1743
 1045TIP3    H127330   5.646   4.974  18.722 -1.5119  0.4589 -0.8440
 1045TIP3    H227331   5.604   4.970  18.867  0.9004 -0.9850 -0.1174
 1046TIP3   OH227332   3.615   2.329  20.650  0.0407  0.2204  0.0064
 1046TIP3    H127333   3.635   2.313  20.742  0.7158  1.0184  0.0153
 1046TIP3    H227334   3.590   2.422  20.647 -1.2310 -0.1183 -0.4207
 1047TIP3   OH227335   3.344   1.992  21.120  0.7195 -0.1706 -0.0950
 1047TIP3    H127336   3.414   1.954  21.067 -0.8179 -0.7394 -1.8325
 1047TIP3    H227337   3.285   1.919  21.139  0.1688  0.4415  0.6344
 1048TIP3   OH227338   1.566   2.075  17.935  0.3868 -0.0189 -0.2567
 1048TIP3    H127339   1.483   2.116  17.913  0.3685  0.1502  0.1117
 1048TIP3    H227340   1.549   2.028  18.017  0.8618  0.7108  0.2789
 1049TIP3   OH227341   4.497   5.624  19.666  0.1210 -0.6966  0.0372
 1049TIP3    H127342   4.466   5.663  19.585  0.6879 -0.3343 -0.0136
 1049TIP3    H227343   4.582   5.586  19.643  0.1737 -0.8033  0.4018
 1050TIP3   OH227344   4.542   0.040  20.218 -0.0967  0.0816 -0.3843
 1050TIP3    H127345   4.612  -0.013  20.255  0.1548  0.8195  0.2158
 1050TIP3    H227346   4.577   0.129  20.217 -1.0757  0.4843  0.0413
 1051TIP3   OH227347   2.212   5.757  18.187  0.3881  0.3683 -0.4063
 1051TIP3    H127348   2.119   5.777  18.182  0.2979  0.0621 -0.0414
 1051TIP3    H227349   2.254   5.819  18.127  0.2580  2.4153  1.4773
 1052TIP3   OH227350   5.892   4.497  19.890  0.1299 -0.0045  0.9707
 1052TIP3    H127351   5.983   4.469  19.901  0.0116 -0.3788  1.0215
 1052TIP3    H227352   5.888   4.530  19.800  0.7670  1.7722  1.5489
 1053TIP3   OH227353   1.771   3.423  21.348 -0.0948  0.3683  0.4714
 1053TIP3    H127354   1.749   3.454  21.436 -1.2498 -3.1975  1.6196
 1053TIP3    H227355   1.696   3.449  21.295 -0.2529  0.9399  0.9565
 1054TIP3   OH227356   1.944   3.730  21.407  0.5393 -0.1903  0.6539
 1054TIP3    H127357   2.002   3.804  21.420 -1.5114  1.1175  3.3326
 1054TIP3    H227358   1.926   3.697  21.495 -0.0414 -2.7586 -0.3282
 1055TIP3   OH227359   5.878   2.481  19.638 -0.0445 -0.1206  0.1746
 1055TIP3    H127360   5.951   2.507  19.694 -0.9159 -0.9900  1.7751
 1055TIP3    H227361   5.857   2.392  19.666 -1.3685 -0.0867 -0.6375
 1056TIP3   OH227362   1.921   1.195  19.780 -0.3272 -0.0653  0.0587
 1056TIP3    H127363   1.862   1.248  19.834  2.0248  0.3823  2.3957
 1056TIP3    H227364   1.932   1.247  19.700 -0.1467  1.7125  1.1747
 1057TIP3   OH227365   5.589   1.659  19.315 -0.3841  0.0471 -0.3385
 1057TIP3    H127366   5.553   1.575  19.284  1.6567 -0.2699 -2.0441
 1057TIP3    H227367   5.550   1.725  19.258 -0.4319  0.0300 -0.3261
 1058TIP3   OH227368   3.682   6.197  17.772  0.2048 -0.1464 -0.1518
 1058TIP3    H127369   3.684   6.168  17.681  1.8714 -2.2103  0.4468
 1058TIP3    H227370   3.749   6.265  17.777 -0.0188  0.1015 -0.4897
 1059TIP3   OH227371   1.396   4.773  20.366 -0.3766  0.7640  0.4100
 1059TIP3    H127372   1.322   4.759  20.426 -0.2752  0.0358  0.3663
 1059TIP3    H227373   1.436   4.855  20.397 -1.2497  1.2127  0.3810
 1060TIP3   OH227374   0.651   6.459  20.212 -0.0302  0.3403 -0.1043
 1060TIP3    H127375   0.637   6.414  20.129 -1.1082 -1.6541  1.0607
 1060TIP3    H227376   0.563   6.484  20.241  0.1035 -0.7333  1.3171
 1061TIP3   OH227377   1.911   0.484  20.241 -0.2190 -0.0560 -0.1821
 1061TIP3    H127378   1.905   0.482  20.337 -0.9351 -0.5174 -0.2289
 1061TIP3    H227379   2.001   0.510  20.223  0.0020 -0.2382  0.6186
 1062TIP3   OH227380   0.196   3.451  20.287 -0.2764  0.3107  0.4331
 1062TIP3    H127381   0.182   3.418  20.375  1.7781 -3.3364 -0.3911
 1062TIP3    H227382   0.289   3.473  20.285  1.0484 -4.2308 -1.8405
 1063TIP3   OH227383   1.158   6.037  21.190 -0.2470 -0.3393  0.6495
 1063TIP3    H127384   1.114   5.992  21.262 -1.1323 -0.7939 -0.1541
 1063TIP3    H227385   1.087   6.077  21.140  0.3287 -0.2321 -0.1027
 1064TIP3   OH227386   6.290   1.334  17.674 -0.2481 -0.0099  0.0391
 1064TIP3    H127387   6.233   1.373  17.608  0.2732  0.6373 -0.0442
 1064TIP3    H227388   6.263   1.243  17.679 -0.6918  0.0800 -0.6390
 1065TIP3   OH227389   4.664   1.380  19.562 -0.2066 -0.0039  0.6191
 1065TIP3    H127390   4.572   1.372  19.584 -0.7364  0.1148 -1.3972
 1065TIP3    H227391   4.676   1.325  19.484  1.4974 -0.2769  1.0310
 1066TIP3   OH227392   6.264   3.635  19.583 -0.3010  0.0428  0.4170
 1066TIP3    H127393   6.231   3.696  19.517 -1.3024  0.5002  1.2901
 1066TIP3    H227394   6.186   3.586  19.611  0.3653 -1.1637  0.2259
 1067TIP3   OH227395   3.385   5.283  19.056 -0.5756 -0.1727  0.2867
 1067TIP3    H127396   3.336   5.202  19.062 -0.1926 -0.4696 -0.4318
 1067TIP3    H227397   3.327   5.342  19.006 -0.7921 -0.0508  0.6796
 1068TIP3   OH227398   2.779   0.914  19.541 -0.1690  0.1809 -0.8222
 1068TIP3    H127399   2.719   0.931  19.468 -1.6927 -1.2017  0.0486
 1068TIP3    H227400   2.852   0.866  19.502  0.6853  2.2893 -1.9855
 1069TIP3   OH227401   3.304   4.115  19.718 -0.4369  0.1107  0.1948
 1069TIP3    H127402   3.281   4.105  19.810  0.5729  0.1522  0.4656
 1069TIP3    H227403   3.221   4.115  19.672 -0.8969 -0.9626  1.0044
 1070TIP3   OH227404   5.969   3.070  20.560 -0.0407  0.3951  0.5178
 1070TIP3    H127405   6.027   3.131  20.514 -0.0380  0.3341  0.4398
 1070TIP3    H227406   5.926   3.123  20.627  0.0091  0.4686  0.4915
 1071TIP3   OH227407   5.558   1.136  18.990  0.2776  0.0951  0.5714
 1071TIP3    H127408   5.591   1.129  19.080 -2.3733  1.0033  1.7027
 1071TIP3    H227409   5.478   1.085  18.990 -1.0510  2.0698 -0.5523
 1072TIP3   OH227410   0.242   4.490  18.318  0.9613 -0.2373 -0.2320
 1072TIP3    H127411   0.337   4.499  18.308  1.2085 -0.1899  1.7611
 1072TIP3    H227412   0.222   4.538  18.398 -0.4582 -1.8992  0.4541
 1073TIP3   OH227413   0.360   3.350  19.535 -0.6346 -0.1007  0.3235
 1073TIP3    H127414   0.293   3.308  19.589  0.9552 -1.1704  1.5384
 1073TIP3    H227415   0.389   3.280  19.476 -0.5440  0.3515 -0.1724
 1074TIP3   OH227416   0.290   4.252  20.006  0.0993  0.0351  0.4271
 1074TIP3    H127417   0.302   4.278  20.097  1.5833 -1.7242  0.7812
 1074TIP3    H227418   0.195   4.247  19.995 -0.2057 -3.1301  2.9751
 1075TIP3   OH227419   4.282   1.828  19.365  0.0778  0.3352 -1.3191
 1075TIP3    H127420   4.188   1.831  19.386  0.3453 -2.6000  1.0707
 1075TIP3    H227421   4.319   1.902  19.413 -0.6590 -0.6279  0.9211
 1076TIP3   OH227422   0.062   1.193  18.791 -0.1717  0.1719 -0.5275
 1076TIP3    H127423   0.069   1.287  18.773  1.5619  1.0051  3.5150
 1076TIP3    H227424   0.034   1.187  18.882 -0.8191 -3.2993 -0.8015
 1077TIP3   OH227425   0.479   4.035  21.179  0.1484 -0.2266  0.2396
 1077TIP3    H127426   0.473   4.120  21.135  1.0793 -0.8960 -1.2232
 1077TIP3    H227427   0.388   4.013  21.200 -0.2207  0.5552 -0.4724
 1078TIP3   OH227428   4.111   6.147  20.683  0.6248  0.3560 -0.7961
 1078TIP3    H127429   4.130   6.232  20.722  0.1209  0.8281 -1.5448
 1078TIP3    H227430   4.056   6.168  20.607  0.4389 -0.6441 -0.9445
 1079TIP3   OH227431   1.076   4.952  18.433 -0.3803  0.0359 -0.0983
 1079TIP3    H127432   1.010   4.883  18.424  0.7108 -0.9448 -0.8001
 1079TIP3    H227433   1.058   5.011  18.360  0.7864 -1.3575 -1.5780
 1080TIP3   OH227434   5.686   1.372  19.542 -0.2792  0.6846  0.1484
 1080TIP3    H127435   5.713   1.371  19.634 -0.5766 -0.6258  0.2425
 1080TIP3    H227436   5.767   1.359  19.493 -0.2360  0.4828  0.2706
 1081TIP3   OH227437   1.081   3.167  21.195 -0.0363 -0.2273 -0.2868
 1081TIP3    H127438   1.027   3.096  21.160 -0.2983 -1.0973  1.7329
 1081TIP3    H227439   1.127   3.128  21.269  0.4924  1.4864  0.3445
 1082TIP3   OH227440   3.325   1.144  20.229 -0.1323  0.7420  0.6589
 1082TIP3    H127441   3.252   1.205  20.238  0.5189  1.5228  0.7401
 1082TIP3    H227442   3.372   1.172  20.151 -0.4107 -0.3099  0.0838
 1083TIP3   OH227443   1.973   5.303  18.378  0.1160  0.6285 -0.1323
 1083TIP3    H127444   1.904   5.359  18.412  1.2624  1.5580  0.7717
 1083TIP3    H227445   1.933   5.216  18.372 -0.4503  0.6020  2.7547
 1084TIP3   OH227446   6.560   5.895  18.748 -0.0559  0.1601  0.2306
 1084TIP3    H127447   6.575   5.911  18.842 -0.9895 -0.0132  0.4141
 1084TIP3    H227448   6.466   5.902  18.737  0.0173 -0.1328 -0.6458
 1085TIP3   OH227449   3.732   4.603  18.245  0.3564 -0.0234 -0.2166
 1085TIP3    H127450   3.706   4.618  18.336 -0.8977 -0.6075 -0.4572
 1085TIP3    H227451   3.670   4.537  18.213  0.6748  0.2941 -1.5453
 1086TIP3   OH227452   5.797   6.065  19.763  0.3347 -0.5493  0.5490
 1086TIP3    H127453   5.737   6.122  19.810  1.3413 -0.8358  2.2498
 1086TIP3    H227454   5.747   6.033  19.688 -0.7539  1.3006  0.4304
 1087TIP3   OH227455   5.268   1.277  19.629  0.4000 -0.3699 -0.3041
 1087TIP3    H127456   5.280   1.290  19.723  0.4541 -0.5232 -0.2903
 1087TIP3    H227457   5.301   1.358  19.589 -1.0189  0.3361 -0.1008
 1088TIP3   OH227458   2.859   0.742  19.102 -0.4518 -0.1388 -0.2592
 1088TIP3    H127459   2.850   0.649  19.079  2.0577 -0.9535  1.5900
 1088TIP3    H227460   2.823   0.789  19.027 -0.1858 -2.6110 -2.0568
 1089TIP3   OH227461   5.131   4.784  18.630  0.1808 -0.5520  0.1858
 1089TIP3    H127462   5.114   4.815  18.541 -0.5698 -1.0026  0.1676
 1089TIP3    H227463   5.076   4.840  18.685  0.8070 -0.1308  0.3978
 1090TIP3   OH227464   3.189   1.953  19.593  0.4596 -0.3206 -0.1856
 1090TIP3    H127465   3.107   1.947  19.641  0.0644 -0.4281 -0.8504
 1090TIP3    H227466   3.241   2.018  19.639 -0.0743 -0.1259  0.1357
 1091TIP3   OH227467   3.887   6.067  19.002 -0.8130  0.1206 -0.0530
 1091TIP3    H127468   3.848   6.082  18.916  0.7829 -1.5675 -1.1543
 1091TIP3    H227469   3.823   6.102  19.064 -1.5609  2.3121 -1.9266
 1092TIP3   OH227470   2.239   1.380  18.720  0.2142  0.1211 -0.4218
 1092TIP3    H127471   2.208   1.447  18.659  0.5812 -0.3287 -1.1245
 1092TIP3    H227472   2.160   1.348  18.763  0.0024  0.7727 -0.3232
 1093TIP3   OH227473   2.712   3.615  19.902  0.4672  0.1700  0.2347
 1093TIP3    H127474   2.681   3.598  19.814  0.2059 -1.0740  0.5488
 1093TIP3    H227475   2.800   3.578  19.905  1.3644  2.1632 -0.1370
 1094TIP3   OH227476   4.719   3.094  20.430 -0.5634  0.7323 -0.1215
 1094TIP3    H127477   4.765   3.149  20.493 -0.5856 -0.4376  0.9403
 1094TIP3    H227478   4.786   3.032  20.399 -1.0264  0.0719  0.1985
 1095TIP3   OH227479   6.467   5.985  20.061 -0.4598  0.5828 -0.1773
 1095TIP3    H127480   6.452   6.064  20.008 -0.2446  1.5456  1.1391
 1095TIP3    H227481   6.535   5.937  20.014 -2.7433 -0.4896 -2.7091
 1096TIP3   OH227482   2.896   4.379  19.527  0.2727  0.1581  0.8877
 1096TIP3    H127483   2.959   4.380  19.455 -1.3665 -0.0248 -0.6208
 1096TIP3    H227484   2.858   4.466  19.527  0.5393  0.2789  1.8082
 1097TIP3   OH227485   2.175   6.430  18.832 -0.4367 -0.0294 -0.5024
 1097TIP3    H127486   2.097   6.472  18.796 -0.5812 -0.4483 -0.6834
 1097TIP3    H227487   2.141   6.358  18.885 -0.2403  0.7778  0.7412
 1098TIP3   OH227488   0.316   2.775  20.402  0.0867 -0.1379 -0.7470
 1098TIP3    H127489   0.250   2.817  20.347 -0.2572 -0.2180 -0.4031
 1098TIP3    H227490   0.349   2.702  20.349 -0.2653 -0.2348 -0.8339
 1099TIP3   OH227491   4.964   6.538  19.934  0.2425  0.4146  0.1443
 1099TIP3    H127492   4.997   6.617  19.891 -1.2297  0.9970  0.0275
 1099TIP3    H227493   4.970   6.557  20.028  1.4841 -0.0314  0.1752
 1100TIP3   OH227494   4.582   3.283  17.415 -0.9135  0.1000 -0.1119
 1100TIP3    H127495   4.510   3.342  17.392 -0.9679 -0.7304 -2.2861
 1100TIP3    H227496   4.653   3.308  17.355  0.2506  0.1447  1.2244
 1101TIP3   OH227497   0.092   3.460  19.250 -0.1417  0.0760 -0.1124
 1101TIP3    H127498   0.048   3.502  19.324 -0.7976  0.2560 -0.5904
 1101TIP3    H227499   0.069   3.368  19.258 -2.5189  0.4548 -1.5912
 1102TIP3   OH227500   2.124   5.794  20.204 -0.5318  0.8746  0.0657
 1102TIP3    H127501   2.141   5.706  20.236 -0.1976  0.5794 -0.9081
 1102TIP3    H227502   2.038   5.789  20.162 -0.3270  0.9110 -0.3590
 1103TIP3   OH227503   2.382   3.609  20.648  0.3043  0.0761  0.4519
 1103TIP3    H127504   2.287   3.594  20.647  0.2399  0.4919 -0.4961
 1103TIP3    H227505   2.419   3.525  20.622  0.0425  0.6937 -2.2744
 1104TIP3   OH227506   1.970   1.292  20.060  0.1665  0.0058  0.2482
 1104TIP3    H127507   1.947   1.199  20.066  1.3157 -0.4917 -1.9505
 1104TIP3    H227508   1.890   1.334  20.027  0.2686 -0.5992 -0.8385
 1105TIP3   OH227509   0.422   2.811  20.644  0.8634  0.1321 -0.3311
 1105TIP3    H127510   0.515   2.794  20.656  0.5598 -2.3499 -0.9308
 1105TIP3    H227511   0.406   2.793  20.552 -0.2237  0.5353 -0.2361
 1106TIP3   OH227512   6.475   6.442  19.794 -0.2996  0.1422  0.2858
 1106TIP3    H127513   6.408   6.492  19.840  0.8225  1.8355  0.1494
 1106TIP3    H227514   6.495   6.494  19.716  1.0116 -0.4573  0.2015
 1107TIP3   OH227515   5.093   2.641  18.488  0.3046  0.2589  0.2517
 1107TIP3    H127516   5.089   2.620  18.582 -0.2045 -0.6608  0.0407
 1107TIP3    H227517   5.169   2.698  18.479 -0.7738  1.9972  1.5137
 1108TIP3   OH227518   1.304   5.196  17.900 -0.2916  0.6259 -0.1652
 1108TIP3    H127519   1.228   5.249  17.879 -0.9012 -0.4622 -0.8169
 1108TIP3    H227520   1.342   5.173  17.815  0.2748  0.4705  0.1235
 1109TIP3   OH227521   4.923   2.661  19.003  0.0084  0.3279  0.1207
 1109TIP3    H127522   5.007   2.682  18.962 -0.9885  1.7373 -1.3347
 1109TIP3    H227523   4.858   2.683  18.936 -1.4958 -2.2181  0.5975
 1110TIP3   OH227524   0.478   0.571  18.170 -0.6360 -0.3221 -0.0610
 1110TIP3    H127525   0.509   0.484  18.194 -0.4011 -0.5397 -1.1228
 1110TIP3    H227526   0.399   0.556  18.119 -0.2658  0.0437 -0.7690
 1111TIP3   OH227527   1.112   2.851  19.725  0.6956  0.7934 -0.3546
 1111TIP3    H127528   1.034   2.868  19.777  1.9538  2.7455  1.0086
 1111TIP3    H227529   1.147   2.770  19.760 -1.8560 -1.4699 -2.5431
 1112TIP3   OH227530   5.496   4.509  20.908  0.1856  0.1119  0.1320
 1112TIP3    H127531   5.403   4.494  20.925 -0.6511  0.6336 -3.3100
 1112TIP3    H227532   5.523   4.569  20.978 -2.0770  0.0069  1.1871
 1113TIP3   OH227533   4.527   2.306  17.414  0.1679 -0.2988  0.0369
 1113TIP3    H127534   4.440   2.272  17.393  0.5711 -0.0811 -2.1898
 1113TIP3    H227535   4.511   2.379  17.474 -1.2289  0.0904 -0.7795
 1114TIP3   OH227536   4.367   4.961  19.938  0.5851  0.4694 -0.1496
 1114TIP3    H127537   4.289   5.001  19.976 -0.2470  0.3282 -1.6428
 1114TIP3    H227538   4.341   4.871  19.920  1.4402  0.1237  0.2767
 1115TIP3   OH227539   3.499   5.437  18.342  0.0077  0.1812  0.6083
 1115TIP3    H127540   3.466   5.400  18.261 -1.5069  0.8499  0.8923
 1115TIP3    H227541   3.565   5.501  18.313 -1.7587  1.7075 -0.2414
 1116TIP3   OH227542   1.931   5.968  19.597  0.2822 -0.6484  0.1080
 1116TIP3    H127543   1.881   5.982  19.517  0.5319 -2.4141 -0.4033
 1116TIP3    H227544   1.870   5.991  19.667 -0.2345  0.0725 -0.5602
 1117TIP3   OH227545   2.820   1.617  20.703 -0.5484  0.2068  0.3216
 1117TIP3    H127546   2.728   1.591  20.708 -0.4071 -1.5324 -3.3780
 1117TIP3    H227547   2.869   1.535  20.709  0.5529  0.7420 -0.9364
 1118TIP3   OH227548   4.730   1.146  18.571 -0.1551  0.1986  0.0642
 1118TIP3    H127549   4.699   1.152  18.480  0.3426  0.8214 -0.0733
 1118TIP3    H227550   4.736   1.237  18.600  1.6919  0.1337  0.0205
 1119TIP3   OH227551   3.467   4.780  19.054 -0.0748  0.4461  0.2425
 1119TIP3    H127552   3.469   4.760  18.960 -1.2078 -0.8984  0.4758
 1119TIP3    H227553   3.510   4.705  19.096  1.6008  1.6339  0.7488
 1120TIP3   OH227554   2.300   2.565  19.416 -0.6368  0.1309  0.3052
 1120TIP3    H127555   2.342   2.512  19.349  0.9599 -1.1771  2.2052
 1120TIP3    H227556   2.218   2.594  19.376 -0.5807 -2.0147 -1.5792
 1121TIP3   OH227557   3.293   2.455  18.027  0.3061  0.2947  0.0224
 1121TIP3    H127558   3.287   2.360  18.042 -0.4598  0.2090 -0.7519
 1121TIP3    H227559   3.204   2.487  18.036  0.5533  0.9399  0.2053
 1122TIP3   OH227560   6.673   4.410  20.503  0.0438  0.1416 -0.6782
 1122TIP3    H127561   6.620   4.460  20.564  0.3773  0.6911 -0.8392
 1122TIP3    H227562   6.721   4.348  20.558  3.2934  3.1084  0.1805
 1123TIP3   OH227563   3.062   2.330  18.185 -0.3794 -0.3812  0.2279
 1123TIP3    H127564   3.023   2.386  18.118 -2.3041  0.7859  2.1855
 1123TIP3    H227565   2.990   2.271  18.211 -0.0874  0.0002  2.0551
 1124TIP3   OH227566   1.715   3.377  20.638  0.1076 -0.4328 -0.3100
 1124TIP3    H127567   1.688   3.465  20.665 -0.7169 -0.6935 -0.2485
 1124TIP3    H227568   1.769   3.392  20.560 -0.3249  0.1171 -0.5183
 1125TIP3   OH227569   2.345   0.971  20.288  0.0004  0.3902 -0.2096
 1125TIP3    H127570   2.281   0.905  20.315 -0.2212  0.4494 -0.5853
 1125TIP3    H227571   2.394   0.929  20.217  0.1325  0.4807 -0.1722
 1126TIP3   OH227572   1.662   5.600  19.156 -0.3028  0.8758 -0.1415
 1126TIP3    H127573   1.708   5.612  19.072 -0.3810  0.3453 -0.2634
 1126TIP3    H227574   1.609   5.679  19.165  0.6223  1.4895 -0.0087
 1127TIP3   OH227575   5.326   2.145  18.725  0.3536 -0.0541  0.0601
 1127TIP3    H127576   5.389   2.143  18.653  1.5204  0.6057  1.0376
 1127TIP3    H227577   5.325   2.236  18.754 -0.6663 -0.1654  0.4144
 1128TIP3   OH227578   6.425   1.787  18.833  0.0031 -0.4797 -0.1524
 1128TIP3    H127579   6.333   1.786  18.807 -0.2698 -3.5033  0.5219
 1128TIP3    H227580   6.473   1.771  18.752 -0.3478 -2.3904 -0.0233
 1129TIP3   OH227581   4.839   4.101  20.173  0.0074 -0.6924 -0.4391
 1129TIP3    H127582   4.746   4.120  20.162 -0.1255 -1.1505 -0.1187
 1129TIP3    H227583   4.857   4.121  20.265  0.6507  1.1776 -0.9188
 1130TIP3   OH227584   2.176   4.276  19.995 -0.1833  0.8078 -0.1946
 1130TIP3    H127585   2.172   4.315  19.908 -0.6291 -0.2303 -0.6588
 1130TIP3    H227586   2.258   4.308  20.032  0.0047  1.2679 -0.9853
 1131TIP3   OH227587   0.551   0.846  21.074  0.6563 -0.0803  0.2920
 1131TIP3    H127588   0.577   0.776  21.134  0.1944  0.2528  0.8876
 1131TIP3    H227589   0.566   0.809  20.987 -2.6069 -2.1417  0.4584
 1132TIP3   OH227590   5.557   6.614  18.230 -0.3653 -0.1651  0.2636
 1132TIP3    H127591   5.608   6.598  18.150 -0.8682 -0.7781  0.0515
 1132TIP3    H227592   5.554   6.529  18.274 -0.7491 -0.0152  0.5360
 1133TIP3   OH227593   1.151   3.485  20.231 -0.2839  0.4596  0.4896
 1133TIP3    H127594   1.228   3.450  20.187 -0.3848  0.6445  0.1602
 1133TIP3    H227595   1.099   3.523  20.161 -2.1989 -2.4059  0.1710
 1134TIP3   OH227596   6.518   4.341  21.202  1.0263 -0.0758 -0.1582
 1134TIP3    H127597   6.463   4.304  21.272  1.6089  0.1820  0.4488
 1134TIP3    H227598   6.536   4.267  21.145 -1.3481  0.1661 -1.3426
 1135TIP3   OH227599   4.785   3.836  19.896  0.6228 -0.6488  0.4517
 1135TIP3    H127600   4.751   3.882  19.820 -1.1608 -0.1745  1.4866
 1135TIP3    H227601   4.840   3.766  19.860  0.1804 -0.1613 -1.2304
 1136TIP3   OH227602   5.805   5.929  18.698 -0.6573 -0.1071 -0.3724
 1136TIP3    H127603   5.792   5.872  18.622 -0.9845  0.2495 -0.5914
 1136TIP3    H227604   5.897   5.919  18.720 -0.5451 -0.1796 -0.8491
 1137TIP3   OH227605   0.594   2.015  18.753  0.4505 -0.4915 -0.3919
 1137TIP3    H127606   0.645   2.096  18.747  0.6706 -0.6945 -1.3616
 1137TIP3    H227607   0.525   2.035  18.817  0.5719  0.4284 -0.5372
 1138TIP3   OH227608   5.581   5.747  18.803 -0.3428  0.3312 -0.0327
 1138TIP3    H127609   5.655   5.807  18.810 -0.3692  0.5155 -1.1415
 1138TIP3    H227610   5.509   5.802  18.772 -0.7671  0.0201  0.3962
 1139TIP3   OH227611   6.575   0.272  20.621  0.2641 -0.1332  0.4889
 1139TIP3    H127612   6.643   0.215  20.657 -1.3693 -2.9389 -0.5355
 1139TIP3    H227613   6.503   0.213  20.601 -2.1094  2.5390  0.5337
 1140TIP3   OH227614   2.090   5.915  20.707  0.3249  1.0566 -0.1254
 1140TIP3    H127615   2.065   5.885  20.794 -0.3011 -0.4731 -0.8075
 1140TIP3    H227616   2.124   5.838  20.662 -0.1053  1.6187 -1.5006
 1141TIP3   OH227617   6.590   5.266  19.565 -0.1063  0.1584  0.2295
 1141TIP3    H127618   6.674   5.224  19.585  0.8073  0.4018 -2.6792
 1141TIP3    H227619   6.593   5.349  19.611 -0.2233 -1.1630  2.8065
 1142TIP3   OH227620   0.212   0.545  18.089  0.0632 -0.2232  0.5393
 1142TIP3    H127621   0.176   0.459  18.067 -3.3983  1.0606  0.6422
 1142TIP3    H227622   0.147   0.608  18.058  1.0219  2.2577  3.0970
 1143TIP3   OH227623   3.072   2.427  17.711 -0.2297  0.2437  0.0488
 1143TIP3    H127624   3.059   2.352  17.653 -1.0089  1.0517 -0.8587
 1143TIP3    H227625   3.135   2.482  17.665  1.0578 -0.2678  1.1433
 1144TIP3   OH227626   2.243   3.764  19.567 -0.3433  0.7666  0.1662
 1144TIP3    H127627   2.336   3.742  19.571 -0.3096  0.6102 -1.1816
 1144TIP3    H227628   2.201   3.702  19.627  0.2663 -0.0616 -0.2449
 1145TIP3   OH227629   0.547   5.610  19.008  0.2272 -0.1645  0.1246
 1145TIP3    H127630   0.595   5.550  19.066  1.6352 -0.0804 -0.8943
 1145TIP3    H227631   0.484   5.654  19.066 -1.3833 -3.0906  0.7688
 1146TIP3   OH227632   2.373   1.612  19.036 -0.5838  0.1156 -0.3760
 1146TIP3    H127633   2.281   1.589  19.019 -0.9772  0.6195  0.9053
 1146TIP3    H227634   2.389   1.580  19.125  0.6321 -0.3659 -0.7547
 1147TIP3   OH227635   3.112   1.418  18.010  0.1384  0.5472 -0.2434
 1147TIP3    H127636   3.052   1.460  18.071 -1.1428 -0.4835 -0.7644
 1147TIP3    H227637   3.154   1.349  18.062 -1.2402 -0.5912 -0.5755
 1148TIP3   OH227638   6.201   6.189  20.397  0.1664 -0.2267 -0.1840
 1148TIP3    H127639   6.285   6.219  20.433 -0.2788 -0.6187  1.2497
 1148TIP3    H227640   6.135   6.242  20.441 -0.4036 -0.6703 -0.4901
 1149TIP3   OH227641   0.534   3.374  20.537 -0.4536 -0.5378 -0.2212
 1149TIP3    H127642   0.543   3.330  20.452 -0.1118  1.1665 -1.1157
 1149TIP3    H227643   0.596   3.330  20.594 -0.0693 -1.1587 -1.1037
 1150TIP3   OH227644   4.070   1.904  20.582  0.1669  0.0386 -0.3593
 1150TIP3    H127645   4.002   1.908  20.649  0.0525 -0.0898 -0.4667
 1150TIP3    H227646   4.088   1.810  20.572  1.5237  0.1165  0.8525
 1151TIP3   OH227647   1.156   3.681  17.413  0.3297 -0.6654  0.6982
 1151TIP3    H127648   1.175   3.772  17.438  0.7596 -0.2822 -0.8925
 1151TIP3    H227649   1.241   3.643  17.393  0.1766 -1.5181  1.5823
 1152TIP3   OH227650   5.728   3.569  19.581  0.2224 -0.5867 -0.2215
 1152TIP3    H127651   5.677   3.621  19.643  0.3163 -0.4343 -0.2703
 1152TIP3    H227652   5.679   3.488  19.571 -0.2044 -0.2895 -0.5547
 1153TIP3   OH227653   2.138   4.759  20.538  0.5175  0.5309  0.0826
 1153TIP3    H127654   2.148   4.799  20.452  1.8169  0.2906  0.0937
 1153TIP3    H227655   2.074   4.814  20.583  0.0399  0.8271 -0.9313
 1154TIP3   OH227656   6.097   3.787  21.216 -0.2139  0.5836  0.4167
 1154TIP3    H127657   6.041   3.750  21.148 -0.5211  1.0418  0.4168
 1154TIP3    H227658   6.186   3.773  21.183 -0.3413  0.3406  0.1657
 1155TIP3   OH227659   5.770   0.436  20.829  0.2706 -0.1504  0.3158
 1155TIP3    H127660   5.827   0.482  20.891 -0.1223 -0.4335  0.8950
 1155TIP3    H227661   5.738   0.504  20.770  1.6944 -0.0745 -0.4234
 1156TIP3   OH227662   0.367   2.900  19.064 -0.4159  0.0500  0.1805
 1156TIP3    H127663   0.317   2.819  19.081 -1.7053  0.9099  0.6322
 1156TIP3    H227664   0.428   2.906  19.137  0.6091 -1.1703 -0.5281
 1157TIP3   OH227665   0.605   2.459  20.149  0.3048  0.2663  0.1203
 1157TIP3    H127666   0.611   2.438  20.056 -0.5850  2.0177 -0.3746
 1157TIP3    H227667   0.682   2.418  20.188  0.4396 -0.8978 -1.2888
 1158TIP3   OH227668   2.464   6.391  19.178 -0.3859 -0.2733 -0.0825
 1158TIP3    H127669   2.439   6.462  19.119  0.0868  0.6967  0.8577
 1158TIP3    H227670   2.560   6.386  19.170 -0.2795  0.1116  0.8555
 1159TIP3   OH227671   3.777   6.473  18.929  0.3202  0.4637  0.1965
 1159TIP3    H127672   3.870   6.455  18.939  1.0539  1.9321 -2.9105
 1159TIP3    H227673   3.740   6.393  18.892  0.5406  0.2428  0.4507
 1160TIP3   OH227674   0.158   1.646  19.558  0.2185  0.0193 -0.0257
 1160TIP3    H127675   0.169   1.726  19.609  0.3034  0.1873 -0.3023
 1160TIP3    H227676   0.097   1.593  19.609 -2.3038  1.5246 -1.2857
 1161TIP3   OH227677   4.221   5.271  18.337 -0.1065  0.5472 -0.0715
 1161TIP3    H127678   4.215   5.235  18.426 -2.6168  0.3599 -0.2433
 1161TIP3    H227679   4.223   5.193  18.280 -1.2001  0.6546 -0.2696
 1162TIP3   OH227680   1.206   4.987  21.130 -0.1303 -0.6540 -0.0285
 1162TIP3    H127681   1.262   4.945  21.064 -0.0893  0.5623 -0.8035
 1162TIP3    H227682   1.254   4.977  21.212  0.6691 -0.6479 -0.4864
 1163TIP3   OH227683   5.530   5.005  21.112  0.1564  0.4120 -0.2763
 1163TIP3    H127684   5.541   5.059  21.190  0.7685 -0.7598  0.4785
 1163TIP3    H227685   5.548   5.064  21.039 -1.0915  1.7096  0.4131
 1164TIP3   OH227686   0.162   0.991  19.448  0.4275 -0.1585  0.1124
 1164TIP3    H127687   0.123   0.985  19.361  1.9532 -0.2882 -0.5874
 1164TIP3    H227688   0.206   0.907  19.461 -0.1563 -0.3180  1.2209
 1165TIP3   OH227689   2.447   4.423  19.558  0.1901 -0.7465 -0.0776
 1165TIP3    H127690   2.528   4.408  19.607  0.0003 -1.4300  0.0363
 1165TIP3    H227691   2.427   4.338  19.518 -0.6109 -0.6578  0.1168
 1166TIP3   OH227692   2.759   0.882  20.672  0.2027 -0.5646  0.1110
 1166TIP3    H127693   2.839   0.908  20.627 -0.5330  0.8860 -0.4146
 1166TIP3    H227694   2.689   0.925  20.623 -1.0036 -2.5457 -0.0162
 1167TIP3   OH227695   3.696   0.848  18.002 -0.3380 -0.2469  0.0371
 1167TIP3    H127696   3.616   0.891  18.031 -0.8879  0.0461 -1.7577
 1167TIP3    H227697   3.756   0.921  17.983 -0.7953 -0.2799 -1.6965
 1168TIP3   OH227698   0.905   3.200  19.172 -0.4883 -0.5924 -0.6198
 1168TIP3    H127699   0.931   3.110  19.190 -2.6811 -0.8630  1.9227
 1168TIP3    H227700   0.964   3.253  19.225 -0.5512 -0.6770 -0.4657
 1169TIP3   OH227701   2.015   4.903  21.092  0.2546  0.5930 -0.1115
 1169TIP3    H127702   2.100   4.947  21.090 -0.1618  1.4874  0.7333
 1169TIP3    H227703   1.971   4.941  21.168 -0.3921 -0.8273  0.2539
 1170TIP3   OH227704   3.216   6.477  20.000 -0.8552 -0.0076 -0.8639
 1170TIP3    H127705   3.174   6.477  19.915 -2.0332  2.1665 -0.3545
 1170TIP3    H227706   3.278   6.550  19.997 -0.7221 -0.0654  0.0416
 1171TIP3   OH227707   3.897   2.687  17.895  0.0533 -0.1710 -0.2154
 1171TIP3    H127708   3.857   2.677  17.808  0.2015  0.7906 -0.4019
 1171TIP3    H227709   3.991   2.684  17.879  0.0801 -0.1523 -0.0674
 1172TIP3   OH227710   3.589   4.560  18.543 -0.4129  0.1508 -0.1126
 1172TIP3    H127711   3.525   4.600  18.484 -0.7304 -0.4185 -0.1619
 1172TIP3    H227712   3.589   4.617  18.620  0.6300  1.3840 -0.9831
 1173TIP3   OH227713   1.107   4.636  18.673  0.1019  0.2752 -0.6595
 1173TIP3    H127714   1.017   4.647  18.642 -0.3059 -1.3463 -0.1561
 1173TIP3    H227715   1.127   4.544  18.657  0.8184  0.0253  1.3510
 1174TIP3   OH227716   2.327   0.123  19.009 -0.5457  0.1376  0.2771
 1174TIP3    H127717   2.399   0.146  18.950 -0.4475  1.4962  0.8906
 1174TIP3    H227718   2.309   0.204  19.058 -0.5388 -0.9634  2.2018
 1175TIP3   OH227719   2.667   6.179  18.432 -0.2058 -0.1573  0.7374
 1175TIP3    H127720   2.747   6.185  18.381 -1.1641 -0.0322 -0.8001
 1175TIP3    H227721   2.627   6.096  18.405 -0.5525 -0.2730  1.5668
 1176TIP3   OH227722   4.293   6.466  18.461 -0.4279  0.3057  0.1650
 1176TIP3    H127723   4.246   6.524  18.401 -0.8002 -0.2778 -0.1266
 1176TIP3    H227724   4.336   6.524  18.523  0.8390  0.9703 -1.2905
 1177TIP3   OH227725   5.173   5.367  19.946  0.0803 -0.0339 -0.0661
 1177TIP3    H127726   5.142   5.301  20.007 -2.0987 -0.0243 -1.0594
 1177TIP3    H227727   5.184   5.320  19.863  0.8387  0.4003 -0.2270
 1178TIP3   OH227728   2.872   2.069  20.814  0.6872 -0.0906  0.2985
 1178TIP3    H127729   2.874   2.152  20.766 -0.3301 -0.4484 -0.3986
 1178TIP3    H227730   2.886   2.003  20.747  0.6834 -0.5342  0.7323
 1179TIP3   OH227731   5.547   4.394  21.300  0.9270 -0.3963 -0.0993
 1179TIP3    H127732   5.549   4.304  21.266  0.5482 -0.7324  0.7596
 1179TIP3    H227733   5.470   4.433  21.258  0.7431 -0.6600 -0.0121
 1180TIP3   OH227734   1.081   2.590  17.396 -0.1993 -0.5126 -0.4940
 1180TIP3    H127735   1.141   2.588  17.321  1.2519 -0.4685  0.6287
 1180TIP3    H227736   1.101   2.672  17.440 -0.7749 -0.7206  0.1593
 1181TIP3   OH227737   6.585   5.458  19.181 -0.0840  0.4504 -0.3086
 1181TIP3    H127738   6.636   5.506  19.115 -2.1056  2.5578 -0.4803
 1181TIP3    H227739   6.523   5.523  19.214 -0.2928 -1.0380  2.4473
 1182TIP3   OH227740   4.213   5.717  17.963 -0.3528 -0.2699 -0.2319
 1182TIP3    H127741   4.122   5.736  17.940 -0.8437 -0.9360  1.0477
 1182TIP3    H227742   4.209   5.634  18.011  0.6561  0.6561  1.5599
 1183TIP3   OH227743   3.544   5.229  19.713  0.2423  0.8717 -0.1708
 1183TIP3    H127744   3.571   5.147  19.672 -0.6911  1.3857 -1.8910
 1183TIP3    H227745   3.609   5.293  19.685 -1.4904  1.6772 -2.7028
 1184TIP3   OH227746   5.551   0.916  18.546  0.0995  0.2431 -0.1549
 1184TIP3    H127747   5.566   0.839  18.491  0.3517 -0.8901  1.4308
 1184TIP3    H227748   5.623   0.916  18.609  1.0909  2.8033 -1.1484
 1185TIP3   OH227749   3.032   4.279  19.959 -0.1320 -0.3666 -0.5873
 1185TIP3    H127750   3.004   4.236  19.878 -1.6368  1.5779 -1.1830
 1185TIP3    H227751   3.110   4.329  19.933  1.1726 -2.0454 -0.0684
 1186TIP3   OH227752   4.086   1.514  18.552 -0.4282 -0.0673  0.2442
 1186TIP3    H127753   4.071   1.572  18.627  1.2238 -0.1960  0.7030
 1186TIP3    H227754   4.128   1.569  18.487  0.5614 -0.5803  0.4345
 1187TIP3   OH227755   4.007   2.899  21.025 -0.4154 -0.1432  0.1919
 1187TIP3    H127756   4.015   2.967  20.959 -0.3586  0.3562  0.7007
 1187TIP3    H227757   4.094   2.859  21.030 -0.0382  0.7173  0.8982
 1188TIP3   OH227758   4.646   5.071  17.771 -0.2601  0.4740 -0.3935
 1188TIP3    H127759   4.631   4.977  17.765 -0.4203  0.3121  1.6932
 1188TIP3    H227760   4.742   5.079  17.779 -0.3646  0.2471  1.7256
 1189TIP3   OH227761   6.361   4.772  20.866 -0.3327  0.6282  0.3994
 1189TIP3    H127762   6.281   4.719  20.862 -0.3616  0.7634 -1.6469
 1189TIP3    H227763   6.415   4.729  20.932 -0.1839 -2.2743 -1.4518
 1190TIP3   OH227764   0.288   0.939  18.818  0.4438 -0.1903 -0.0959
 1190TIP3    H127765   0.327   0.853  18.802  0.0450 -0.3793 -0.0682
 1190TIP3    H227766   0.204   0.936  18.772 -0.5344 -0.5854  1.6343
 1191TIP3   OH227767   3.887   4.955  20.918  0.4070  0.4258 -0.1321
 1191TIP3    H127768   3.956   5.021  20.921 -0.2371  1.0873  1.4493
 1191TIP3    H227769   3.806   5.004  20.933 -0.1524 -0.6288  0.4244
 1192TIP3   OH227770   4.581   2.141  20.823 -0.6932 -0.1571  0.0046
 1192TIP3    H127771   4.659   2.110  20.776  0.6070  3.1421 -0.2521
 1192TIP3    H227772   4.508   2.117  20.765  0.0483 -3.1587  0.1625
 1193TIP3   OH227773   4.567   1.152  20.126 -0.1789 -0.0077  0.5437
 1193TIP3    H127774   4.521   1.118  20.049  0.3972 -0.6137  0.4596
 1193TIP3    H227775   4.649   1.188  20.091  1.0161 -2.0541  1.0581
 1194TIP3   OH227776   2.342   4.548  19.271 -0.2574  0.5801  0.1809
 1194TIP3    H127777   2.311   4.557  19.361 -1.0469  0.3406 -0.0568
 1194TIP3    H227778   2.262   4.538  19.219  0.2397 -0.9678 -0.3591
 1195TIP3   OH227779   4.613   6.686  20.880  0.0422  0.0789 -0.6465
 1195TIP3    H127780   4.700   6.689  20.840  0.1029 -0.8483 -0.5871
 1195TIP3    H227781   4.568   6.763  20.845  1.1770  1.0887  0.0088
 1196TIP3   OH227782   3.397   2.983  18.776 -0.3552  0.3833  0.3535
 1196TIP3    H127783   3.383   2.997  18.682  1.5371 -0.5982 -0.1320
 1196TIP3    H227784   3.342   2.909  18.798  0.4672 -0.4797 -0.4051
 1197TIP3   OH227785   4.355   0.774  20.618 -0.0533  0.1470 -0.2040
 1197TIP3    H127786   4.450   0.781  20.616 -0.0907  0.5826 -0.9873
 1197TIP3    H227787   4.324   0.863  20.605 -0.5791  0.1739  1.1185
 1198TIP3   OH227788   6.453   5.538  20.636  0.0874  0.0151  0.0408
 1198TIP3    H127789   6.363   5.525  20.605  0.5860 -1.3090 -0.9434
 1198TIP3    H227790   6.456   5.491  20.719  0.0673 -0.6236 -0.3096
 1199TIP3   OH227791   2.707   1.484  19.200 -0.2537  0.2149 -0.2906
 1199TIP3    H127792   2.623   1.438  19.206 -0.0953  0.1259  1.7666
 1199TIP3    H227793   2.697   1.540  19.123 -2.0573 -0.0702 -0.3156
 1200TIP3   OH227794   4.357   2.073  17.950  0.3349 -0.1851  0.4214
 1200TIP3    H127795   4.268   2.039  17.957  1.0967 -2.6510 -0.6498
 1200TIP3    H227796   4.411   1.996  17.938  2.8867  1.0929  2.7154
 1201TIP3   OH227797   1.850   0.320  18.877  0.1980 -0.1365  0.3194
 1201TIP3    H127798   1.781   0.385  18.861  1.1795  1.0276  0.6333
 1201TIP3    H227799   1.931   0.369  18.865  0.9804 -0.8414  2.2828
 1202TIP3   OH227800   2.823   1.038  18.510  0.0832 -0.4510 -0.2575
 1202TIP3    H127801   2.824   1.096  18.586  0.6472 -0.6751 -0.0908
 1202TIP3    H227802   2.910   0.999  18.508  0.4252  0.3553 -1.6565
 1203TIP3   OH227803   3.710   6.130  20.763  0.0686  0.0162 -0.1868
 1203TIP3    H127804   3.788   6.169  20.724 -0.9910  2.3404 -0.1033
 1203TIP3    H227805   3.638   6.159  20.708 -1.0752  0.4497  1.4619
 1204TIP3   OH227806   5.183   5.136  19.141  0.0502  0.1062  0.0843
 1204TIP3    H127807   5.185   5.172  19.052 -1.3698  0.1789  0.0604
 1204TIP3    H227808   5.223   5.204  19.196 -2.0933  1.5530 -0.0369
 1205TIP3   OH227809   2.659   0.516  20.347 -0.2794 -0.4331 -0.1463
 1205TIP3    H127810   2.735   0.477  20.390  1.0398  0.0892 -1.8751
 1205TIP3    H227811   2.678   0.508  20.253 -1.9758  0.4798 -0.6081
 1206TIP3   OH227812   5.011   6.370  18.458 -0.7476 -0.7127  0.4784
 1206TIP3    H127813   4.929   6.420  18.459 -1.7204 -2.1305 -1.1348
 1206TIP3    H227814   5.060   6.406  18.384 -0.7130 -1.0192  0.3473
 1207TIP3   OH227815   4.528   5.994  20.352  0.0764  0.1913  0.0775
 1207TIP3    H127816   4.519   5.940  20.274  0.7959 -0.9942  0.7817
 1207TIP3    H227817   4.552   6.081  20.319  0.1155 -0.2229 -1.0199
 1208TIP3   OH227818   4.170   4.831  18.955  0.2681  0.4639  0.3516
 1208TIP3    H127819   4.112   4.795  18.888  0.6717 -2.5415  1.4580
 1208TIP3    H227820   4.113   4.884  19.010 -0.8312 -0.0690 -0.2384
 1209TIP3   OH227821   4.886   2.337  20.699  0.9268  0.1897 -0.2223
 1209TIP3    H127822   4.824   2.353  20.628 -0.5776 -1.6796  0.5916
 1209TIP3    H227823   4.907   2.243  20.692  2.5073  0.4646  0.4381
 1210TIP3   OH227824   0.517   2.208  20.566 -0.5817 -0.1592 -0.2306
 1210TIP3    H127825   0.432   2.174  20.540  0.4822 -1.0301 -2.9519
 1210TIP3    H227826   0.573   2.130  20.572  0.0563  0.3998  1.4456
 1211TIP3   OH227827   2.870   3.514  19.588  0.2768  0.0520  0.4608
 1211TIP3    H127828   2.825   3.598  19.596  0.4968  0.3506 -1.0920
 1211TIP3    H227829   2.926   3.508  19.665  0.0987  1.2364  0.6858
 1212TIP3   OH227830   3.327   1.757  19.449 -0.0423 -1.0506 -0.1294
 1212TIP3    H127831   3.274   1.815  19.504  2.5510 -1.2388  2.9177
 1212TIP3    H227832   3.293   1.670  19.466 -0.8598 -0.8808 -0.8628
 1213TIP3   OH227833   4.167   0.901  18.028  0.1558  0.0172  0.2177
 1213TIP3    H127834   4.256   0.925  18.053  1.0372 -0.9557 -1.8308
 1213TIP3    H227835   4.154   0.939  17.942 -0.5240 -1.7890 -0.5414
 1214TIP3   OH227836   1.458   0.816  19.774  0.0962 -0.0651  0.2038
 1214TIP3    H127837   1.493   0.727  19.784 -2.1036 -0.8241  2.5232
 1214TIP3    H227838   1.461   0.852  19.863 -2.2465  0.8267 -0.0140
 1215TIP3   OH227839   2.238   1.610  18.212 -0.7489 -0.1349 -0.0869
 1215TIP3    H127840   2.155   1.577  18.176 -0.2281 -1.8315  0.1708
 1215TIP3    H227841   2.286   1.641  18.136 -0.5438 -1.6598 -0.6063
 1216TIP3   OH227842   3.091   4.254  18.901 -0.0013 -0.5056  0.8227
 1216TIP3    H127843   3.081   4.183  18.837 -0.1148  1.2297 -1.2015
 1216TIP3    H227844   3.012   4.307  18.889  1.1856  1.2659  0.5431
 1217TIP3   OH227845   4.483   2.825  19.402  0.3929  0.2993  0.1992
 1217TIP3    H127846   4.459   2.906  19.445  0.6932  0.0563  0.8435
 1217TIP3    H227847   4.575   2.812  19.424 -0.1022 -1.1345  1.6525
 1218TIP3   OH227848   4.642   4.253  19.163 -0.0469 -0.2871 -0.2087
 1218TIP3    H127849   4.720   4.299  19.131  0.3272 -0.9876 -0.3063
 1218TIP3    H227850   4.676   4.181  19.216 -0.6416  0.6909  1.5922
 1219TIP3   OH227851   5.014   3.812  18.296 -0.4796 -0.3120  0.3239
 1219TIP3    H127852   4.991   3.845  18.209 -1.4334  2.4094  1.4698
 1219TIP3    H227853   5.093   3.859  18.320  0.1987 -1.5879  0.6637
 1220TIP3   OH227854   0.550   4.130  20.621 -0.0973  0.3231 -0.3692
 1220TIP3    H127855   0.560   4.140  20.526 -1.2576  3.1258 -0.2820
 1220TIP3    H227856   0.535   4.219  20.653 -0.7233 -0.6707  2.3354
 1221TIP3   OH227857   1.775   0.322  20.832  0.4076  0.1150 -0.1350
 1221TIP3    H127858   1.695   0.359  20.794  0.6472  0.6586 -0.1064
 1221TIP3    H227859   1.839   0.325  20.761  0.2064 -0.9997 -0.3880
 1222TIP3   OH227860   4.373   1.213  20.310  0.1398  0.8273 -0.0722
 1222TIP3    H127861   4.440   1.200  20.243 -0.2350  1.5727 -0.6213
 1222TIP3    H227862   4.296   1.166  20.276  0.1486  0.6469  0.1614
 1223TIP3   OH227863   5.092   6.053  20.775  0.5432 -0.1250  0.0550
 1223TIP3    H127864   5.113   6.125  20.716 -0.4126  0.3259  0.2339
 1223TIP3    H227865   4.996   6.049  20.775  0.3727  1.2087  3.0742
 1224TIP3   OH227866   1.071   0.972  18.697 -0.5516  0.2034  0.1849
 1224TIP3    H127867   1.018   0.967  18.777 -0.0390  1.8555  0.6595
 1224TIP3    H227868   1.032   0.906  18.640 -2.6734  0.8278  0.7920
 1225TIP3   OH227869   6.172   5.472  18.838  0.1086  0.3292  0.2197
 1225TIP3    H127870   6.095   5.419  18.858 -0.5209  1.6413  1.4085
 1225TIP3    H227871   6.223   5.473  18.919  0.7967  0.4201 -0.2063
 1226TIP3   OH227872   5.654   6.039  20.443  0.0916 -0.6873 -0.1374
 1226TIP3    H127873   5.737   6.073  20.410 -0.9403  1.1404 -1.0494
 1226TIP3    H227874   5.597   6.116  20.448 -0.8769 -1.4645  2.7349
 1227TIP3   OH227875   3.496   1.282  20.046  0.9127 -0.1204  0.1651
 1227TIP3    H127876   3.474   1.329  19.965 -0.0500 -0.0183  0.4710
 1227TIP3    H227877   3.590   1.268  20.040  1.1076  1.1849 -0.2966
 1228TIP3   OH227878   6.666   2.384  18.930 -0.0624  0.8632  0.6556
 1228TIP3    H127879   6.742   2.337  18.967 -1.7346 -1.4837  1.3548
 1228TIP3    H227880   6.616   2.316  18.884 -0.4950  2.8354 -2.0020
 1229TIP3   OH227881   0.895   0.584  18.766  0.5074  0.4598 -0.0292
 1229TIP3    H127882   0.960   0.561  18.832  1.3300 -0.4137 -1.0909
 1229TIP3    H227883   0.936   0.560  18.683 -1.7792 -1.6914 -0.6538
 1230TIP3   OH227884   1.442   0.059  19.069  0.4312  0.0664 -0.4553
 1230TIP3    H127885   1.503   0.093  19.134 -1.5669  0.7101  1.2193
 1230TIP3    H227886   1.446  -0.036  19.081 -2.2238  0.1567  3.1862
 1231TIP3   OH227887   4.571   0.662  20.262 -0.4551  0.5130  0.0883
 1231TIP3    H127888   4.632   0.597  20.227 -1.8000 -0.2866 -0.8690
 1231TIP3    H227889   4.605   0.746  20.232 -1.3748 -0.1022 -3.0466
 1232TIP3   OH227890   3.187   1.509  19.008 -0.7097  0.3084 -0.2385
 1232TIP3    H127891   3.208   1.420  19.037  0.8192  1.1566  1.4586
 1232TIP3    H227892   3.254   1.530  18.943  0.3330  0.9497  0.9779
 1233TIP3   OH227893   3.902   3.357  20.783  0.0176 -0.0809  0.0643
 1233TIP3    H127894   3.947   3.383  20.863 -0.1213 -0.6262  0.3243
 1233TIP3    H227895   3.936   3.269  20.764 -0.0353 -0.0021 -0.4113
 1234TIP3   OH227896   2.714   3.700  20.660  0.2477  0.1871  0.1247
 1234TIP3    H127897   2.729   3.704  20.565 -0.1087 -0.2759  0.0444
 1234TIP3    H227898   2.664   3.619  20.673 -0.6618  0.8048  0.5729
 1235TIP3   OH227899   5.891   1.845  18.159  0.8253  0.2248  0.7504
 1235TIP3    H127900   5.844   1.878  18.083  3.1597  1.1612 -0.3915
 1235TIP3    H227901   5.833   1.779  18.196 -0.8873  0.5486 -1.1586
 1236TIP3   OH227902   3.412   0.260  17.690  0.8011 -0.3716 -0.1836
 1236TIP3    H127903   3.355   0.310  17.748  0.8800 -1.1139  0.5550
 1236TIP3    H227904   3.404   0.170  17.721  2.2205 -0.5181 -0.1958
 1237TIP3   OH227905   0.553   2.979  19.306 -0.5041  0.1537 -0.7153
 1237TIP3    H127906   0.616   2.923  19.260 -0.3156 -1.0686  0.9328
 1237TIP3    H227907   0.537   2.934  19.389  0.1235  2.8565  1.0091
 1238TIP3   OH227908   6.144   2.981  19.686 -0.2330  0.7923 -0.3937
 1238TIP3    H127909   6.196   2.916  19.638  0.6979  0.6300  0.7831
 1238TIP3    H227910   6.207   3.047  19.713 -0.9073  1.3821 -0.2346
 1239TIP3   OH227911   0.384   4.814  20.736  0.3203 -0.5215  0.1140
 1239TIP3    H127912   0.353   4.789  20.822  1.0504 -1.7797  0.0393
 1239TIP3    H227913   0.443   4.888  20.752  0.7259 -0.9726  0.7339
 1240TIP3   OH227914   3.496   0.372  17.467 -0.2762 -0.4316 -0.3582
 1240TIP3    H127915   3.587   0.347  17.481 -0.5504 -1.0649  0.3138
 1240TIP3    H227916   3.449   0.339  17.543 -0.7867  1.4561  0.2020
 1241TIP3   OH227917   3.954   0.008  18.666 -0.4326  0.3567 -0.4228
 1241TIP3    H127918   4.038   0.044  18.693  0.3678 -1.7755  0.1185
 1241TIP3    H227919   3.923  -0.042  18.742 -1.8523  0.5275 -0.8521
 1242TIP3   OH227920   3.045   4.904  20.141 -0.0983  0.3867 -0.0962
 1242TIP3    H127921   3.134   4.896  20.174 -0.1287 -1.4741 -0.3579
 1242TIP3    H227922   3.027   4.998  20.143  1.9428  0.8257 -0.2574
 1243TIP3   OH227923   2.392   1.596  20.164 -0.6040  0.2049 -0.5873
 1243TIP3    H127924   2.353   1.514  20.133  1.2969 -0.3991 -1.5038
 1243TIP3    H227925   2.453   1.621  20.095  1.5107  0.4747  1.2728
 1244TIP3   OH227926   3.965   4.723  18.650 -0.0498 -0.1282  0.4771
 1244TIP3    H127927   4.003   4.653  18.704 -0.8327 -0.2499  0.8904
 1244TIP3    H227928   3.872   4.699  18.643 -0.1096  0.3055 -0.2784
 1245TIP3   OH227929   6.346   5.713  19.903  0.4021 -0.2694  0.2653
 1245TIP3    H127930   6.333   5.792  19.851  1.5194  0.7158  1.3990
 1245TIP3    H227931   6.316   5.737  19.991  0.3901 -1.2266  0.5384
 1246TIP3   OH227932   0.214   3.364  18.788 -0.1099 -0.1481 -0.9611
 1246TIP3    H127933   0.220   3.394  18.697  0.2607  0.7577 -0.6543
 1246TIP3    H227934   0.141   3.414  18.825 -1.4413 -1.8168 -1.2185
 1247TIP3   OH227935   1.666   2.016  19.631 -0.3517 -0.3747  0.2055
 1247TIP3    H127936   1.674   1.922  19.610  0.1713 -0.7877  2.1136
 1247TIP3    H227937   1.754   2.042  19.657 -0.4004  0.7841 -0.6828
 1248TIP3   OH227938   0.236   3.495  17.971  0.3515  0.1166 -0.2799
 1248TIP3    H127939   0.159   3.450  17.935 -0.0450  1.7793 -1.6328
 1248TIP3    H227940   0.303   3.427  17.977 -0.7958 -1.0687 -0.3724
 1249TIP3   OH227941   4.931   3.609  20.205  0.5156  0.3086 -0.2336
 1249TIP3    H127942   5.022   3.579  20.210  0.0371 -0.9759  1.6088
 1249TIP3    H227943   4.937   3.696  20.165  2.3346 -0.5645 -2.0928
 1250TIP3   OH227944   6.495   5.502  19.929  0.1629 -0.2445  0.0230
 1250TIP3    H127945   6.582   5.536  19.908 -0.0549 -0.1867 -0.8461
 1250TIP3    H227946   6.439   5.579  19.926  0.1068 -0.2432  0.8112
 1251TIP3   OH227947   3.216   1.492  19.466 -0.5454 -0.4338  0.2984
 1251TIP3    H127948   3.152   1.527  19.405 -0.1323 -0.5810 -0.2251
 1251TIP3    H227949   3.275   1.439  19.413 -0.4622 -0.9635  0.8992
 1252TIP3   OH227950   1.013   3.289  20.007  0.3453 -0.1427  0.3359
 1252TIP3    H127951   0.940   3.332  19.963  1.0086  0.6616  0.0057
 1252TIP3    H227952   1.061   3.245  19.937 -0.9976 -2.5323  0.7877
 1253TIP3   OH227953   4.426   3.204  18.690  0.2218  0.3755  0.4648
 1253TIP3    H127954   4.482   3.281  18.697  1.2320 -0.2594 -0.3741
 1253TIP3    H227955   4.355   3.232  18.632 -0.3304  1.1673  1.4929
 1254TIP3   OH227956   1.633   2.095  21.166 -0.2549 -0.1892  0.6174
 1254TIP3    H127957   1.603   2.106  21.256 -0.4968  2.2836  0.3110
 1254TIP3    H227958   1.583   2.160  21.116 -0.0773 -1.4459 -1.2983
 1255TIP3   OH227959   2.249   2.846  19.195  0.3792 -0.0249  0.1108
 1255TIP3    H127960   2.164   2.820  19.232  1.4319 -1.2398  1.7844
 1255TIP3    H227961   2.234   2.847  19.101 -1.5013 -0.2141  0.3591
 1256TIP3   OH227962   3.860   4.463  21.097  0.1077  0.3205  0.1162
 1256TIP3    H127963   3.955   4.470  21.094  0.1743 -0.4482  0.0897
 1256TIP3    H227964   3.839   4.462  21.191  0.1403  0.2920  0.1228
 1257TIP3   OH227965   2.076   3.537  19.632 -0.0116  0.1300  0.3749
 1257TIP3    H127966   2.068   3.523  19.726 -1.2119  0.5957  0.3611
 1257TIP3    H227967   2.031   3.461  19.593  0.7099 -0.1960  0.1712
 1258TIP3   OH227968   3.057   5.461  19.526 -0.3082 -0.8578  0.4139
 1258TIP3    H127969   3.004   5.453  19.606  0.1186 -0.9072  0.6977
 1258TIP3    H227970   3.143   5.425  19.551  0.0619 -0.1695  0.1566
 1259TIP3   OH227971   0.146   4.936  18.386 -0.1450  0.0595 -0.9247
 1259TIP3    H127972   0.195   4.917  18.466 -2.6325 -0.5623  0.5526
 1259TIP3    H227973   0.121   4.850  18.352 -1.1512  0.3611 -0.9866
 1260TIP3   OH227974   4.207   5.654  19.377 -0.4583 -0.1570  0.3856
 1260TIP3    H127975   4.204   5.749  19.392 -0.8179 -0.2643  1.0313
 1260TIP3    H227976   4.300   5.634  19.370 -0.3895  0.2993 -0.1721
 1261TIP3   OH227977   1.945   0.958  19.214 -0.2932  0.2130  0.6315
 1261TIP3    H127978   2.008   0.902  19.168 -0.3352 -0.1579  1.0158
 1261TIP3    H227979   1.988   0.978  19.298  0.4907  2.2313 -0.2050
 1262TIP3   OH227980   0.153   3.628  21.033  0.1236  0.5560 -0.2454
 1262TIP3    H127981   0.096   3.704  21.021 -3.0932 -1.4090  1.4085
 1262TIP3    H227982   0.157   3.616  21.128 -0.2275 -1.8354 -0.4880
 1263TIP3   OH227983   5.648   2.673  19.875  0.0569  0.1661  0.1825
 1263TIP3    H127984   5.631   2.641  19.787 -0.1506  0.5077  0.1016
 1263TIP3    H227985   5.719   2.736  19.865 -0.9784  1.3453  0.0459
 1264TIP3   OH227986   2.818   2.667  19.091  0.3203  0.0036 -0.3898
 1264TIP3    H127987   2.723   2.678  19.088  0.2129 -0.9155 -0.5938
 1264TIP3    H227988   2.851   2.753  19.117 -0.4905  0.6472 -1.4104
 1265TIP3   OH227989   4.506   3.393  20.733 -0.0763 -0.3193 -0.1775
 1265TIP3    H127990   4.492   3.486  20.753  1.3278 -0.1969  0.3917
 1265TIP3    H227991   4.594   3.390  20.695  0.9129 -1.6598  1.9796
 1266TIP3   OH227992   4.683   2.634  19.204  0.2104 -0.1399  0.7026
 1266TIP3    H127993   4.591   2.648  19.228 -0.1782  0.2739 -0.9088
 1266TIP3    H227994   4.712   2.719  19.170  0.9942 -0.4423  0.5985
 1267TIP3   OH227995   1.827   4.504  20.781 -0.8251 -0.1983  0.2266
 1267TIP3    H127996   1.764   4.517  20.710 -0.3732 -0.7855 -0.2896
 1267TIP3    H227997   1.849   4.593  20.809 -1.8675  0.0208  0.4129
 1268TIP3   OH227998   5.020   6.651  20.184  0.9886 -0.2038 -0.6210
 1268TIP3    H127999   5.078   6.705  20.131 -0.5859  1.2680 -0.9537
 1268TIP3    H228000   5.031   6.683  20.273 -0.5252  1.2954 -0.9300
 1269TIP3   OH228001   1.438   3.706  17.379 -0.4963 -0.2451 -0.0495
 1269TIP3    H128002   1.446   3.741  17.468  0.4040  0.0479 -0.2356
 1269TIP3    H228003   1.496   3.760  17.327  0.0360 -1.2904 -0.5676
 1270TIP3   OH228004   5.549   2.351  18.742 -0.0232  0.0411 -0.0081
 1270TIP3    H128005   5.585   2.431  18.703 -1.8276  0.2239 -1.4235
 1270TIP3    H228006   5.578   2.281  18.684 -2.1911  0.2446 -1.4628
 1271TIP3   OH228007   3.394   5.813  20.535 -1.0585 -0.2430 -0.6129
 1271TIP3    H128008   3.477   5.782  20.499 -0.7970 -1.3754  0.8707
 1271TIP3    H228009   3.334   5.814  20.460  0.1005 -0.0950 -1.5641
 1272TIP3   OH228010   4.471   0.817  19.811  0.2364  0.3834  0.1591
 1272TIP3    H128011   4.398   0.805  19.751  0.3935  1.0699 -0.1795
 1272TIP3    H228012   4.533   0.748  19.789  0.8099  1.3095 -1.2645
 1273TIP3   OH228013   3.088   3.234  19.521 -0.9457 -0.0325 -0.2555
 1273TIP3    H128014   3.060   3.232  19.429 -0.0551 -0.4959 -0.5315
 1273TIP3    H228015   3.154   3.303  19.524 -1.6814  0.6684  0.2681
 1274TIP3   OH228016   2.102   1.564  19.034  0.1838  0.2908 -0.4135
 1274TIP3    H128017   2.106   1.473  19.065 -2.9128  0.7163  1.6013
 1274TIP3    H228018   2.054   1.559  18.951 -1.0903  0.1475  0.3064
 1275TIP3   OH228019   2.453   5.447  19.503 -0.5182 -0.0260  0.1281
 1275TIP3    H128020   2.389   5.397  19.554  0.1477 -1.3580 -0.3199
 1275TIP3    H228021   2.424   5.436  19.412  0.7462 -1.2748 -0.1540
 1276TIP3   OH228022   6.402   2.564  19.671  0.2343 -0.0115  1.0817
 1276TIP3    H128023   6.339   2.529  19.608  0.0587  2.3725 -0.2026
 1276TIP3    H228024   6.393   2.508  19.748 -0.8200 -1.9574 -0.3613
 1277TIP3   OH228025   0.657   6.548  21.267 -0.2645 -0.1062  0.2855
 1277TIP3    H128026   0.656   6.464  21.312  3.2613 -0.9614 -0.9049
 1277TIP3    H228027   0.626   6.528  21.178 -0.5804  0.1357  0.3381
 1278TIP3   OH228028   1.098   5.664  20.538  0.4178  0.2087  0.5977
 1278TIP3    H128029   1.110   5.757  20.517 -0.5635  0.5693  1.5433
 1278TIP3    H228030   1.187   5.630  20.546  0.7996  0.8395 -0.6570
 1279TIP3   OH228031   0.821   4.699  20.090  0.0340  0.4630 -0.0533
 1279TIP3    H128032   0.801   4.607  20.111  0.5610  0.1711 -0.7823
 1279TIP3    H228033   0.737   4.735  20.062 -0.0084 -0.0410 -0.6030
 1280TIP3   OH228034   6.326   5.915  19.044  0.4181  0.5017  0.4773
 1280TIP3    H128035   6.256   5.968  19.081 -0.0499 -0.0306  0.3732
 1280TIP3    H228036   6.287   5.828  19.034  0.4137  0.6971 -1.5843
 1281TIP3   OH228037   1.055   1.293  20.728  0.7231  0.0566  0.0018
 1281TIP3    H128038   1.145   1.274  20.753  0.2031 -3.6335 -0.2891
 1281TIP3    H228039   1.023   1.354  20.794  3.1899  0.9128  0.4934
 1282TIP3   OH228040   5.818   5.125  19.031 -0.4561  0.7624  0.3431
 1282TIP3    H128041   5.780   5.110  19.117 -0.9437 -0.4011 -0.0603
 1282TIP3    H228042   5.773   5.063  18.973 -0.5238  1.8878 -0.8576
 1283TIP3   OH228043   4.755   4.387  20.333  0.5639  0.1162 -0.2250
 1283TIP3    H128044   4.719   4.455  20.390  0.8600  0.8072 -0.8552
 1283TIP3    H228045   4.680   4.330  20.313  0.3508  0.1567  0.4337
 1284TIP3   OH228046   2.703   5.894  19.585 -0.1710 -0.3134  0.1709
 1284TIP3    H128047   2.732   5.908  19.494  0.8988 -1.3226  0.3360
 1284TIP3    H228048   2.619   5.849  19.576 -0.2210 -0.1355 -0.3130
 1285TIP3   OH228049   0.916   1.598  19.116 -0.6081 -0.7875 -0.4905
 1285TIP3    H128050   0.962   1.577  19.035  0.5709 -2.8041  0.6269
 1285TIP3    H228051   0.835   1.547  19.111  0.5342 -2.8051  0.5662
 1286TIP3   OH228052   5.504   2.772  18.207 -0.3191  0.9030 -0.4131
 1286TIP3    H128053   5.457   2.731  18.135  0.4998 -0.9771  0.0631
 1286TIP3    H228054   5.435   2.803  18.266 -0.9706  1.3336 -1.3764
 1287TIP3   OH228055   5.371   0.095  20.588 -0.6457  0.3587 -0.1289
 1287TIP3    H128056   5.431   0.030  20.625  0.9242  1.8235 -0.0268
 1287TIP3    H228057   5.291   0.086  20.641 -1.4139 -3.0674 -1.6039
 1288TIP3   OH228058   3.403   4.668  20.302  0.4861  0.5006 -0.0539
 1288TIP3    H128059   3.427   4.577  20.287  0.8266  0.8018 -1.4091
 1288TIP3    H228060   3.354   4.666  20.385  0.0840 -0.9720 -0.2931
 1289TIP3   OH228061   2.319   5.326  18.746  0.2809 -0.2528  0.1878
 1289TIP3    H128062   2.311   5.342  18.652 -0.4488  2.1152  0.5983
 1289TIP3    H228063   2.413   5.331  18.763  0.3124  0.7174 -0.2173
 1290TIP3   OH228064   3.533   2.596  20.615  0.4103  0.4487  0.4713
 1290TIP3    H128065   3.454   2.603  20.562 -0.8080  1.8748  2.3464
 1290TIP3    H228066   3.604   2.624  20.557 -0.3308 -1.1849 -1.3577
 1291TIP3   OH228067   3.701   3.786  20.339 -0.0448 -0.3174  0.2064
 1291TIP3    H128068   3.715   3.700  20.378  0.8564  0.0154  0.6366
 1291TIP3    H228069   3.765   3.791  20.268 -1.3809 -0.7480 -1.0673
 1292TIP3   OH228070   1.109   6.446  21.274  0.5498  0.2208  0.5089
 1292TIP3    H128071   1.104   6.539  21.296 -0.6265 -0.0251  1.4150
 1292TIP3    H228072   1.055   6.437  21.195 -1.8191 -0.0966  2.0517
 1293TIP3   OH228073   6.074   0.832  20.325 -0.2105  0.1502  0.5389
 1293TIP3    H128074   6.057   0.739  20.312 -1.6581  0.1465  2.0891
 1293TIP3    H228075   6.016   0.876  20.264  2.8073  0.1389 -2.6614
 1294TIP3   OH228076   3.609   4.993  20.568  0.6239  0.9326  0.0540
 1294TIP3    H128077   3.597   4.898  20.581  0.4671  1.0459  0.7611
 1294TIP3    H228078   3.684   5.015  20.623  1.7471  0.9291 -1.3969
 1295TIP3   OH228079   1.722   2.104  19.111 -0.6933 -0.3839  0.6898
 1295TIP3    H128080   1.657   2.171  19.088  1.4335  2.0798  1.3649
 1295TIP3    H228081   1.699   2.079  19.200 -1.0000  0.1015  0.7550
 1296TIP3   OH228082   2.963   6.446  18.465 -0.0756 -0.4398  0.4626
 1296TIP3    H128083   2.911   6.478  18.539  1.6845  2.8403  0.4565
 1296TIP3    H228084   2.915   6.476  18.388  0.0589 -0.4432  0.3773
 1297TIP3   OH228085   3.733   5.593  18.277 -0.0417 -0.0879  0.5905
 1297TIP3    H128086   3.742   5.628  18.188 -1.7171 -2.1050 -0.4748
 1297TIP3    H228087   3.809   5.536  18.288  0.8038  1.0762  0.9580
 1298TIP3   OH228088   5.793   3.711  20.876  0.4713  0.6060 -0.1003
 1298TIP3    H128089   5.864   3.686  20.934 -0.7361 -1.1273  0.6931
 1298TIP3    H228090   5.807   3.659  20.797 -0.0486  0.0276  0.1756
 1299TIP3   OH228091   0.832   5.210  19.932 -0.3583 -0.6401 -0.0303
 1299TIP3    H128092   0.785   5.199  19.850 -1.2700  0.4761  0.3189
 1299TIP3    H228093   0.911   5.257  19.909 -0.2769 -0.9456 -0.3717
 1300TIP3   OH228094   1.754   1.775  19.534  0.2977  0.1479  0.7572
 1300TIP3    H128095   1.797   1.732  19.608  1.9832 -1.5581 -1.0876
 1300TIP3    H228096   1.723   1.703  19.480 -0.6960  1.3451 -0.3202
 1301TIP3   OH228097   5.248   0.449  18.862  0.6177  0.2779 -0.3628
 1301TIP3    H128098   5.268   0.361  18.829 -1.6397 -0.0648 -0.9568
 1301TIP3    H228099   5.228   0.499  18.783 -0.8283  0.5570  0.1612
 1302TIP3   OH228100   4.967   3.256  18.301  0.2994  0.2381 -0.3948
 1302TIP3    H128101   5.031   3.238  18.369 -0.9592 -0.6040  0.6212
 1302TIP3    H228102   4.889   3.208  18.329 -0.5274  0.6035 -1.9821
 1303TIP3   OH228103   2.603   5.621  19.712 -0.4724 -0.0231 -0.3906
 1303TIP3    H128104   2.644   5.590  19.632  0.0093  0.7794 -0.4720
 1303TIP3    H228105   2.670   5.675  19.754 -1.1319  0.5608 -0.0650
 1304TIP3   OH228106   2.700   2.994  19.673 -0.3798 -0.0775  0.0678
 1304TIP3    H128107   2.762   3.063  19.648 -0.0324 -0.1148  0.7945
 1304TIP3    H228108   2.748   2.940  19.736 -0.5883 -1.0883 -0.6104
 1305TIP3   OH228109   1.253   5.091  20.180  0.3999 -0.2955  0.2259
 1305TIP3    H128110   1.191   5.105  20.252  0.4534 -0.4412  0.3012
 1305TIP3    H228111   1.322   5.156  20.193  1.1652 -1.2516  1.1515
 1306TIP3   OH228112   3.612   0.969  20.032 -0.3535 -0.2415  0.0789
 1306TIP3    H128113   3.530   1.014  20.011  0.2756  0.7719 -0.3085
 1306TIP3    H228114   3.680   1.035  20.016  0.4883 -0.8313  1.0927
 1307TIP3   OH228115   1.711   2.341  20.621  0.0128 -0.2239 -0.0384
 1307TIP3    H128116   1.628   2.305  20.590  0.0222 -0.0583 -0.2529
 1307TIP3    H228117   1.776   2.275  20.597 -0.1150 -0.5688  0.5368
 1308TIP3   OH228118   3.424   5.901  20.991  0.5554  0.7253  0.4776
 1308TIP3    H128119   3.369   5.979  20.979 -1.2139  0.0489  3.3020
 1308TIP3    H228120   3.434   5.893  21.085  1.3871 -2.0167  0.2294
 1309TIP3   OH228121   2.586   2.362  18.701  0.3370 -0.5339  0.0717
 1309TIP3    H128122   2.629   2.308  18.636  0.2517  0.2173 -0.6226
 1309TIP3    H228123   2.532   2.423  18.650 -2.1019 -1.8469  0.8856
 1310TIP3   OH228124   4.626   1.016  18.977 -0.5626  0.0242 -1.1611
 1310TIP3    H128125   4.582   1.093  18.940 -0.9881  0.4508  0.1507
 1310TIP3    H228126   4.560   0.976  19.034  0.3337 -0.0319 -0.1193
 1311TIP3   OH228127   1.407   4.014  21.092  0.8291  0.0178 -0.1371
 1311TIP3    H128128   1.377   4.011  21.183  0.6589 -0.6939 -0.2141
 1311TIP3    H228129   1.457   4.095  21.086 -0.0240  0.5951  0.3208
 1312TIP3   OH228130   0.165   0.474  19.218 -0.3138  0.3578 -0.5295
 1312TIP3    H128131   0.110   0.544  19.255 -0.5927  1.6896 -3.2528
 1312TIP3    H228132   0.244   0.476  19.271 -1.2965  1.0666  0.9924
 1313TIP3   OH228133   3.732   6.507  20.128  0.0466  0.3321  0.0191
 1313TIP3    H128134   3.676   6.500  20.051  1.3100  0.2795 -0.9172
 1313TIP3    H228135   3.799   6.439  20.116 -0.4180 -0.5185  1.7747
 1314TIP3   OH228136   6.671   0.860  20.393  0.5968 -0.1914  0.0606
 1314TIP3    H128137   6.638   0.785  20.442 -0.2720  0.7138  0.8725
 1314TIP3    H228138   6.642   0.844  20.303  0.0496 -0.6139  0.3073
 1315TIP3   OH228139   6.559   1.810  20.882  0.1461 -0.2676 -0.5722
 1315TIP3    H128140   6.582   1.901  20.867 -1.2916  0.1441 -0.4629
 1315TIP3    H228141   6.638   1.761  20.860  1.3030  1.0719  0.4244
 1316TIP3   OH228142   5.734   0.048  20.486  0.1155  0.5332 -0.2244
 1316TIP3    H128143   5.827   0.071  20.488  0.4360 -0.7198 -0.0011
 1316TIP3    H228144   5.733  -0.047  20.481 -1.1533  0.5647 -1.1374
 1317TIP3   OH228145   0.813   6.082  20.485  0.0258 -0.0001  1.2795
 1317TIP3    H128146   0.743   6.146  20.473 -0.0880 -0.4591 -1.0028
 1317TIP3    H228147   0.777   6.017  20.546 -1.9618 -0.7178 -0.5201
 1318TIP3   OH228148   3.492   1.285  17.250  0.2492 -0.5850  0.2940
 1318TIP3    H128149   3.543   1.362  17.277  1.7465 -0.6844 -1.9600
 1318TIP3    H228150   3.554   1.212  17.257  0.1760 -0.8756 -1.5868
 1319TIP3   OH228151   2.985   3.701  18.419  0.2309  0.1236  0.2984
 1319TIP3    H128152   2.922   3.772  18.407  1.5139  1.5447  1.6342
 1319TIP3    H228153   2.990   3.659  18.333  0.8728  2.8961 -1.1245
 1320TIP3   OH228154   1.784   3.484  18.675 -0.0490 -0.6491  0.8711
 1320TIP3    H128155   1.714   3.426  18.645 -2.3229  1.1258  2.4077
 1320TIP3    H228156   1.811   3.533  18.597 -0.7188 -1.1767  0.3083
 1321TIP3   OH228157   2.601   0.232  19.449 -0.0014 -0.3935  0.1651
 1321TIP3    H128158   2.547   0.294  19.499  1.0879  0.2742  0.5452
 1321TIP3    H228159   2.639   0.285  19.379 -0.5186 -1.0546 -0.6247
 1322TIP3   OH228160   2.422   3.733  18.138 -0.2871 -0.2024  0.9032
 1322TIP3    H128161   2.424   3.735  18.042  1.8886  1.0703  0.9140
 1322TIP3    H228162   2.356   3.798  18.162 -1.9829 -1.6171  0.3154
 1323TIP3   OH228163   2.503   3.736  19.616  0.2867  0.1039  0.0025
 1323TIP3    H128164   2.589   3.772  19.592 -0.2743  1.0265 -0.7107
 1323TIP3    H228165   2.522   3.653  19.659  1.6866  1.4012  2.0872
 1324TIP3   OH228166   0.456   5.216  21.192 -0.0102 -0.1192  0.4008
 1324TIP3    H128167   0.547   5.189  21.184  0.4775  1.5451 -0.1680
 1324TIP3    H228168   0.405   5.138  21.172  1.2703 -0.2371 -2.9153
 1325TIP3   OH228169   1.567   3.156  20.669 -0.5128 -0.3441  0.0261
 1325TIP3    H128170   1.606   3.243  20.658 -1.7002  0.5694  2.3054
 1325TIP3    H228171   1.497   3.153  20.604 -0.4896  0.4267 -0.0433
 1326TIP3   OH228172   1.176   4.049  19.210  0.3478  0.2409 -0.2313
 1326TIP3    H128173   1.206   3.970  19.166  0.9251  0.7417 -0.7764
 1326TIP3    H228174   1.236   4.059  19.285 -1.0267 -0.9548  1.0888
 1327TIP3   OH228175   4.302   2.826  18.630  0.0865 -0.0495 -0.2084
 1327TIP3    H128176   4.329   2.758  18.691  0.4782  0.4232  0.1522
 1327TIP3    H228177   4.277   2.778  18.551 -2.0835 -0.8137  0.8528
 1328TIP3   OH228178   4.232   5.080  18.115 -0.3141  0.1027 -0.7911
 1328TIP3    H128179   4.226   5.113  18.025 -0.6270 -3.3187 -2.2124
 1328TIP3    H228180   4.293   5.006  18.108 -0.9918 -0.7579  1.6567
 1329TIP3   OH228181   6.539   3.692  19.354  0.2586 -0.2742 -0.3142
 1329TIP3    H128182   6.563   3.630  19.423  0.9354  0.6311  0.2849
 1329TIP3    H228183   6.490   3.639  19.290 -0.9000 -1.0210  1.1218
 1330TIP3   OH228184   6.371   1.345  19.806 -0.2867  0.5701  0.2531
 1330TIP3    H128185   6.328   1.358  19.722 -0.2759 -2.0233 -0.2184
 1330TIP3    H228186   6.460   1.320  19.784  0.1700  1.3556  1.1136
 1331TIP3   OH228187   4.074   0.029  19.954  0.6696 -0.1013 -0.4787
 1331TIP3    H128188   4.160   0.055  19.985  0.1539 -0.5003  1.4394
 1331TIP3    H228189   4.084  -0.064  19.931  0.1113 -1.0757  2.7412
 1332TIP3   OH228190   6.456   1.601  18.022  0.1484  0.5368 -0.2145
 1332TIP3    H128191   6.381   1.633  17.972  1.1653 -0.0577 -2.2382
 1332TIP3    H228192   6.459   1.507  18.002  1.2738  0.5150  0.0219
 1333TIP3   OH228193   2.806   5.337  20.507  0.7969  0.9500 -0.3308
 1333TIP3    H128194   2.797   5.260  20.563  0.1645  0.0786 -1.5693
 1333TIP3    H228195   2.894   5.371  20.526  0.9659  0.0875  0.4506
 1334TIP3   OH228196   0.717   4.512  19.850 -0.8125  0.0788 -0.2302
 1334TIP3    H128197   0.764   4.553  19.777  0.7320 -0.6774  0.2891
 1334TIP3    H228198   0.668   4.584  19.890 -0.1492  0.8993 -0.8510
 1335TIP3   OH228199   5.967   4.288  18.310  0.2609 -0.2864 -0.1091
 1335TIP3    H128200   6.050   4.267  18.269  0.5857  0.3293  0.2204
 1335TIP3    H228201   5.911   4.318  18.238  0.5995  0.1161 -0.2070
 1336TIP3   OH228202   6.067   0.633  19.635 -0.0533 -0.1378  0.1933
 1336TIP3    H128203   6.006   0.571  19.595 -2.3101  1.0325  1.5759
 1336TIP3    H228204   6.070   0.707  19.575  1.8810 -1.1013 -0.9841
 1337TIP3   OH228205   1.181   5.903  18.714  0.5820 -0.6264 -0.1000
 1337TIP3    H128206   1.230   5.895  18.796 -2.4237  3.0345  2.4450
 1337TIP3    H228207   1.110   5.840  18.722 -0.1806  0.2869  0.6188
 1338TIP3   OH228208   2.658   3.413  20.373 -0.2480 -0.0662 -0.3758
 1338TIP3    H128209   2.617   3.478  20.315  1.0598  2.0518  0.9166
 1338TIP3    H228210   2.746   3.403  20.338 -0.3688 -0.9955 -0.4255
 1339TIP3   OH228211   4.262   2.397  18.510 -0.4053  0.0204  0.1302
 1339TIP3    H128212   4.331   2.445  18.555 -0.3048 -1.6650  1.9006
 1339TIP3    H228213   4.182   2.417  18.559 -0.8269  0.3379 -0.6610
 1340TIP3   OH228214   0.907   5.073  19.104  0.0680 -0.3836 -0.0827
 1340TIP3    H128215   0.878   5.132  19.173 -0.5815  0.4109 -1.0244
 1340TIP3    H228216   0.998   5.052  19.128 -0.3051 -0.5514  1.2853
 1341TIP3   OH228217   0.422   0.873  19.754 -0.4914 -0.2681 -0.0964
 1341TIP3    H128218   0.457   0.865  19.665  0.8184  0.3027  0.3302
 1341TIP3    H228219   0.431   0.966  19.775 -0.5348 -0.4370  0.7231
 1342TIP3   OH228220   1.580   6.235  20.064 -0.0783  0.5457  1.0068
 1342TIP3    H128221   1.596   6.260  19.973  0.0238  0.8665  1.1111
 1342TIP3    H228222   1.485   6.244  20.076 -0.1945 -0.2336  0.7143
 1343TIP3   OH228223   6.234   0.257  19.182  0.5755  0.0595 -0.0330
 1343TIP3    H128224   6.211   0.335  19.232 -0.8548  0.6986 -1.5853
 1343TIP3    H228225   6.255   0.191  19.248 -0.7729  1.0011  1.3942
 1344TIP3   OH228226   4.495   6.069  19.230  1.0152 -0.6458 -0.3688
 1344TIP3    H128227   4.557   6.089  19.160  0.5303  0.3700 -0.5297
 1344TIP3    H228228   4.548   6.069  19.310  1.0539  1.5396 -0.3285
 1345TIP3   OH228229   4.830   6.125  20.703  0.1354 -0.5105 -0.1024
 1345TIP3    H128230   4.751   6.165  20.667  0.3701 -1.2706 -1.5359
 1345TIP3    H228231   4.842   6.167  20.788 -1.8817 -0.4878  0.2164
 1346TIP3   OH228232   1.090   5.061  20.423  0.3826 -0.0852 -0.1869
 1346TIP3    H128233   1.038   5.128  20.377 -2.2247 -2.1154 -0.4146
 1346TIP3    H228234   1.059   5.064  20.513  1.1456 -0.1917  0.0865
 1347TIP3   OH228235   2.063   3.343  19.141  0.4762  0.3966  0.3421
 1347TIP3    H128236   2.023   3.257  19.149 -0.8307  0.8388 -0.9462
 1347TIP3    H228237   2.013   3.398  19.202  0.8956  0.3799  0.7018
 1348TIP3   OH228238   2.345   0.801  17.580 -0.1006 -0.1327 -0.2623
 1348TIP3    H128239   2.331   0.709  17.561 -0.1669 -0.4605  1.2497
 1348TIP3    H228240   2.273   0.846  17.535  0.3242 -0.7327 -1.5649
 1349TIP3   OH228241   0.266   1.827  19.367 -0.7030  0.6505 -0.2521
 1349TIP3    H128242   0.238   1.767  19.436  2.8691 -1.5409 -0.4283
 1349TIP3    H228243   0.262   1.776  19.286  2.1441  0.5601 -0.4517
 1350TIP3   OH228244   4.918   5.387  18.772 -0.1479  0.7081  0.4733
 1350TIP3    H128245   4.849   5.423  18.718 -1.4570 -2.0042  0.1521
 1350TIP3    H228246   4.913   5.435  18.855  1.5990  4.6326 -1.4741
 1351TIP3   OH228247   1.072   6.106  19.755  0.0711  0.0480 -0.2261
 1351TIP3    H128248   1.013   6.053  19.809  0.0798 -0.3340 -0.5807
 1351TIP3    H228249   1.022   6.185  19.735 -0.7205 -0.6934 -1.3458
 1352TIP3   OH228250   5.000   2.516  19.983 -0.0887 -0.9688 -0.0289
 1352TIP3    H128251   5.081   2.501  20.031 -0.5758 -1.7124  0.5943
 1352TIP3    H228252   4.931   2.500  20.048 -0.7334  1.1573 -0.1035
 1353TIP3   OH228253   1.428   1.581  17.982 -0.1412  0.2177  0.1632
 1353TIP3    H128254   1.515   1.595  18.020  0.6250 -1.1116 -1.0074
 1353TIP3    H228255   1.412   1.661  17.931  0.7277  0.1795 -0.1955
 1354TIP3   OH228256   2.428   6.501  19.710  0.2477  0.0368 -0.4414
 1354TIP3    H128257   2.402   6.538  19.626 -0.2929  0.6195 -0.0256
 1354TIP3    H228258   2.394   6.411  19.709  0.7865 -0.1642 -1.0901
 1355TIP3   OH228259   1.950   6.293  21.297  0.0648  0.2754 -0.2511
 1355TIP3    H128260   1.937   6.295  21.203  2.8101 -0.5974 -0.7413
 1355TIP3    H228261   1.918   6.378  21.328 -0.5584  0.7083 -2.0001
 1356TIP3   OH228262   4.610   4.810  17.783 -0.1251  0.4668  0.7187
 1356TIP3    H128263   4.519   4.782  17.788 -0.0306  0.0769  0.3080
 1356TIP3    H228264   4.654   4.765  17.855  0.0922 -0.7102 -0.1300
 1357TIP3   OH228265   2.296   3.056  20.163  0.0219  0.2106 -0.5203
 1357TIP3    H128266   2.259   3.145  20.169 -0.5691 -0.0567 -0.1414
 1357TIP3    H228267   2.221   2.998  20.174  0.0900 -0.3569 -2.6416
 1358TIP3   OH228268   2.264   2.229  20.286 -0.3082 -0.5710  0.1441
 1358TIP3    H128269   2.276   2.163  20.354  0.0312 -1.3652 -0.6628
 1358TIP3    H228270   2.299   2.310  20.324  1.1699 -1.3100  0.4193
 1359TIP3   OH228271   2.542   3.193  19.787  0.2300  0.0160  0.4245
 1359TIP3    H128272   2.461   3.216  19.741  0.9927 -0.1847 -1.0749
 1359TIP3    H228273   2.589   3.135  19.727  1.8320  0.7281  0.9179
 1360TIP3   OH228274   0.005   3.539  18.429 -0.0886  0.1642 -0.0944
 1360TIP3    H128275   0.035   3.528  18.338 -0.9576  0.6983 -0.4483
 1360TIP3    H228276   0.063   3.482  18.479  0.8712  0.4010 -0.8912
 1361TIP3   OH228277   5.095   3.810  18.923  0.5782 -0.2058  0.2135
 1361TIP3    H128278   5.161   3.741  18.924  1.5231  0.5753 -1.9544
 1361TIP3    H228279   5.131   3.879  18.979  0.4490 -0.7311  0.9595
 1362TIP3   OH228280   0.920   4.156  19.150  0.6217 -0.3549  0.0085
 1362TIP3    H128281   1.006   4.121  19.174  0.5632 -0.4227  0.1137
 1362TIP3    H228282   0.897   4.110  19.069  1.1396  0.3760 -0.5770
 1363TIP3   OH228283   3.001   5.645  18.745 -0.0142  0.1832  0.1556
 1363TIP3    H128284   2.936   5.589  18.788  1.3700 -1.2161  0.4930
 1363TIP3    H228285   2.962   5.664  18.659 -1.4811  0.5747  0.8629
 1364TIP3   OH228286   2.074   6.173  18.922 -0.0915 -0.3939  0.0019
 1364TIP3    H128287   2.151   6.120  18.900  1.3932  1.7992 -0.4180
 1364TIP3    H228288   2.061   6.157  19.015 -0.4619 -2.3616 -0.3275
 1365TIP3   OH228289   5.727   0.802  18.734 -0.1761 -0.7890  0.7501
 1365TIP3    H128290   5.799   0.743  18.712  0.4101  0.0806  0.2566
 1365TIP3    H228291   5.698   0.775  18.821 -1.3827 -3.2023 -0.3016
 1366TIP3   OH228292   3.610   0.186  18.650 -0.2753  0.0562 -0.3821
 1366TIP3    H128293   3.539   0.167  18.588  0.2500  0.1916 -1.0373
 1366TIP3    H228294   3.623   0.103  18.697  1.2621 -0.9962 -2.4762
 1367TIP3   OH228295   1.402   1.112  20.073  0.3674 -0.1618 -0.0743
 1367TIP3    H128296   1.377   1.186  20.127 -2.1753  0.0472 -1.3677
 1367TIP3    H228297   1.477   1.143  20.022  0.1513  1.0814  0.3350
 1368TIP3   OH228298   1.116   5.789  17.702 -0.2294  0.8464 -0.2712
 1368TIP3    H128299   1.189   5.807  17.760 -1.1717  3.3241  0.2669
 1368TIP3    H228300   1.101   5.871  17.655 -2.2723  0.2411 -0.8042
 1369TIP3   OH228301   4.413   5.051  21.111  0.1876  0.3834 -0.1060
 1369TIP3    H128302   4.448   5.002  21.185  1.4034  2.2290  0.6066
 1369TIP3    H228303   4.416   4.989  21.038  0.7166 -0.8981  0.9641
 1370TIP3   OH228304   1.382   2.080  19.207 -0.0619 -0.1048 -0.3990
 1370TIP3    H128305   1.446   2.107  19.274  0.4260  2.1066 -1.6554
 1370TIP3    H228306   1.318   2.151  19.206 -0.7743 -0.7447 -1.3909
 1371TIP3   OH228307   6.223   6.543  18.364 -0.1971 -0.4693  0.0294
 1371TIP3    H128308   6.299   6.564  18.418 -2.0137  2.4244  1.7502
 1371TIP3    H228309   6.257   6.537  18.275  2.1536 -0.2419  0.8437
 1372TIP3   OH228310   4.104   1.782  19.058 -0.6622 -0.2893 -0.0228
 1372TIP3    H128311   4.111   1.784  19.154  0.9285  0.9192 -0.0970
 1372TIP3    H228312   4.011   1.784  19.040 -0.9838  1.4193  1.5314
 1373TIP3   OH228313   4.977   5.654  21.033 -0.4487  0.0327 -0.2845
 1373TIP3    H128314   4.945   5.682  20.947  0.7929  3.7659  0.2785
 1373TIP3    H228315   4.942   5.719  21.094  1.2047 -0.6937  1.5561
 1374TIP3   OH228316   5.961   1.294  18.553 -0.5568 -0.2307  0.2145
 1374TIP3    H128317   5.930   1.220  18.605  0.7102  0.3713  1.9079
 1374TIP3    H228318   6.056   1.286  18.555 -0.4527  0.2740 -1.3820
 1375TIP3   OH228319   1.373   0.618  17.751 -0.0914 -0.1760  0.3257
 1375TIP3    H128320   1.323   0.694  17.721 -1.0474 -1.3607 -1.2311
 1375TIP3    H228321   1.463   0.636  17.723 -0.2075  0.5796  0.4045
 1376TIP3   OH228322   2.482   2.710  17.162  0.3403  0.2318  0.2007
 1376TIP3    H128323   2.467   2.646  17.232  0.2944  0.0450  0.0199
 1376TIP3    H228324   2.531   2.661  17.096 -0.2034  0.2211 -0.1960
 1377TIP3   OH228325   3.205   3.291  19.194  0.4105  0.2784  0.5688
 1377TIP3    H128326   3.135   3.232  19.223  1.1133 -0.0137  1.7229
 1377TIP3    H228327   3.226   3.260  19.105  0.7051 -1.1758  1.1094
 1378TIP3   OH228328   6.514   5.999  20.336 -1.0214 -0.1071 -0.9053
 1378TIP3    H128329   6.480   5.914  20.365  1.5285 -0.9252 -0.0847
 1378TIP3    H228330   6.501   5.999  20.241 -0.7291 -1.6104 -0.9710
 1379TIP3   OH228331   1.749   1.933  17.759  0.0545 -0.1037  0.3504
 1379TIP3    H128332   1.681   1.990  17.796 -0.8582 -0.3882 -0.8496
 1379TIP3    H228333   1.701   1.869  17.707  1.2388 -0.3369 -0.4872
 1380TIP3   OH228334   2.965   5.631  19.329  0.4066 -0.2194  0.5692
 1380TIP3    H128335   2.993   5.571  19.399  1.1806 -0.0322  0.4367
 1380TIP3    H228336   3.017   5.605  19.253  0.8562  0.6908  0.5434
 1381TIP3   OH228337   6.637   2.657  18.280 -0.3281  0.2925 -0.1915
 1381TIP3    H128338   6.634   2.741  18.234  0.7349  0.5454  0.1654
 1381TIP3    H228339   6.628   2.680  18.372  0.3019  0.0521 -0.0654
 1382TIP3   OH228340   2.717   5.523  20.943  0.0631  0.9373 -0.1378
 1382TIP3    H128341   2.743   5.594  21.003  3.4607 -1.3991  1.4489
 1382TIP3    H228342   2.742   5.555  20.856 -0.1579  2.3734  0.2950
 1383TIP3   OH228343   3.639   1.748  20.330  0.4446 -0.1093 -0.5219
 1383TIP3    H128344   3.697   1.824  20.339 -1.4239  1.2515  0.6589
 1383TIP3    H228345   3.587   1.767  20.252 -1.2538  0.7698  0.7596
 1384TIP3   OH228346   4.027   5.637  18.471 -0.0302 -0.1805  0.3999
 1384TIP3    H128347   4.115   5.673  18.483  0.1040 -0.2362 -0.3173
 1384TIP3    H228348   3.968   5.711  18.485  0.1556 -0.0465  0.4781
 1385TIP3   OH228349   3.849   2.047  19.782 -0.0880 -0.3293  0.0966
 1385TIP3    H128350   3.878   2.112  19.846 -0.1362 -0.0886 -0.1257
 1385TIP3    H228351   3.929   2.023  19.735 -0.3003  0.6204 -0.7787
 1386TIP3   OH228352   4.292   0.718  19.363  0.1187 -0.4326 -0.0528
 1386TIP3    H128353   4.305   0.802  19.409  0.4564 -1.0646  1.0485
 1386TIP3    H228354   4.378   0.676  19.365  0.0378 -0.6611 -0.9186
 1387TIP3   OH228355   0.526   6.598  18.536 -0.1641 -0.3792 -0.1313
 1387TIP3    H128356   0.489   6.592  18.448  1.4530  0.3186 -0.9032
 1387TIP3    H228357   0.464   6.551  18.592 -0.4356 -2.2354 -1.8875
 1388TIP3   OH228358   1.363   0.780  20.554 -0.1815  0.7603 -0.0945
 1388TIP3    H128359   1.316   0.826  20.624 -0.2451  2.5336 -1.2505
 1388TIP3    H228360   1.302   0.712  20.525  0.2821 -0.7859  2.2948
 1389TIP3   OH228361   1.118   3.032  19.521 -0.0212 -0.5101  0.1592
 1389TIP3    H128362   1.029   3.023  19.487 -1.0787 -0.5201  2.6697
 1389TIP3    H228363   1.123   2.966  19.591  1.0561  1.1235  1.7188
 1390TIP3   OH228364   3.546   0.505  20.536 -0.7590 -0.3067  0.4024
 1390TIP3    H128365   3.583   0.420  20.559  1.1695  0.4201  0.1766
 1390TIP3    H228366   3.622   0.560  20.514 -1.9163  1.5634  0.7924
 1391TIP3   OH228367   0.205   1.962  19.069 -0.0327 -0.0893 -0.3570
 1391TIP3    H128368   0.123   1.937  19.025 -0.8026 -0.2432  1.0919
 1391TIP3    H228369   0.227   1.887  19.124  1.2971 -0.1891 -0.9829
 1392TIP3   OH228370   5.226   2.452  20.111  0.5697  0.7539  0.2120
 1392TIP3    H128371   5.277   2.414  20.039 -1.6327  0.1628 -1.1473
 1392TIP3    H228372   5.203   2.377  20.166 -2.0175  0.3024 -1.3314
 1393TIP3   OH228373   5.808   4.408  20.477  0.3443 -0.2370  0.1325
 1393TIP3    H128374   5.757   4.487  20.466  1.1523  0.1474 -1.0217
 1393TIP3    H228375   5.751   4.349  20.526 -1.2002  0.1679 -1.1007
 1394TIP3   OH228376   1.586   5.109  18.198 -0.2100  0.1387 -0.0412
 1394TIP3    H128377   1.512   5.049  18.194 -1.3296  1.2382  2.4351
 1394TIP3    H228378   1.597   5.139  18.107 -2.5836 -0.3201 -0.5473
 1395TIP3   OH228379   5.377   4.422  17.915  0.3633 -0.8174  0.4055
 1395TIP3    H128380   5.440   4.469  17.861  1.4472  0.6963  2.8765
 1395TIP3    H228381   5.324   4.490  17.956  0.3495 -1.8311  2.1558
 1396TIP3   OH228382   3.722   4.861  20.019 -0.0450 -0.4359 -0.3028
 1396TIP3    H128383   3.723   4.802  19.944 -0.4570 -0.8637  0.0209
 1396TIP3    H228384   3.677   4.812  20.088 -1.0449  0.5055 -0.2470
 1397TIP3   OH228385   0.795   1.947  20.352  0.4204 -0.0448  0.9064
 1397TIP3    H128386   0.746   1.991  20.283 -1.2645  0.7063  2.4839
 1397TIP3    H228387   0.868   1.905  20.307  0.6401  2.2055 -1.0172
 1398TIP3   OH228388   5.564   4.733  21.191 -0.2532 -0.0315  0.0009
 1398TIP3    H128389   5.489   4.695  21.237  0.3180 -0.1829  0.8308
 1398TIP3    H228390   5.532   4.817  21.158 -0.3083  0.7252  1.8641
 1399TIP3   OH228391   4.562   4.649  18.233 -0.4872  0.2088  0.5879
 1399TIP3    H128392   4.495   4.581  18.233 -0.6910  0.4051 -0.2124
 1399TIP3    H228393   4.585   4.660  18.326 -0.9327 -0.4691  0.7844
 1400TIP3   OH228394   6.596   3.107  18.349  0.0465  0.6511 -0.5806
 1400TIP3    H128395   6.553   3.187  18.378 -1.3165 -0.4056  0.3770
 1400TIP3    H228396   6.666   3.138  18.290  0.5233  2.6198  0.9153
 1401TIP3   OH228397   5.509   5.548  18.999  0.4398 -0.0445 -0.6257
 1401TIP3    H128398   5.559   5.555  19.080 -0.1465  2.2456 -0.4002
 1401TIP3    H228399   5.540   5.620  18.944 -1.2257  0.2651 -1.2347
 1402TIP3   OH228400   2.553   3.616  17.901 -0.1705  0.0688  0.0594
 1402TIP3    H128401   2.602   3.596  17.822 -1.2944 -2.8131 -0.0492
 1402TIP3    H228402   2.480   3.670  17.871 -1.1727 -1.8513 -1.1458
 1403TIP3   OH228403   0.746   1.456  19.457  0.4611 -0.0086  0.3093
 1403TIP3    H128404   0.724   1.518  19.388 -0.5528  1.1313  1.6004
 1403TIP3    H228405   0.674   1.463  19.520  1.0251 -1.4765  1.1752
 1404TIP3   OH228406   3.558   3.707  21.311 -0.1642 -0.3249 -0.3855
 1404TIP3    H128407   3.530   3.733  21.399 -1.2493 -1.8626 -0.2317
 1404TIP3    H228408   3.528   3.778  21.254  1.4378  1.1928  0.5538
 1405TIP3   OH228409   5.832   2.854  20.485  0.1248  0.3688  0.1393
 1405TIP3    H128410   5.895   2.916  20.521  0.9149 -0.2053 -0.2490
 1405TIP3    H228411   5.834   2.869  20.391  0.7714 -0.6457 -0.0265
 1406TIP3   OH228412   0.650   2.701  20.797 -0.5220 -0.2880  0.0427
 1406TIP3    H128413   0.684   2.756  20.868  0.2077  0.7093 -1.0578
 1406TIP3    H228414   0.566   2.669  20.831 -0.7696  1.1542  0.9042
 1407TIP3   OH228415   3.476   5.610  19.565 -0.0398  0.8444 -0.3140
 1407TIP3    H128416   3.527   5.622  19.645 -1.2851 -1.2805  0.9187
 1407TIP3    H228417   3.541   5.589  19.498  0.8682  0.0320  0.7704
 1408TIP3   OH228418   0.941   6.104  21.032  0.3557  0.0832 -0.1105
 1408TIP3    H128419   0.986   6.171  20.981  1.0083 -1.0280 -1.0246
 1408TIP3    H228420   0.848   6.117  21.012  0.3023  1.7666  1.0429
 1409TIP3   OH228421   5.763   3.365  21.097  0.4319 -0.0705 -0.2301
 1409TIP3    H128422   5.801   3.299  21.039  1.0955 -0.5307  0.7133
 1409TIP3    H228423   5.778   3.332  21.185 -0.5521  0.6255  0.2254
 1410TIP3   OH228424   3.315   0.234  18.291 -0.4753 -0.3608  0.1424
 1410TIP3    H128425   3.347   0.278  18.212  0.3707  1.7489  1.5762
 1410TIP3    H228426   3.393   0.195  18.330 -0.6300 -0.1187  0.7018
 1411TIP3   OH228427   5.824   0.088  19.202  0.4841 -0.0913 -0.0918
 1411TIP3    H128428   5.829   0.123  19.291  0.1416 -0.6503  0.1526
 1411TIP3    H228429   5.788   0.001  19.213  2.7868 -1.1866 -0.5133
 1412TIP3   OH228430   1.359   5.472  19.736 -0.2931 -0.5489  0.0186
 1412TIP3    H128431   1.296   5.405  19.763  0.9006 -1.4345  0.7212
 1412TIP3    H228432   1.313   5.555  19.749 -1.6341 -1.1986 -0.4008
 1413TIP3   OH228433   3.874   2.570  19.279  0.2324 -0.4931 -0.7524
 1413TIP3    H128434   3.817   2.530  19.213  0.0490  2.1447 -2.3634
 1413TIP3    H228435   3.962   2.563  19.242  0.0553  1.5884 -1.7259
 1414TIP3   OH228436   6.203   5.109  18.613 -0.4822 -0.1186  0.6399
 1414TIP3    H128437   6.119   5.144  18.582 -0.7753  0.5819  2.1395
 1414TIP3    H228438   6.188   5.091  18.706  0.6339 -1.2989  0.6178
 1415TIP3   OH228439   4.816   0.530  18.780  0.5079 -0.1929 -0.3034
 1415TIP3    H128440   4.907   0.522  18.806  0.5164  0.2231 -0.1982
 1415TIP3    H228441   4.785   0.609  18.824  0.2319 -0.0627 -0.7228
 1416TIP3   OH228442   4.379   4.864  18.109 -0.1775 -0.0677  0.5021
 1416TIP3    H128443   4.325   4.794  18.073 -0.8837 -0.4389  2.1768
 1416TIP3    H228444   4.437   4.819  18.171  0.3810  0.6464  0.5031
 1417TIP3   OH228445   0.529   5.162  18.500  0.2382 -0.1740  0.8034
 1417TIP3    H128446   0.558   5.142  18.589  0.0838  0.3182  0.9662
 1417TIP3    H228447   0.576   5.099  18.445  3.2367  1.7806  0.8400
 1418TIP3   OH228448   5.190   1.678  20.901 -0.1288  0.3219 -0.4736
 1418TIP3    H128449   5.264   1.619  20.918  0.2575  0.8808 -0.1984
 1418TIP3    H228450   5.140   1.634  20.833  1.6854  0.9911 -2.3480
 1419TIP3   OH228451   5.602   0.213  20.013  0.0346  0.6695 -0.3094
 1419TIP3    H128452   5.616   0.140  19.952 -0.2739  0.9161 -0.6847
 1419TIP3    H228453   5.667   0.200  20.082  0.9754  0.8448 -1.1301
 1420TIP3   OH228454   1.728   1.721  21.176 -0.4121  0.1879  0.0383
 1420TIP3    H128455   1.696   1.746  21.263 -0.9582  1.7865 -0.5841
 1420TIP3    H228456   1.768   1.801  21.141 -1.8545  0.1458 -1.8901
 1421TIP3   OH228457   2.399   2.084  19.251 -0.8048  0.1298 -0.3850
 1421TIP3    H128458   2.394   1.994  19.285 -2.5252  0.7193  1.0335
 1421TIP3    H228459   2.467   2.126  19.304 -0.2160 -0.2322 -0.8420
 1422TIP3   OH228460   6.257   2.374  18.619  0.5661  0.4926  0.4243
 1422TIP3    H128461   6.251   2.390  18.713  2.1605 -0.5460  0.7349
 1422TIP3    H228462   6.169   2.393  18.586 -1.0891 -2.4796  2.6499
 1423TIP3   OH228463   6.197   2.538  18.841 -0.0761  0.0068  0.0481
 1423TIP3    H128464   6.108   2.536  18.877 -0.4287  5.3146  0.2872
 1423TIP3    H228465   6.252   2.501  18.910 -1.7071  1.1184  2.0605
 1424TIP3   OH228466   6.669   5.720  20.199 -0.6079  0.2293 -0.3422
 1424TIP3    H128467   6.709   5.730  20.286 -1.6755  0.7631  0.1064
 1424TIP3    H228468   6.576   5.705  20.217 -0.9113  0.7717 -1.4007
 1425TIP3   OH228469   3.114   0.948  18.499 -0.2788  0.5686 -0.2663
 1425TIP3    H128470   3.120   0.858  18.531  0.3073  0.6731 -0.0757
 1425TIP3    H228471   3.181   0.996  18.547  1.4371  0.4958 -2.4288
 1426TIP3   OH228472   5.759   1.617  18.235 -0.1568  0.8486 -0.4035
 1426TIP3    H128473   5.753   1.570  18.318  2.2015  1.1205 -0.0087
 1426TIP3    H228474   5.709   1.564  18.173  0.7080 -1.1030  0.4842
 1427TIP3   OH228475   1.308   6.459  20.079 -0.4093  0.0267 -0.2408
 1427TIP3    H128476   1.223   6.438  20.041  0.0480 -1.9590 -0.2451
 1427TIP3    H228477   1.312   6.406  20.159 -0.1512  1.9360  1.0744
 1428TIP3   OH228478   4.807   1.391  19.813  0.6869  0.2268 -0.5236
 1428TIP3    H128479   4.764   1.361  19.733 -2.7239 -0.6143  1.4338
 1428TIP3    H228480   4.878   1.448  19.782  0.9388 -1.7656 -4.1202
 1429TIP3   OH228481   3.587   4.004  20.467  0.7909  0.2006  0.6130
 1429TIP3    H128482   3.515   4.007  20.404 -0.2349  0.3364  1.7613
 1429TIP3    H228483   3.655   3.952  20.424  0.1576  0.3750 -0.6337
 1430TIP3   OH228484   2.399   1.535  19.312 -0.1647  0.5521 -0.2287
 1430TIP3    H128485   2.411   1.447  19.278 -1.8192  0.3359 -0.3361
 1430TIP3    H228486   2.429   1.530  19.403  1.3711  0.3569 -0.7066
 1431TIP3   OH228487   1.828   0.449  20.524 -0.3054  0.0776  0.1772
 1431TIP3    H128488   1.904   0.478  20.574 -0.4195  2.0571 -0.6848
 1431TIP3    H228489   1.770   0.525  20.524 -1.0678 -0.4662 -1.4924
 1432TIP3   OH228490   3.412   5.459  20.766 -0.6039  0.3718  0.7695
 1432TIP3    H128491   3.419   5.448  20.671  0.5698  0.4483  0.8315
 1432TIP3    H228492   3.378   5.548  20.777  0.5931  0.8933  0.4231
 1433TIP3   OH228493   6.633   0.933  19.284  0.0970  0.4416  0.0859
 1433TIP3    H128494   6.648   0.929  19.190  0.6610  1.4123  0.1321
 1433TIP3    H228495   6.541   0.908  19.294  0.0903  0.1246 -0.6951
 1434TIP3   OH228496   0.965   5.695  17.906  0.5129  0.6390 -0.2990
 1434TIP3    H128497   1.026   5.730  17.842  2.3152  1.0902  1.5714
 1434TIP3    H228498   0.913   5.771  17.933  0.1128  0.5517 -0.7941
 1435TIP3   OH228499   1.636   1.677  19.021  0.0997  0.3779  0.0905
 1435TIP3    H128500   1.618   1.770  19.008  1.3095  0.4078 -1.6607
 1435TIP3    H228501   1.730   1.673  19.039  0.6840 -0.6697 -2.7347
 1436TIP3   OH228502   1.852   4.459  19.485  0.3419 -0.1913 -0.2636
 1436TIP3    H128503   1.930   4.511  19.504 -1.0455  2.3011 -0.8152
 1436TIP3    H228504   1.825   4.424  19.569  1.4797 -0.2527  0.0949
 1437TIP3   OH228505   0.696   1.515  21.145 -0.3092 -0.1293  0.0220
 1437TIP3    H128506   0.790   1.516  21.160 -0.2037  0.2556 -0.6259
 1437TIP3    H228507   0.659   1.570  21.214 -0.2408 -1.6552  1.3350
 1438TIP3   OH228508   0.171   4.033  21.234  0.6822  0.1519 -0.1137
 1438TIP3    H128509   0.120   3.987  21.167  1.9445  0.0634 -1.0693
 1438TIP3    H228510   0.117   4.030  21.312  0.1430 -1.7917 -0.5099
 1439TIP3   OH228511   2.973   0.104  18.582  0.7454  0.0747  0.7763
 1439TIP3    H128512   2.953   0.099  18.675  0.3601  0.3850  0.7147
 1439TIP3    H228513   2.997   0.196  18.567  0.2318  0.1617  0.4637
 1440TIP3   OH228514   1.635   5.969  21.303  0.0485 -0.2677 -0.1148
 1440TIP3    H128515   1.588   5.961  21.220 -1.9493 -0.6862  0.9821
 1440TIP3    H228516   1.612   6.056  21.336 -1.8810 -1.2752  1.4606
 1441TIP3   OH228517   0.357   2.142  19.752  0.2071 -0.6081  0.2933
 1441TIP3    H128518   0.429   2.202  19.769  1.5731 -2.3347  0.9762
 1441TIP3    H228519   0.349   2.139  19.657  1.2434 -0.5890  0.1978
 1442TIP3   OH228520   0.726   3.085  19.006 -0.0999 -0.0574 -0.3101
 1442TIP3    H128521   0.780   3.138  19.065  0.0653 -0.2405 -0.2963
 1442TIP3    H228522   0.691   3.016  19.062  0.4707 -0.5314 -0.5327
 1443TIP3   OH228523   5.558   2.029  19.936  0.0009  0.2196  0.5773
 1443TIP3    H128524   5.630   2.075  19.979  0.0349 -0.3375  1.1311
 1443TIP3    H228525   5.599   1.985  19.861 -0.1167  1.4611 -0.2472
 1444TIP3   OH228526   2.939   4.275  17.852 -0.4275 -0.1541  0.7204
 1444TIP3    H128527   2.875   4.249  17.785 -1.2236 -0.2415  1.4959
 1444TIP3    H228528   2.971   4.360  17.823 -1.3853  0.1951  0.6378
 1445TIP3   OH228529   0.537   3.297  17.810 -0.0190 -0.3701 -0.5850
 1445TIP3    H128530   0.499   3.359  17.747  1.9403 -0.3364 -1.7955
 1445TIP3    H228531   0.592   3.240  17.758 -0.6642 -2.2888  0.7244
 1446TIP3   OH228532   4.280   4.346  21.244  0.2655  0.4739  0.4429
 1446TIP3    H128533   4.368   4.322  21.215 -0.3430 -0.8194 -0.4236
 1446TIP3    H228534   4.253   4.416  21.184  0.1526 -0.1496 -0.2476
 1447TIP3   OH228535   6.667   6.506  18.588  0.3390 -0.2556 -0.0512
 1447TIP3    H128536   6.674   6.583  18.643 -1.1830  1.0018 -1.4933
 1447TIP3    H228537   6.714   6.528  18.508  1.6530 -1.6576  0.2780
 1448TIP3   OH228538   0.476   6.645  18.282  0.0552 -0.1708  0.4251
 1448TIP3    H128539   0.488   6.739  18.269  0.1545 -0.3436 -0.8626
 1448TIP3    H228540   0.551   6.605  18.238 -0.4174 -0.8826  0.2563
 1449TIP3   OH228541   4.686   1.874  18.182 -0.7089 -0.4589 -0.6712
 1449TIP3    H128542   4.649   1.844  18.099  1.8308 -0.2913 -1.9695
 1449TIP3    H228543   4.760   1.816  18.198  1.0956  1.7469 -0.4963
 1450TIP3   OH228544   2.244   5.614  20.545  0.0174 -0.2065 -0.4231
 1450TIP3    H128545   2.153   5.604  20.574 -0.0261  0.2391 -0.4074
 1450TIP3    H228546   2.289   5.653  20.620  0.0757  0.2100 -0.6720
 1451TIP3   OH228547   4.857   4.454  18.722 -0.0595  0.0564 -0.5057
 1451TIP3    H128548   4.923   4.388  18.704  0.1275  0.2508 -0.5287
 1451TIP3    H228549   4.795   4.447  18.650 -0.8503 -1.1153  0.2448
 1452TIP3   OH228550   6.522   2.686  20.107 -0.5663  0.3450 -0.4156
 1452TIP3    H128551   6.440   2.716  20.148 -0.8806 -1.7003  0.5987
 1452TIP3    H228552   6.562   2.629  20.172  1.6716  1.2233 -0.9308
 1453TIP3   OH228553   1.827   0.373  20.006 -0.0439  0.1013 -0.6231
 1453TIP3    H128554   1.785   0.295  20.042 -0.3927  0.1391 -0.9460
 1453TIP3    H228555   1.855   0.422  20.083 -0.6633  0.1142 -0.3990
 1454TIP3   OH228556   3.351   5.201  17.356  0.2920 -0.3395  0.2074
 1454TIP3    H128557   3.400   5.172  17.432  0.3880 -2.5846 -0.6387
 1454TIP3    H228558   3.416   5.247  17.302  1.0306 -1.5020  0.0536
 1455TIP3   OH228559   2.052   5.626  19.104  0.2215  0.0394 -0.1807
 1455TIP3    H128560   2.091   5.696  19.052 -0.5161  0.8533  0.3237
 1455TIP3    H228561   2.078   5.546  19.060 -0.8197  0.7164 -2.1381
 1456TIP3   OH228562   0.455   2.621  17.210 -0.1735  0.4476 -0.3222
 1456TIP3    H128563   0.511   2.553  17.173  1.4877  2.0284 -0.8741
 1456TIP3    H228564   0.503   2.652  17.288 -1.6036  0.0230  0.7686
 1457TIP3   OH228565   1.969   3.946  20.040  0.1176  0.3640 -0.0509
 1457TIP3    H128566   1.889   3.901  20.065 -0.5020  1.9883  1.1097
 1457TIP3    H228567   1.972   3.940  19.945 -1.0958 -0.1944 -0.0699
 1458TIP3   OH228568   4.796   4.437  19.645 -0.0179  0.0738 -0.4450
 1458TIP3    H128569   4.891   4.446  19.660  0.1723 -1.1789 -0.7836
 1458TIP3    H228570   4.781   4.484  19.563  0.4723 -0.4282 -0.8353
 1459TIP3   OH228571   1.842   0.141  17.794 -0.0490  0.2545  0.4016
 1459TIP3    H128572   1.870   0.060  17.751 -0.2051  0.0560  0.6739
 1459TIP3    H228573   1.767   0.115  17.847 -0.1608  0.5988  0.4121
 1460TIP3   OH228574   1.401   6.025  18.605  0.2307 -0.0054 -0.1886
 1460TIP3    H128575   1.395   6.011  18.511 -0.7408 -1.0239  0.0085
 1460TIP3    H228576   1.322   5.985  18.641  0.7730  0.0200  1.1024
 1461TIP3   OH228577   4.872   2.417  19.121  0.5072 -0.3163  0.1279
 1461TIP3    H128578   4.878   2.513  19.125  0.9478 -0.3260 -0.2608
 1461TIP3    H228579   4.779   2.399  19.106  0.2322  0.0090  1.3159
 1462TIP3   OH228580   4.665   5.893  20.570 -0.0757 -0.1150 -0.2296
 1462TIP3    H128581   4.595   5.917  20.509  1.3487  3.5607 -0.6799
 1462TIP3    H228582   4.745   5.913  20.522  1.2584 -1.8302  1.1801
 1463TIP3   OH228583   5.608   1.244  20.098  0.1634  0.4240  0.3852
 1463TIP3    H128584   5.677   1.203  20.046  0.2089 -1.9119  2.0824
 1463TIP3    H228585   5.541   1.175  20.106  0.4688  0.3424  3.8600
 1464TIP3   OH228586   2.848   1.449  20.288  0.0948  0.2749 -0.4916
 1464TIP3    H128587   2.756   1.474  20.291  0.4815  1.9804 -1.5621
 1464TIP3    H228588   2.862   1.398  20.368 -1.8665 -0.4098 -0.5310
 1465TIP3   OH228589   4.523   0.292  20.366  0.6140  0.2488  0.6375
 1465TIP3    H128590   4.527   0.377  20.410  1.1636 -0.5127  2.1270
 1465TIP3    H228591   4.433   0.263  20.378 -0.2763  1.6112 -1.9429
 1466TIP3   OH228592   0.742   0.572  20.266  0.0289 -0.4781  0.2295
 1466TIP3    H128593   0.730   0.603  20.356  1.0665  1.1784 -0.1545
 1466TIP3    H228594   0.676   0.621  20.216 -0.1225 -0.9275 -0.0171
 1467TIP3   OH228595   5.171   2.595  17.695  0.1926  0.0095  0.3399
 1467TIP3    H128596   5.251   2.592  17.749 -1.4302  1.6993  3.0957
 1467TIP3    H228597   5.182   2.672  17.641  1.2698 -0.9469 -0.8679
 1468TIP3   OH228598   0.416   4.455  17.961  0.2100  0.4353  0.4185
 1468TIP3    H128599   0.483   4.512  18.000  1.6730 -1.2710  0.4952
 1468TIP3    H228600   0.334   4.504  17.972  1.1071  1.6178  2.3248
 1469TIP3   OH228601   4.910   1.019  18.333  0.0590 -0.1238  0.0832
 1469TIP3    H128602   4.837   1.080  18.348 -0.2577 -0.4453 -0.1516
 1469TIP3    H228603   4.940   1.039  18.244  0.7260  0.4970  0.4373
 1470TIP3   OH228604   2.458   1.537  18.780  0.1848  0.4973  0.7233
 1470TIP3    H128605   2.386   1.493  18.736 -1.0709  1.2268  1.9298
 1470TIP3    H228606   2.418   1.574  18.859  1.7780  1.3958  1.1581
 1471TIP3   OH228607   0.866   2.023  21.060 -0.2568  0.2683  0.4870
 1471TIP3    H128608   0.812   2.038  20.982 -1.2368  0.6343  1.2232
 1471TIP3    H228609   0.956   2.023  21.026 -0.7191 -1.2927 -0.9138
 1472TIP3   OH228610   2.776   0.311  20.818  0.4129  0.0674 -0.5148
 1472TIP3    H128611   2.808   0.245  20.756  1.8990  0.9925 -0.7974
 1472TIP3    H228612   2.790   0.395  20.773  1.7482  0.7822  1.1191
 1473TIP3   OH228613   2.471   0.414  20.991  0.6282 -0.2074  0.1088
 1473TIP3    H128614   2.377   0.410  20.973  0.4835 -0.5234  0.8956
 1473TIP3    H228615   2.504   0.327  20.968  0.7299 -0.0968 -0.1663
 1474TIP3   OH228616   4.611   5.293  20.601  0.4795 -0.3067 -0.6988
 1474TIP3    H128617   4.541   5.300  20.536 -1.8529  1.6634  1.7390
 1474TIP3    H228618   4.631   5.384  20.624  2.2553 -0.9012  0.2725
 1475TIP3   OH228619   2.770   4.617  20.953 -0.2667 -0.0798  0.0746
 1475TIP3    H128620   2.812   4.556  20.892 -0.2016 -1.2562  1.2470
 1475TIP3    H228621   2.825   4.696  20.950  1.3310 -1.1257  0.6474
 1476TIP3   OH228622   2.902   1.869  20.634  0.4803  0.0606  0.6990
 1476TIP3    H128623   2.994   1.851  20.613  0.7971  1.6115  0.5807
 1476TIP3    H228624   2.867   1.786  20.665  1.7795 -0.6915  0.2263
 1477TIP3   OH228625   2.595   6.371  18.592 -0.5886 -0.0310 -0.7776
 1477TIP3    H128626   2.663   6.435  18.569  1.8587 -1.8622  0.7924
 1477TIP3    H228627   2.608   6.299  18.530 -1.0947 -0.4069 -0.4514
 1478TIP3   OH228628   0.922   3.731  20.128 -0.2854  0.5508  0.0802
 1478TIP3    H128629   0.847   3.771  20.084  0.8520  1.7987 -0.8162
 1478TIP3    H228630   0.981   3.706  20.057 -0.1480 -1.0962  0.7316
 1479TIP3   OH228631   5.815   2.745  17.528  0.1054  0.5754 -0.5036
 1479TIP3    H128632   5.901   2.779  17.502  1.5977 -1.7319  0.9316
 1479TIP3    H228633   5.836   2.662  17.572 -2.9408 -0.3648 -0.6398
 1480TIP3   OH228634   6.574   3.425  20.843 -0.3776  0.1248  0.3819
 1480TIP3    H128635   6.648   3.482  20.825  0.2680 -0.3273  1.5344
 1480TIP3    H228636   6.548   3.446  20.933  0.5111 -2.0486  1.2196
 1481TIP3   OH228637   3.212   0.046  19.823  0.0143  0.1902 -0.5622
 1481TIP3    H128638   3.141   0.023  19.882  0.1948  0.3431 -0.2787
 1481TIP3    H228639   3.181   0.020  19.736 -0.2320 -0.0835 -0.3932
 1482TIP3   OH228640   5.939   5.588  19.464 -0.6258 -0.1228 -0.0689
 1482TIP3    H128641   6.023   5.631  19.483  1.1491 -2.7226 -1.4345
 1482TIP3    H228642   5.878   5.660  19.449  1.2806  1.8816  1.1500
 1483TIP3   OH228643   1.509   5.031  18.629 -0.3808  0.1455  0.1982
 1483TIP3    H128644   1.497   5.069  18.717  2.6935  2.9169 -0.3723
 1483TIP3    H228645   1.495   5.104  18.569  1.7345 -0.5477 -1.2730
 1484TIP3   OH228646   3.393   0.375  18.045 -0.0229 -0.5748  0.4820
 1484TIP3    H128647   3.359   0.390  17.957  0.7682  2.2466  0.5446
 1484TIP3    H228648   3.477   0.331  18.032  0.0499 -0.2447 -0.1866
 1485TIP3   OH228649   2.379   2.626  17.882 -0.0405  0.0630  0.7518
 1485TIP3    H128650   2.320   2.675  17.825  0.9858  2.6392  1.7693
 1485TIP3    H228651   2.429   2.571  17.821  0.5089  2.1706 -0.8362
 1486TIP3   OH228652   6.237   1.239  19.578  0.2675 -0.1851  0.3341
 1486TIP3    H128653   6.329   1.233  19.551  0.3019 -1.4763  0.6479
 1486TIP3    H228654   6.192   1.176  19.522 -0.7579  1.7106 -1.0496
 1487TIP3   OH228655   0.598   5.998  20.023  0.4412  0.3818  0.0649
 1487TIP3    H128656   0.568   5.909  20.004 -0.0008  0.8068 -1.3594
 1487TIP3    H228657   0.581   6.009  20.116  0.2594 -0.9344  0.2078
 1488TIP3   OH228658   3.688   2.973  20.465  0.2420 -0.4026  0.7524
 1488TIP3    H128659   3.676   2.936  20.377 -0.4793  0.6615  0.3820
 1488TIP3    H228660   3.634   3.052  20.465 -1.7295 -1.6448  2.9859
 1489TIP3   OH228661   5.935   1.852  20.703 -0.1171  0.0990 -0.0774
 1489TIP3    H128662   5.854   1.802  20.695  0.6733 -1.2552  0.0828
 1489TIP3    H228663   5.928   1.896  20.788 -1.3926  1.3933 -0.7870
 1490TIP3   OH228664   1.097   0.156  21.305 -0.0780 -0.1564  0.3046
 1490TIP3    H128665   1.191   0.142  21.298  0.0027  0.7187 -0.4018
 1490TIP3    H228666   1.070   0.095  21.374  0.9713 -0.5256  0.4148
 1491TIP3   OH228667   6.217   0.182  19.863 -0.5615 -0.0853  0.2110
 1491TIP3    H128668   6.269   0.211  19.938  0.2518  0.7691 -0.6445
 1491TIP3    H228669   6.131   0.220  19.877 -0.8066 -1.0131  1.3455
 1492TIP3   OH228670   0.559   4.888  20.403  0.3166  0.9857 -0.1641
 1492TIP3    H128671   0.495   4.959  20.398  0.1191  0.8693  0.6677
 1492TIP3    H228672   0.514   4.813  20.364 -0.8525  0.3480  2.2227
 1493TIP3   OH228673   4.768   4.070  19.352  0.6647  0.0455  0.2982
 1493TIP3    H128674   4.795   4.024  19.431 -1.0815 -0.3252  0.7115
 1493TIP3    H228675   4.693   4.021  19.319  0.8089  0.7045 -1.1100
 1494TIP3   OH228676   3.444   4.321  18.581  0.3092 -0.4200  0.1298
 1494TIP3    H128677   3.351   4.332  18.597  0.2033 -1.4806  0.3140
 1494TIP3    H228678   3.483   4.405  18.607 -0.5998  0.0762 -0.0880
 1495TIP3   OH228679   5.448   3.305  19.322  0.4481 -0.1095  0.0772
 1495TIP3    H128680   5.444   3.390  19.366  1.7807  0.4213 -0.7769
 1495TIP3    H228681   5.363   3.264  19.342  0.0704  1.1070  1.0978
 1496TIP3   OH228682   6.417   4.459  19.868 -0.0694 -0.1278 -0.6488
 1496TIP3    H128683   6.395   4.390  19.806 -0.7685  0.3769 -0.9854
 1496TIP3    H228684   6.513   4.465  19.865 -0.1158  0.2231 -2.0658
 1497TIP3   OH228685   0.777   2.264  17.992 -0.6619  0.4065  0.0370
 1497TIP3    H128686   0.711   2.258  17.922 -1.0096  0.6475  0.3408
 1497TIP3    H228687   0.808   2.175  18.003 -1.3879  0.1851  0.3173
 1498TIP3   OH228688   3.878   5.274  19.589  0.2889  0.1373 -0.1839
 1498TIP3    H128689   3.830   5.354  19.607 -2.2975 -1.0619 -1.2856
 1498TIP3    H228690   3.926   5.257  19.670  1.9574  3.3654 -0.3245
 1499TIP3   OH228691   3.520   4.236  18.939 -0.3203 -0.1250  0.0321
 1499TIP3    H128692   3.495   4.223  19.031  0.9582 -1.4723  0.2419
 1499TIP3    H228693   3.462   4.177  18.890 -1.0612  0.6580 -0.0501
 1500TIP3   OH228694   2.320   6.129  20.763  0.0498 -0.0795 -0.5589
 1500TIP3    H128695   2.302   6.076  20.685  1.3821 -0.2793 -0.7555
 1500TIP3    H228696   2.253   6.197  20.761 -0.0561 -0.1829 -1.7934
 1501TIP3   OH228697   2.470   0.857  20.094 -0.6276 -0.4119 -0.3127
 1501TIP3    H128698   2.559   0.845  20.127 -0.1251  0.6781 -1.1997
 1501TIP3    H228699   2.450   0.776  20.047 -2.1204 -2.9197  4.0850
 1502TIP3   OH228700   1.016   1.651  21.325 -0.1503 -0.2588  0.0141
 1502TIP3    H128701   1.008   1.602  21.407 -0.0619 -0.8600 -0.3340
 1502TIP3    H228702   1.110   1.656  21.309 -0.2166 -1.6956 -0.9686
 1503TIP3   OH228703   0.313   2.458  20.135 -0.5299  0.0614  0.0043
 1503TIP3    H128704   0.408   2.467  20.135 -0.5451  0.6388 -1.9982
 1503TIP3    H228705   0.280   2.547  20.139 -1.0332 -0.1669  1.5249
 1504TIP3   OH228706   0.243   1.323  20.381  0.2895  0.1727 -0.0349
 1504TIP3    H128707   0.270   1.407  20.345  1.4828 -0.5920 -0.9967
 1504TIP3    H228708   0.324   1.283  20.413 -0.4226 -0.1497  1.4437
 1505TIP3   OH228709   1.610   0.146  19.281 -0.1564 -0.2100 -0.6699
 1505TIP3    H128710   1.579   0.206  19.348 -0.7059 -3.3243  2.1259
 1505TIP3    H228711   1.687   0.189  19.243 -0.8667  2.4473  0.6925
 1506TIP3   OH228712   0.401   0.881  18.557 -0.3421  0.2778 -0.3636
 1506TIP3    H128713   0.386   0.822  18.630  0.6012  1.1809  0.5816
 1506TIP3    H228714   0.349   0.844  18.485 -0.2038 -1.3766  0.3534
 1507TIP3   OH228715   1.127   4.028  17.953  0.6491 -0.1505 -0.0139
 1507TIP3    H128716   1.152   4.101  18.010  0.5582 -0.5899  0.6012
 1507TIP3    H228717   1.188   4.033  17.880  0.9692  0.2367  0.2755
 1508TIP3   OH228718   5.941   3.140  21.010 -0.1394  0.3402  0.2325
 1508TIP3    H128719   5.888   3.081  20.957  3.1144 -1.4473 -1.3763
 1508TIP3    H228720   5.968   3.209  20.949  1.6074 -0.3713  0.1268
 1509TIP3   OH228721   1.010   5.784  21.322  0.1852 -0.1001 -0.9256
 1509TIP3    H128722   1.092   5.783  21.372 -0.8774  2.0986  1.0003
 1509TIP3    H228723   0.969   5.700  21.341  0.2757  0.2898  1.1486
 1510TIP3   OH228724   2.341   1.694  19.810 -0.8221 -0.8187  0.2792
 1510TIP3    H128725   2.281   1.767  19.824 -2.5822 -0.4928 -6.0362
 1510TIP3    H228726   2.284   1.621  19.786  1.1059 -3.3326  2.6968
 1511TIP3   OH228727   1.893   2.653  20.900  0.0323  0.7268 -0.3340
 1511TIP3    H128728   1.955   2.698  20.958  0.5074  0.7463 -0.8604
 1511TIP3    H228729   1.807   2.670  20.941  0.5218 -1.1206  1.6248
 1512TIP3   OH228730   0.230   3.027  19.442  0.3123  0.4061  0.4589
 1512TIP3    H128731   0.269   3.074  19.369 -0.7903 -1.1342 -1.1837
 1512TIP3    H228732   0.167   3.090  19.480  0.9802  1.2505  0.1995
 1513TIP3   OH228733   0.952   6.334  19.694 -0.0698 -0.2052 -0.5619
 1513TIP3    H128734   0.979   6.378  19.614  2.2799 -2.1844 -0.9555
 1513TIP3    H228735   0.870   6.290  19.671  0.7103 -0.9608 -1.9637
 1514TIP3   OH228736   1.877   2.375  19.364 -0.6275 -0.5190 -0.1691
 1514TIP3    H128737   1.846   2.465  19.362 -1.1352 -0.6729 -2.3382
 1514TIP3    H228738   1.818   2.328  19.305  2.1224 -1.3427 -2.5045
 1515TIP3   OH228739   0.454   3.510  20.216 -0.4747  0.3428  0.0427
 1515TIP3    H128740   0.524   3.453  20.247 -0.4159  1.0190  1.2093
 1515TIP3    H228741   0.499   3.590  20.189 -0.8209  1.0465  1.4439
 1516TIP3   OH228742   1.965   1.555  18.131 -0.0300  0.2346 -0.1980
 1516TIP3    H128743   1.925   1.470  18.109 -2.5233  1.0494  0.8220
 1516TIP3    H228744   1.954   1.562  18.226  3.1610  0.3272  0.2731
 1517TIP3   OH228745   6.225   1.053  18.321 -0.6173 -0.5506 -0.2927
 1517TIP3    H128746   6.292   0.986  18.319 -0.7844 -0.7493  0.4000
 1517TIP3    H228747   6.251   1.111  18.393  0.3908  1.0543 -1.8523
 1518TIP3   OH228748   6.017   6.601  18.548 -0.0267 -0.2635  0.1034
 1518TIP3    H128749   6.052   6.603  18.637  0.8666  1.6037 -0.2454
 1518TIP3    H228750   6.093   6.579  18.493 -0.4849 -1.0066 -0.2434
 1519TIP3   OH228751   3.033   0.947  20.022  0.5375 -0.1392  0.7712
 1519TIP3    H128752   2.979   1.023  20.002  0.5992  0.3481  2.3301
 1519TIP3    H228753   3.119   0.968  19.987  0.7394  0.8424  1.8031
 1520TIP3   OH228754   0.660   0.526  20.548 -0.2640  0.0001 -0.5479
 1520TIP3    H128755   0.583   0.563  20.504  0.3718 -0.5413 -2.1889
 1520TIP3    H228756   0.623   0.471  20.617 -1.3745 -0.2046 -1.2611
 1521TIP3   OH228757   4.915   6.173  20.401 -0.3600  0.6394 -0.4110
 1521TIP3    H128758   4.898   6.189  20.494 -0.9795  0.6274 -0.5216
 1521TIP3    H228759   4.908   6.078  20.392  0.9745  0.4967 -0.2249
 1522TIP3   OH228760   1.786   1.176  19.163  0.1806  0.0801 -0.0877
 1522TIP3    H128761   1.712   1.171  19.223  3.0713  1.2314  3.9840
 1522TIP3    H228762   1.841   1.101  19.186  1.2687  0.3912 -1.5388
 1523TIP3   OH228763   5.800   2.631  20.828  0.1488 -0.8503  0.2401
 1523TIP3    H128764   5.740   2.591  20.765 -0.5888 -0.3622  0.6146
 1523TIP3    H228765   5.795   2.575  20.905 -0.2829 -0.4903  0.4807
 1524TIP3   OH228766   0.684   2.798  20.364  0.0348 -0.1840  0.2935
 1524TIP3    H128767   0.728   2.882  20.353  0.1988 -0.3302 -0.1707
 1524TIP3    H228768   0.743   2.746  20.417  0.4502 -0.3938 -0.3598
 1525TIP3   OH228769   4.210   6.397  18.740  0.0572 -0.4327  0.4165
 1525TIP3    H128770   4.208   6.490  18.763 -0.0165 -0.6223  1.2140
 1525TIP3    H228771   4.230   6.396  18.647  2.5111  0.3096  0.8614
 1526TIP3   OH228772   1.756   5.711  20.158 -0.4868  0.1145 -0.3146
 1526TIP3    H128773   1.835   5.668  20.127 -0.6690  0.5938 -1.4714
 1526TIP3    H228774   1.788   5.784  20.212 -0.1683 -0.5209  0.3661
 1527TIP3   OH228775   1.959   4.250  20.163  0.0122 -0.3733 -0.2268
 1527TIP3    H128776   2.047   4.263  20.128  1.1748 -0.3856  2.4551
 1527TIP3    H228777   1.942   4.157  20.152 -0.3451 -0.1234 -2.1126
 1528TIP3   OH228778   3.152   0.424  18.908  0.2210  0.3197  0.2265
 1528TIP3    H128779   3.184   0.422  18.998 -1.3472  0.9593  0.8392
 1528TIP3    H228780   3.211   0.366  18.860 -0.4961 -2.2904  2.2313
 1529TIP3   OH228781   0.978   2.861  20.478 -0.1527 -0.0068 -0.0387
 1529TIP3    H128782   1.059   2.896  20.514  1.0959 -0.9760 -1.7603
 1529TIP3    H228783   0.958   2.917  20.403 -0.2231 -0.6573 -0.5228
 1530TIP3   OH228784   0.098   0.639  18.772 -0.4501 -0.6183  0.3711
 1530TIP3    H128785   0.045   0.669  18.698 -0.1801 -0.7777  0.1075
 1530TIP3    H228786   0.038   0.588  18.827 -0.9791  0.6165  0.9670
 1531TIP3   OH228787   3.220   2.281  19.900 -0.3239 -0.6233  0.0644
 1531TIP3    H128788   3.174   2.328  19.830 -0.3728  0.4873  0.8146
 1531TIP3    H228789   3.276   2.347  19.940  2.3768 -2.0371 -1.1336
 1532TIP3   OH228790   6.651   1.238  20.342 -0.1325  0.1155  0.2283
 1532TIP3    H128791   6.741   1.257  20.369  0.1903 -2.3774  1.2137
 1532TIP3    H228792   6.660   1.208  20.251  0.0901 -0.3092  0.3848
 1533TIP3   OH228793   2.280   5.868  19.616 -0.0314  0.3744 -0.2343
 1533TIP3    H128794   2.241   5.795  19.663  0.7256  0.5517  0.6951
 1533TIP3    H228795   2.358   5.831  19.573 -0.2183  0.4135 -0.6169
 1534TIP3   OH228796   6.012   2.092  17.888 -0.0541  0.3561  0.0473
 1534TIP3    H128797   6.034   2.068  17.978  0.7063  0.7285 -0.0289
 1534TIP3    H228798   5.918   2.080  17.882 -0.0455 -0.1396  0.7505
 1535TIP3   OH228799   5.494   2.561  21.325  0.3518 -0.0729 -0.1110
 1535TIP3    H128800   5.415   2.507  21.331 -0.9374  1.7107  0.0652
 1535TIP3    H228801   5.543   2.542  21.405 -0.8835  0.1802  0.7396
 1536TIP3   OH228802   2.427   6.275  21.088  0.0525 -0.5836  0.3193
 1536TIP3    H128803   2.395   6.352  21.040  0.5838 -0.5341  0.0334
 1536TIP3    H228804   2.349   6.239  21.130 -0.5387 -0.9978 -1.0873
 1537TIP3   OH228805   4.586   1.887  17.628 -0.2548 -0.3485 -0.3771
 1537TIP3    H128806   4.604   1.794  17.645  1.1816 -0.2678 -1.2413
 1537TIP3    H228807   4.636   1.906  17.548 -0.6879  1.1180 -0.3156
 1538TIP3   OH228808   4.651   5.087  20.777  0.6175  0.1745 -0.8106
 1538TIP3    H128809   4.587   5.022  20.750 -0.6924  0.0393  2.2049
 1538TIP3    H228810   4.650   5.152  20.707 -2.2137 -0.2684 -1.3067
 1539TIP3   OH228811   1.968   2.046  19.715  0.7007  0.4960  0.0777
 1539TIP3    H128812   2.036   2.036  19.782  2.1404  1.4367 -1.1828
 1539TIP3    H228813   2.016   2.053  19.633 -1.0715 -2.5846 -1.3744
 1540TIP3   OH228814   0.842   4.568  18.565 -0.3657  0.6087 -0.9568
 1540TIP3    H128815   0.847   4.484  18.518  0.3781  0.1849 -0.1595
 1540TIP3    H228816   0.770   4.556  18.627  1.3467 -0.4338  0.9494
 1541TIP3   OH228817   3.826   0.234  19.217 -0.1622 -0.6332  0.4132
 1541TIP3    H128818   3.833   0.326  19.195  1.4068 -0.7339  0.3500
 1541TIP3    H228819   3.850   0.188  19.137  1.2656 -1.0429  1.0388
 1542TIP3   OH228820   4.830   4.444  18.266 -0.5519 -1.1688  0.0038
 1542TIP3    H128821   4.895   4.423  18.333 -0.3293  1.0594  0.5702
 1542TIP3    H228822   4.749   4.404  18.298  0.1645 -2.5230  0.1578
 1543TIP3   OH228823   2.579   5.337  18.840 -0.3114 -0.0626 -0.6025
 1543TIP3    H128824   2.577   5.293  18.925 -2.6319  1.4443  0.2078
 1543TIP3    H228825   2.638   5.411  18.853 -1.2025  0.5621 -0.0777
 1544TIP3   OH228826   6.113   1.089  18.822 -0.5673 -0.3704 -0.2344
 1544TIP3    H128827   6.178   1.106  18.754 -1.9715  3.0697 -0.9358
 1544TIP3    H228828   6.041   1.047  18.776 -0.0799 -1.4521 -0.0494
 1545TIP3   OH228829   1.355   3.480  20.751  0.0277  0.3408  0.6295
 1545TIP3    H128830   1.285   3.502  20.812 -0.0968 -1.1933  1.0645
 1545TIP3    H228831   1.402   3.407  20.791  0.4018 -0.2279 -0.7583
 1546TIP3   OH228832   2.414   1.921  18.990  0.3546  0.6581  0.1340
 1546TIP3    H128833   2.426   1.828  18.969 -2.5046  0.0442  0.8084
 1546TIP3    H228834   2.453   1.931  19.077 -0.8183 -0.3654  0.8006
 1547TIP3   OH228835   4.048   1.264  17.998  0.2046  0.7063 -0.4452
 1547TIP3    H128836   4.125   1.270  17.942  0.9423 -1.0326  0.3399
 1547TIP3    H228837   4.078   1.290  18.085  0.9316 -3.3443  0.7030
 1548TIP3   OH228838   1.797   3.572  20.055 -0.1094  0.4013  0.2722
 1548TIP3    H128839   1.716   3.547  20.099  0.4657  0.8140  1.6481
 1548TIP3    H228840   1.769   3.614  19.974 -1.2302 -0.0575  0.4010
 1549TIP3   OH228841   4.208   1.473  20.284  0.1845 -0.2592 -0.4054
 1549TIP3    H128842   4.231   1.558  20.246  0.3656 -0.1377 -0.0256
 1549TIP3    H228843   4.283   1.417  20.264  0.7673  0.1016  0.7159
 1550TIP3   OH228844   2.666   2.125  20.527  0.1203 -0.2306  0.5673
 1550TIP3    H128845   2.614   2.059  20.481 -0.8879 -1.1257  2.8316
 1550TIP3    H228846   2.607   2.199  20.537  0.7563  0.4666 -0.6306
 1551TIP3   OH228847   5.617   5.364  19.882  0.0360 -0.2648  0.0102
 1551TIP3    H128848   5.541   5.420  19.900  1.2332  1.1301  0.9091
 1551TIP3    H228849   5.647   5.391  19.795 -0.3745 -0.7245 -0.2859
 1552TIP3   OH228850   2.325   5.559  20.287  1.0406  0.0980 -0.3920
 1552TIP3    H128851   2.314   5.583  20.379  0.7228 -3.5456  0.6612
 1552TIP3    H228852   2.420   5.557  20.275  1.0831  1.8677 -0.5921
 1553TIP3   OH228853   0.619   6.017  18.994 -0.0873  0.8861 -0.1546
 1553TIP3    H128854   0.572   6.017  19.078  1.1808  0.5823  0.5769
 1553TIP3    H228855   0.647   6.108  18.983 -0.2777  0.9319 -0.2610
 1554TIP3   OH228856   2.217   5.068  20.549 -0.2383 -0.1917 -0.0432
 1554TIP3    H128857   2.132   5.080  20.592 -0.3831  0.4064 -0.4704
 1554TIP3    H228858   2.220   5.139  20.484  1.3298  0.8548  1.1203
 1555TIP3   OH228859   4.728   2.405  18.243 -0.3757  0.1409 -0.2525
 1555TIP3    H128860   4.804   2.386  18.297 -1.7721 -1.2084  1.3656
 1555TIP3    H228861   4.718   2.327  18.188 -0.7619  0.1888 -0.2543
 1556TIP3   OH228862   1.406   5.981  21.059 -0.5446  0.5665  0.6175
 1556TIP3    H128863   1.319   5.988  21.098 -0.8539  1.5154 -0.1781
 1556TIP3    H228864   1.426   6.071  21.031 -0.6265 -0.1667 -1.9666
 1557TIP3   OH228865   5.303   4.151  19.655  0.3654 -0.4039  0.5040
 1557TIP3    H128866   5.318   4.178  19.746  0.9484  1.2046 -0.0298
 1557TIP3    H228867   5.208   4.156  19.645  0.3355 -0.1267  0.8935
 1558TIP3   OH228868   0.492   5.593  20.233 -0.2694  0.0736 -0.1235
 1558TIP3    H128869   0.440   5.568  20.309  0.2555  0.3414  0.3305
 1558TIP3    H228870   0.555   5.521  20.222 -1.4880 -0.8503 -1.4128
 1559TIP3   OH228871   4.320   5.622  19.947 -0.3124  0.2118  0.0558
 1559TIP3    H128872   4.286   5.535  19.923 -0.0954 -0.2944  1.4782
 1559TIP3    H228873   4.353   5.658  19.865 -2.9464  0.1484 -1.1390
 1560TIP3   OH228874   0.509   4.447  20.095  0.4473 -0.2858 -0.7784
 1560TIP3    H128875   0.511   4.481  20.005 -0.2449 -0.0191 -0.7055
 1560TIP3    H228876   0.586   4.391  20.102  0.2969 -0.6133 -1.6596
 1561TIP3   OH228877   0.898   5.826  21.069  0.9571 -0.3303  0.4687
 1561TIP3    H128878   0.954   5.900  21.047  2.9836 -2.3296 -1.6375
 1561TIP3    H228879   0.911   5.812  21.163 -0.3896  2.5755  1.1944
 1562TIP3   OH228880   6.302   3.199  18.975  0.0126 -0.3461  0.3390
 1562TIP3    H128881   6.293   3.256  19.052  0.3257  1.0069 -0.5780
 1562TIP3    H228882   6.380   3.232  18.930 -0.9852 -0.0916 -1.3337
 1563TIP3   OH228883   5.679   4.760  19.007  0.2047 -0.1501 -0.0631
 1563TIP3    H128884   5.763   4.719  19.028  1.0876 -0.0066 -2.8995
 1563TIP3    H228885   5.625   4.688  18.975  0.4206  0.2116 -1.3246
 1564TIP3   OH228886   0.536   3.788  19.157  0.3379  0.4533 -0.2290
 1564TIP3    H128887   0.522   3.738  19.076  0.9913 -1.0476  0.5443
 1564TIP3    H228888   0.450   3.825  19.178 -0.6967 -1.9950  0.1937
 1565TIP3   OH228889   0.911   4.694  19.095 -0.4872  0.1576 -0.6675
 1565TIP3    H128890   0.964   4.614  19.098 -0.1093  0.4157  1.4288
 1565TIP3    H228891   0.974   4.765  19.087 -0.2699  0.5359  2.8076
 1566TIP3   OH228892   4.943   4.143  18.327 -0.0490 -0.0860  0.0193
 1566TIP3    H128893   4.934   4.153  18.232 -2.4672 -0.1871  0.1804
 1566TIP3    H228894   5.016   4.082  18.338  0.1022 -0.2692 -1.7770
 1567TIP3   OH228895   1.617   3.664  18.253 -0.3101 -0.3716 -0.0161
 1567TIP3    H128896   1.642   3.692  18.165 -1.0115 -0.6172 -0.3042
 1567TIP3    H228897   1.677   3.710  18.311 -0.0915  0.0962 -0.6019
 1568TIP3   OH228898   4.327   2.039  18.801 -0.5117 -0.0902  0.6890
 1568TIP3    H128899   4.411   2.026  18.755 -1.2267  0.0649 -0.7171
 1568TIP3    H228900   4.321   1.964  18.860 -0.2441 -1.1564 -0.5755
 1569TIP3   OH228901   5.130   6.483  20.439  1.1238  0.1678  0.9708
 1569TIP3    H128902   5.109   6.573  20.465  0.5270 -0.0507  1.2631
 1569TIP3    H228903   5.087   6.428  20.504 -1.9044 -0.4740 -1.3199
 1570TIP3   OH228904   2.247   3.676  18.515  0.6028 -0.6136  0.3690
 1570TIP3    H128905   2.277   3.664  18.605  1.6956 -0.1720  0.0824
 1570TIP3    H228906   2.207   3.763  18.515 -2.1091 -1.7657  1.0959
 1571TIP3   OH228907   0.353   2.080  19.451  0.2167  0.2960 -0.3231
 1571TIP3    H128908   0.308   1.995  19.447 -0.2002  0.4841  0.2363
 1571TIP3    H228909   0.329   2.124  19.370 -0.9824  0.5635  0.1494
 1572TIP3   OH228910   1.579   1.981  20.149 -0.5005 -0.7658  0.1886
 1572TIP3    H128911   1.599   1.959  20.058 -1.2783 -3.8712  0.6696
 1572TIP3    H228912   1.540   2.068  20.144  2.8196  0.8155 -1.9577
 1573TIP3   OH228913   3.944   5.281  20.650  0.1227  0.2704  0.3998
 1573TIP3    H128914   3.950   5.194  20.612  2.9043  1.2442 -1.6840
 1573TIP3    H228915   3.978   5.270  20.739 -0.1460 -0.8504  0.3847
 1574TIP3   OH228916   1.903   6.191  18.418 -0.2239  0.7161 -0.1445
 1574TIP3    H128917   1.922   6.273  18.374  0.1556  0.3578 -0.6539
 1574TIP3    H228918   1.837   6.149  18.363  0.7733 -0.0612 -0.7835
 1575TIP3   OH228919   2.584   2.053  20.829 -0.4868 -0.0104 -0.0352
 1575TIP3    H128920   2.665   2.078  20.785 -0.7704 -0.9856 -1.1420
 1575TIP3    H228921   2.611   1.988  20.894 -0.1915  0.7894  0.6678
 1576TIP3   OH228922   1.605   2.797  20.423  0.0710 -0.0156 -0.0830
 1576TIP3    H128923   1.644   2.713  20.400 -1.2131 -0.6514 -0.0372
 1576TIP3    H228924   1.649   2.823  20.504  0.3883 -0.7043 -0.0315
 1577TIP3   OH228925   1.897   3.583  18.008  0.1507 -0.2601 -0.3769
 1577TIP3    H128926   1.985   3.557  17.982  0.3740  0.0425  0.0644
 1577TIP3    H228927   1.878   3.660  17.955 -0.7289 -1.5878 -2.0947
 1578TIP3   OH228928   3.812   5.217  18.471 -0.2807 -0.0387  0.3632
 1578TIP3    H128929   3.716   5.224  18.472 -0.1840  2.2141 -0.3060
 1578TIP3    H228930   3.830   5.128  18.502 -2.6394 -1.1751 -1.2286
 1579TIP3   OH228931   5.826   1.905  18.841  0.0342  0.0657  0.0245
 1579TIP3    H128932   5.902   1.963  18.835 -0.3827  0.7664  1.1504
 1579TIP3    H228933   5.821   1.881  18.933 -0.6406 -0.6147 -0.1775
 1580TIP3   OH228934   0.459   0.883  19.020 -1.0390  0.1878  0.1955
 1580TIP3    H128935   0.534   0.850  18.971 -0.6095  0.3381  0.7543
 1580TIP3    H228936   0.397   0.911  18.952 -0.9001 -0.6009 -0.2687
 1581TIP3   OH228937   1.351   1.485  20.460  0.2590 -0.4037  0.3928
 1581TIP3    H128938   1.404   1.564  20.451  0.1652 -0.1586  1.7545
 1581TIP3    H228939   1.302   1.498  20.541  0.2189 -1.8501  0.6303
 1582TIP3   OH228940   4.503   3.632  20.151  0.3965 -0.2347 -0.6518
 1582TIP3    H128941   4.524   3.717  20.112  2.9267 -1.2462 -1.6968
 1582TIP3    H228942   4.522   3.643  20.244  0.9516  0.2887 -0.8183
 1583TIP3   OH228943   4.494   1.501  18.546 -0.4276 -0.2170 -0.3516
 1583TIP3    H128944   4.445   1.582  18.560  0.1721 -0.1712  1.8854
 1583TIP3    H228945   4.580   1.530  18.516 -0.5307 -0.0849 -0.5209
 1584TIP3   OH228946   1.191   5.938  19.212  0.0823  0.3654 -0.1783
 1584TIP3    H128947   1.213   6.016  19.262  0.8573  0.7221 -1.0312
 1584TIP3    H228948   1.210   5.865  19.271  0.0200  0.8073  0.3861
 1585TIP3   OH228949   3.745   1.665  18.306  0.3687 -0.2485 -0.1521
 1585TIP3    H128950   3.828   1.652  18.260 -0.5902 -1.1045 -1.7426
 1585TIP3    H228951   3.769   1.674  18.398  2.3325  0.9705 -0.7269
 1586TIP3   OH228952   3.391   2.630  18.223 -0.6859  0.1665  0.4661
 1586TIP3    H128953   3.405   2.580  18.142 -2.8061 -2.4009  1.5300
 1586TIP3    H228954   3.303   2.667  18.213 -1.2793 -0.7970  1.8331
 1587TIP3   OH228955   2.464   1.893  18.697  1.1405 -0.3597  0.9454
 1587TIP3    H128956   2.505   1.806  18.693  0.4103 -0.7855  2.3472
 1587TIP3    H228957   2.456   1.912  18.790 -0.3815  0.4175  0.6865
 1588TIP3   OH228958   2.048   6.625  18.460 -0.1799  0.3132  0.3908
 1588TIP3    H128959   2.081   6.653  18.545  3.2035  1.0172 -0.9940
 1588TIP3    H228960   2.011   6.704  18.421 -1.1536  0.1302  0.9066
 1589TIP3   OH228961   6.114   1.213  20.831  0.1982 -0.4972 -0.1783
 1589TIP3    H128962   6.071   1.228  20.747  1.0236  0.0748 -0.5028
 1589TIP3    H228963   6.207   1.215  20.812  0.4097  0.2791  0.8498
 1590TIP3   OH228964   4.812   1.247  20.045 -0.1985 -0.6443 -1.0747
 1590TIP3    H128965   4.902   1.214  20.044  0.5708  1.2664 -0.3589
 1590TIP3    H228966   4.807   1.306  19.970  0.2933  1.8594  0.7175
 1591TIP3   OH228967   1.554   2.500  17.292  0.5366  0.4499  0.3567
 1591TIP3    H128968   1.623   2.533  17.234 -0.0310  2.0394  0.5191
 1591TIP3    H228969   1.556   2.405  17.282  0.4364  0.6707 -2.2845
 1592TIP3   OH228970   6.294   6.429  19.381  0.2208  0.5588 -0.1513
 1592TIP3    H128971   6.209   6.401  19.416  1.0181 -2.2796 -0.2445
 1592TIP3    H228972   6.311   6.370  19.308  0.7735  3.3130 -2.4293
 1593TIP3   OH228973   6.427   6.430  20.806 -0.6326 -0.2104  0.1297
 1593TIP3    H128974   6.450   6.360  20.867  0.0419  0.0716  0.2006
 1593TIP3    H228975   6.364   6.484  20.854  0.3199  0.3307  0.7917
 1594TIP3   OH228976   2.603   3.164  19.187 -0.3277  0.2256 -0.0254
 1594TIP3    H128977   2.531   3.227  19.193 -2.2377 -1.9163  1.0805
 1594TIP3    H228978   2.579   3.108  19.113  0.9360  0.2979 -0.5129
 1595TIP3   OH228979   3.140   5.450  18.176 -0.5030  0.3242 -0.1041
 1595TIP3    H128980   3.127   5.410  18.262 -1.4765 -1.5136 -1.0547
 1595TIP3    H228981   3.052   5.455  18.138 -0.4504  3.3619 -0.1283
 1596TIP3   OH228982   1.703   4.590  19.223 -0.6499  0.0151 -0.3437
 1596TIP3    H128983   1.688   4.646  19.146 -0.6492 -1.4556 -1.4674
 1596TIP3    H228984   1.789   4.551  19.208 -1.1102 -1.1094 -0.1460
 1597TIP3   OH228985   6.627   1.814  20.130  0.2544 -0.6670 -0.3323
 1597TIP3    H128986   6.705   1.763  20.111 -0.7210 -2.0536 -0.7272
 1597TIP3    H228987   6.659   1.888  20.182  1.6674 -1.8123  0.4895
 1598TIP3   OH228988   1.881   4.447  19.062  0.3441  0.1082 -0.1530
 1598TIP3    H128989   1.848   4.500  18.989 -2.4768  0.7291  1.4121
 1598TIP3    H228990   1.887   4.358  19.027  1.5476  0.7885 -1.7958
 1599TIP3   OH228991   2.026   6.256  19.525 -0.5730  0.1540  0.5530
 1599TIP3    H128992   2.016   6.161  19.526  1.6694 -0.1757 -0.5679
 1599TIP3    H228993   2.059   6.275  19.437  0.2316  1.8014  1.1805
 1600TIP3   OH228994   1.942   2.686  18.077 -0.0858 -0.3454 -0.1158
 1600TIP3    H128995   1.951   2.741  17.999 -1.5139 -0.5293 -0.4432
 1600TIP3    H228996   1.962   2.598  18.047  1.2853 -0.1574  0.1963
 1601TIP3   OH228997   0.679   2.176  19.443  0.6974  0.1718 -0.0417
 1601TIP3    H128998   0.610   2.152  19.504  0.4383  1.3039  0.1381
 1601TIP3    H228999   0.753   2.200  19.500  1.4542 -1.5798 -0.2397
 1602TIP3   OH229000   2.432   2.486  18.506 -0.1551 -0.3914 -0.2746
 1602TIP3    H129001   2.495   2.475  18.435 -1.4729 -0.0035 -1.5349
 1602TIP3    H229002   2.356   2.527  18.465 -0.2428  1.6832  1.7209
 1603TIP3   OH229003   2.904   4.363  19.194 -0.1954  0.5754  0.3238
 1603TIP3    H129004   2.988   4.376  19.238 -0.5140  1.7924  0.6060
 1603TIP3    H229005   2.861   4.293  19.244  1.0686 -0.8275 -0.4745
 1604TIP3   OH229006   5.058   5.346  18.535  0.0416  0.2512  0.0371
 1604TIP3    H129007   5.071   5.439  18.518  1.4185  0.0627 -0.0566
 1604TIP3    H229008   5.030   5.342  18.626  0.7419  0.7041  0.2736
 1605TIP3   OH229009   5.397   0.852  20.319  0.3566  0.1544  0.3629
 1605TIP3    H129010   5.373   0.907  20.245 -0.7830  0.3695  0.8823
 1605TIP3    H229011   5.391   0.762  20.285 -0.5426  0.2368  0.3036
 1606TIP3   OH229012   1.164   3.023  18.586 -0.2823  0.1821  0.0939
 1606TIP3    H129013   1.211   2.997  18.665 -1.0666  1.1986  0.9158
 1606TIP3    H229014   1.104   2.951  18.569  0.6949 -0.5712 -0.2723
 1607TIP3   OH229015   5.592   0.211  19.419 -0.1072  0.2555 -0.5540
 1607TIP3    H129016   5.590   0.292  19.368 -0.0076 -1.3339 -3.2980
 1607TIP3    H229017   5.538   0.150  19.368 -1.3873 -1.0352  2.1657
 1608TIP3   OH229018   4.251   3.376  19.317 -0.3583  0.4667  0.4465
 1608TIP3    H129019   4.331   3.381  19.369 -0.3085  0.2950  0.3894
 1608TIP3    H229020   4.281   3.343  19.232 -0.4084  0.9294  0.2473
 1609TIP3   OH229021   4.666   0.332  19.516  0.1261 -0.2719  0.0812
 1609TIP3    H129022   4.635   0.337  19.606  0.6816  0.0671  0.2586
 1609TIP3    H229023   4.652   0.241  19.491  0.4431 -0.4912  0.6828
 1610TIP3   OH229024   2.967   4.972  18.947 -0.4389  0.0831 -0.2223
 1610TIP3    H129025   2.972   4.887  18.990  0.3033  0.4370  0.4080
 1610TIP3    H229026   2.891   4.965  18.890 -0.7232 -0.8090  0.2462
 1611TIP3   OH229027   4.378   2.683  20.466  0.4589 -0.2450  0.2597
 1611TIP3    H129028   4.330   2.601  20.457  0.1426 -0.0192 -0.1551
 1611TIP3    H229029   4.424   2.694  20.382 -0.5294  0.6415 -0.1902
 1612TIP3   OH229030   3.015   3.220  20.698 -0.0247  0.4828 -0.1907
 1612TIP3    H129031   2.963   3.268  20.762  1.2877  1.0123  0.5082
 1612TIP3    H229032   3.001   3.128  20.720  1.1580  0.6647  1.5174
 1613TIP3   OH229033   6.131   2.850  20.474  0.3106  0.4265  0.1772
 1613TIP3    H129034   6.089   2.792  20.538  0.2001 -2.0200 -1.9640
 1613TIP3    H229035   6.096   2.937  20.495 -0.8966 -0.5092  2.4362
 1614TIP3   OH229036   2.452   1.109  18.239 -0.5803 -0.2640  0.1802
 1614TIP3    H129037   2.492   1.196  18.245  1.1249 -0.9035 -1.3077
 1614TIP3    H229038   2.358   1.127  18.233 -0.2199  1.5421 -0.9728
 1615TIP3   OH229039   0.893   0.417  21.033 -0.3732  0.0150  0.6045
 1615TIP3    H129040   0.804   0.445  21.013 -0.5654 -0.6614  0.4873
 1615TIP3    H229041   0.938   0.497  21.059 -1.3529  0.1843  1.9208
 1616TIP3   OH229042   1.385   4.283  18.647 -0.1645  0.1477  0.3505
 1616TIP3    H129043   1.457   4.294  18.709  0.1450 -0.2829  0.0719
 1616TIP3    H229044   1.372   4.370  18.609 -0.3457  0.4124  1.0000
 1617TIP3   OH229045   3.701   6.493  19.712 -0.5038  0.3738 -0.3483
 1617TIP3    H129046   3.715   6.581  19.678 -0.7899  0.6285  0.1845
 1617TIP3    H229047   3.609   6.493  19.740  0.1259  0.6734  1.8568
 1618TIP3   OH229048   5.438   6.112  20.721 -0.0668 -0.0649  0.6413
 1618TIP3    H129049   5.387   6.166  20.781 -1.5734  0.5699 -1.1123
 1618TIP3    H229050   5.391   6.029  20.717 -1.2607  0.6442 -1.2579
 1619TIP3   OH229051   1.228   3.598  19.494  0.4270  0.0301  0.4297
 1619TIP3    H129052   1.210   3.672  19.437 -1.5398  0.0373  1.0067
 1619TIP3    H229053   1.283   3.540  19.441  2.3562  2.0091  0.1000
 1620TIP3   OH229054   4.428   2.317  17.106  0.1836 -0.1754 -0.1307
 1620TIP3    H129055   4.387   2.291  17.189 -1.6586  1.2215 -0.5196
 1620TIP3    H229056   4.450   2.235  17.063 -2.3241 -1.0878  0.1284
 1621TIP3   OH229057   3.398   3.320  18.154  0.2754  0.0228 -0.3018
 1621TIP3    H129058   3.485   3.342  18.189  0.0429  0.1233  0.2330
 1621TIP3    H229059   3.356   3.270  18.224 -0.7169  1.4232  0.1552
 1622TIP3   OH229060   3.755   6.178  19.211 -0.3446  0.0863 -0.3176
 1622TIP3    H129061   3.773   6.166  19.304 -1.2842  1.2420  0.0392
 1622TIP3    H229062   3.674   6.131  19.196 -0.3221  0.1050 -0.4993
 1623TIP3   OH229063   2.080   4.473  18.549 -0.0289 -0.2930 -0.0235
 1623TIP3    H129064   2.174   4.488  18.550 -0.0453 -0.2075  0.4504
 1623TIP3    H229065   2.042   4.552  18.511 -0.0513  0.5283  1.6329
 1624TIP3   OH229066   5.339   2.298  20.686 -0.2761 -0.0884  0.0868
 1624TIP3    H129067   5.359   2.216  20.641 -1.4646 -1.3053  1.6535
 1624TIP3    H229068   5.414   2.313  20.743 -0.2338 -0.3003  0.0868
 1625TIP3   OH229069   5.674   2.205  20.117 -0.8476 -0.0436  0.2068
 1625TIP3    H129070   5.768   2.200  20.130 -0.7543 -1.2047 -0.7044
 1625TIP3    H229071   5.654   2.298  20.115  0.3291  0.2140  0.1318
 1626TIP3   OH229072   3.607   5.075  18.685 -0.1644 -0.2162  0.2558
 1626TIP3    H129073   3.573   5.089  18.597  0.5361 -0.3132 -0.0406
 1626TIP3    H229074   3.692   5.033  18.671 -0.2176 -0.5856  0.9906
 1627TIP3   OH229075   5.024   5.190  20.716  0.5608  0.0627  0.1178
 1627TIP3    H129076   5.032   5.255  20.785  0.2235 -0.4159  0.6140
 1627TIP3    H229077   4.932   5.193  20.690  0.4069 -0.6566  0.5798
 1628TIP3   OH229078   1.674   1.012  20.373 -0.2189 -0.4614 -0.5725
 1628TIP3    H129079   1.746   1.031  20.313 -0.3314  0.4984 -0.4303
 1628TIP3    H229080   1.687   1.075  20.445 -0.9918 -0.5239 -0.3776
 1629TIP3   OH229081   1.195   2.778  18.336 -0.1374 -0.3005  0.0093
 1629TIP3    H129082   1.281   2.738  18.345  0.2987  0.7810  0.8862
 1629TIP3    H229083   1.208   2.848  18.271 -0.6705 -0.9658 -0.8262
 1630TIP3   OH229084   1.123   0.552  19.264 -0.3641 -0.1861 -0.4829
 1630TIP3    H129085   1.043   0.549  19.316 -0.6632 -0.7474 -0.9639
 1630TIP3    H229086   1.169   0.631  19.294 -2.3037  1.6202 -1.9322
 1631TIP3   OH229087   5.179   6.369  18.214  0.2228 -0.4224 -0.2815
 1631TIP3    H129088   5.092   6.385  18.179 -1.3510  1.1619  3.7132
 1631TIP3    H229089   5.213   6.295  18.163 -3.2776 -0.8786 -2.2287
 1632TIP3   OH229090   5.462   2.459  17.725  0.0981 -0.2141  0.5146
 1632TIP3    H129091   5.522   2.441  17.797  1.5307  2.0464  0.0014
 1632TIP3    H229092   5.510   2.520  17.669 -2.6760  1.7544  0.0613
 1633TIP3   OH229093   5.818   3.930  20.670 -0.0413 -0.0973  0.3893
 1633TIP3    H129094   5.823   3.896  20.760  0.3825 -0.7115  0.1414
 1633TIP3    H229095   5.902   3.904  20.630 -0.7787 -1.0561 -0.5980
 1634TIP3   OH229096   0.626   5.626  17.737  0.0834  0.0835  0.1108
 1634TIP3    H129097   0.553   5.564  17.739  0.3644 -0.2985 -0.7132
 1634TIP3    H229098   0.596   5.701  17.788 -0.9976  0.0557 -0.4477
 1635TIP3   OH229099   6.143   5.971  20.246  0.3964 -0.0570  0.1458
 1635TIP3    H129100   6.169   6.055  20.284 -0.8673  0.9082 -1.0299
 1635TIP3    H229101   6.153   5.984  20.151 -0.4173 -1.0214 -0.0797
 1636TIP3   OH229102   0.308   4.279  21.186 -0.0542 -0.3329 -0.7073
 1636TIP3    H129103   0.265   4.358  21.217 -0.6429 -0.6410 -0.7347
 1636TIP3    H229104   0.255   4.207  21.221  0.6429 -0.7266 -0.4321
 1637TIP3   OH229105   6.001   3.519  19.633 -0.0107  0.5257 -0.0409
 1637TIP3    H129106   5.973   3.428  19.638 -0.2139  0.6397  1.2794
 1637TIP3    H229107   5.933   3.563  19.581  0.4175 -0.1767 -1.2294
 1638TIP3   OH229108   5.178   3.386  19.354  0.1666 -0.3585 -0.2398
 1638TIP3    H129109   5.118   3.397  19.428 -1.4759 -1.3529 -1.3800
 1638TIP3    H229110   5.141   3.315  19.303  1.4970  0.0261 -1.8177
 1639TIP3   OH229111   2.733   1.404  19.982 -0.0656  0.0585  0.2926
 1639TIP3    H129112   2.644   1.409  19.947  0.5855 -1.5162 -1.8444
 1639TIP3    H229113   2.755   1.494  20.005 -1.4941  0.8139 -1.0695
 1640TIP3   OH229114   5.898   1.178  21.040 -0.0641 -0.4116 -0.7484
 1640TIP3    H129115   5.989   1.196  21.015  0.1579  0.2427  0.4558
 1640TIP3    H229116   5.851   1.258  21.018 -0.3709 -0.7656 -1.4079
 1641TIP3   OH229117   5.050   5.619  20.407  1.0127 -0.0828  0.4105
 1641TIP3    H129118   5.105   5.694  20.384  0.7638  0.0198  0.1362
 1641TIP3    H229119   5.105   5.566  20.464  2.1599 -1.0014 -1.4267
 1642TIP3   OH229120   0.557   0.794  20.817 -0.0659 -0.4571  0.3584
 1642TIP3    H129121   0.575   0.885  20.791 -1.4978 -0.8782 -2.4879
 1642TIP3    H229122   0.485   0.767  20.760  0.7597 -3.6141  0.6662
 1643TIP3   OH229123   6.302   2.451  19.068 -0.0322 -0.6181 -0.5150
 1643TIP3    H129124   6.297   2.365  19.110 -1.7293 -0.1891  0.2310
 1643TIP3    H229125   6.350   2.505  19.130 -1.3906 -0.3242  0.2933
 1644TIP3   OH229126   3.908   1.302  19.789  0.0631 -0.0009 -0.5050
 1644TIP3    H129127   3.912   1.291  19.694  1.0081 -1.1844 -0.3548
 1644TIP3    H229128   3.830   1.356  19.804 -0.0770  0.2321 -1.9450
 1645TIP3   OH229129   6.140   4.517  21.018  0.1356  0.2574  0.0931
 1645TIP3    H129130   6.165   4.460  20.946 -0.7690 -1.0490  0.7661
 1645TIP3    H229131   6.071   4.469  21.064 -0.4689  1.7798  0.8616
 1646TIP3   OH229132   1.611   5.108  19.595  0.0097  0.1370  0.1295
 1646TIP3    H129133   1.697   5.146  19.611  0.4672 -0.7210 -0.1878
 1646TIP3    H229134   1.626   5.047  19.522 -0.1391 -2.4382  2.1150
 1647TIP3   OH229135   5.491   4.194  21.100 -0.1972 -0.4933 -0.0391
 1647TIP3    H129136   5.533   4.237  21.025 -0.4984 -1.2101 -0.6334
 1647TIP3    H229137   5.541   4.114  21.113  0.2148 -0.0868  0.9091
 1648TIP3   OH229138   1.811   2.990  21.026  0.4356 -0.2203 -0.1491
 1648TIP3    H129139   1.853   2.949  20.950 -1.6563  0.3369 -1.7061
 1648TIP3    H229140   1.868   3.063  21.049  1.8239 -1.2268 -0.2502
 1649TIP3   OH229141   3.012   4.645  18.882  0.2183  0.3302  0.0281
 1649TIP3    H129142   3.008   4.689  18.797  0.3679 -1.1597 -0.7854
 1649TIP3    H229143   2.948   4.574  18.875  0.2601  0.1644  1.1656
 1650TIP3   OH229144   2.403   5.631  18.617 -0.0297 -0.1424 -0.2733
 1650TIP3    H129145   2.312   5.655  18.631  0.1390  0.6715 -0.5583
 1650TIP3    H229146   2.434   5.605  18.704 -0.1164  1.0312  0.1219
 1651TIP3   OH229147   5.285   3.181  19.608  0.0687 -0.0410 -0.6732
 1651TIP3    H129148   5.201   3.157  19.569  0.4481  0.7004 -2.0008
 1651TIP3    H229149   5.315   3.101  19.651 -2.3495  0.2475  1.8511
 1652TIP3   OH229150   0.772   1.504  20.680 -0.0273 -0.1342  0.2961
 1652TIP3    H129151   0.785   1.476  20.590 -0.8520  0.5616 -0.0473
 1652TIP3    H229152   0.745   1.595  20.674  1.2646  0.3468  1.3267
 1653TIP3   OH229153   2.398   0.801  21.083 -0.0821  0.5840  0.2511
 1653TIP3    H129154   2.424   0.883  21.125  1.5873 -0.0528  0.5518
 1653TIP3    H229155   2.476   0.774  21.033 -1.1775  0.0381 -1.2286
 1654TIP3   OH229156   4.470   0.546  18.001 -0.0230 -0.2485  0.0265
 1654TIP3    H129157   4.501   0.458  18.022 -3.3227 -1.1380  1.7656
 1654TIP3    H229158   4.532   0.604  18.045 -0.0944 -1.8461  2.4013
 1655TIP3   OH229159   4.686   4.020  20.829 -0.0810 -0.0377  0.4112
 1655TIP3    H129160   4.704   4.031  20.922 -0.6608 -0.7055  0.6138
 1655TIP3    H229161   4.592   4.007  20.824 -0.2614  1.3741 -0.4214
 1656TIP3   OH229162   1.105   5.756  18.424  0.2316  0.4501 -0.8401
 1656TIP3    H129163   1.031   5.772  18.365  0.4625  0.0350 -1.2562
 1656TIP3    H229164   1.102   5.828  18.487  1.4045  2.3408 -2.7805
 1657TIP3   OH229165   3.324   2.267  20.186  0.4268  0.2625 -0.1041
 1657TIP3    H129166   3.348   2.284  20.277 -0.2634 -1.8658  0.5282
 1657TIP3    H229167   3.228   2.276  20.184  0.0703 -2.6672  0.1576
 1658TIP3   OH229168   4.717   4.750  18.025 -0.7769 -0.2483 -0.2978
 1658TIP3    H129169   4.787   4.730  18.087 -1.0250  1.4874  0.6197
 1658TIP3    H229170   4.637   4.748  18.078 -1.0027  1.1951 -0.5346
 1659TIP3   OH229171   1.641   0.935  19.204 -0.3731  0.6550 -0.2283
 1659TIP3    H129172   1.599   1.020  19.193 -0.6518  0.5650  0.1081
 1659TIP3    H229173   1.639   0.920  19.299  0.6838  0.7820 -0.1709
 1660TIP3   OH229174   1.960   2.508  20.680  0.1016  0.3365 -0.3022
 1660TIP3    H129175   1.882   2.453  20.681  0.2703  0.0875  0.7348
 1660TIP3    H229176   1.944   2.572  20.750  0.6287  0.5576 -0.3826
 1661TIP3   OH229177   0.298   0.794  18.319 -0.4614 -0.4774 -0.0358
 1661TIP3    H129178   0.349   0.714  18.306  0.0002 -0.2964  0.5796
 1661TIP3    H229179   0.335   0.858  18.259 -1.7603 -1.1051 -1.5776
 1662TIP3   OH229180   3.766   3.813  18.420  0.9582  0.4414  0.2736
 1662TIP3    H129181   3.731   3.820  18.509  1.3880 -0.2084  0.4993
 1662TIP3    H229182   3.817   3.732  18.421 -0.1448 -0.3076 -0.9475
 1663TIP3   OH229183   0.596   2.314  19.913  0.7059  0.1541 -0.4359
 1663TIP3    H129184   0.574   2.366  19.836 -0.2329  0.8246  0.2661
 1663TIP3    H229185   0.662   2.252  19.882 -0.0229  0.0693 -1.9035
 1664TIP3   OH229186   5.582   5.083  19.245  0.0098 -0.2008 -0.1272
 1664TIP3    H129187   5.528   5.007  19.261 -0.0495 -0.2714 -0.6393
 1664TIP3    H229188   5.537   5.131  19.175 -0.2327  0.5845  0.5602
 1665TIP3   OH229189   2.570   5.720  18.035  0.2476 -0.4673  0.1055
 1665TIP3    H129190   2.601   5.778  18.104 -0.1532 -1.3759  1.0746
 1665TIP3    H229191   2.597   5.632  18.063  1.6440 -0.7021 -1.7668
 1666TIP3   OH229192   1.408   4.963  21.347 -0.3699 -0.0552 -0.4110
 1666TIP3    H129193   1.460   4.882  21.349 -0.4280 -0.1591  2.9854
 1666TIP3    H229194   1.464   5.026  21.302  2.2529 -0.5393  1.9044
 1667TIP3   OH229195   4.692   3.878  21.133  0.0841  0.0570 -0.2987
 1667TIP3    H129196   4.728   3.956  21.175  0.9627  0.9199 -2.5539
 1667TIP3    H229197   4.767   3.837  21.090 -0.2788 -2.3041  1.1544
 1668TIP3   OH229198   4.934   6.332  18.075  0.1470  0.7577 -0.4980
 1668TIP3    H129199   4.926   6.403  18.010  1.6275  1.5846  0.1779
 1668TIP3    H229200   4.853   6.281  18.064 -1.2312  2.8371 -0.6527
 1669TIP3   OH229201   1.679   2.657  19.851 -0.8170  0.2509 -0.1037
 1669TIP3    H129202   1.699   2.662  19.945  1.6386 -0.5401 -0.5043
 1669TIP3    H229203   1.754   2.612  19.813 -2.6682 -1.2682 -2.2088
 1670TIP3   OH229204   5.964   1.858  19.706  0.1284  0.3847 -0.0010
 1670TIP3    H129205   6.027   1.914  19.751  0.7481 -0.1534 -0.1810
 1670TIP3    H229206   6.011   1.826  19.629  0.4626 -1.8684  1.0637
 1671TIP3   OH229207   1.049   6.296  20.876 -0.8802 -0.3270 -0.2969
 1671TIP3    H129208   1.007   6.382  20.873 -1.1104 -0.4497 -0.8499
 1671TIP3    H229209   1.085   6.284  20.789 -0.2794 -0.5179 -0.0240
 1672TIP3   OH229210   6.158   0.492  19.358  0.5346  0.7352 -0.0565
 1672TIP3    H129211   6.224   0.550  19.396 -1.7145  2.3014  1.7315
 1672TIP3    H229212   6.099   0.550  19.311 -0.6186 -0.3474 -0.0026
 1673TIP3   OH229213   3.301   3.835  17.858 -0.3690 -0.4643 -0.0557
 1673TIP3    H129214   3.386   3.832  17.902 -0.6908 -0.2883  0.5945
 1673TIP3    H229215   3.257   3.755  17.886 -1.0154  0.1980  0.8689
 1674TIP3   OH229216   5.568   4.911  19.865  0.2914 -1.0797  0.3757
 1674TIP3    H129217   5.530   4.991  19.902  0.4151 -0.8180 -0.0512
 1674TIP3    H229218   5.497   4.872  19.815  0.8290 -0.0512 -1.2811
 1675TIP3   OH229219   5.269   5.201  19.699  0.6356  0.1569 -0.0697
 1675TIP3    H129220   5.266   5.269  19.632 -0.6164 -0.6865 -0.9160
 1675TIP3    H229221   5.204   5.136  19.670  0.3032 -0.3923  1.7900
 1676TIP3   OH229222   6.248   1.781  19.048 -1.0130  0.1943 -0.3169
 1676TIP3    H129223   6.210   1.866  19.026 -0.8316  0.4280  0.2518
 1676TIP3    H229224   6.333   1.781  19.004  0.4493  1.6739  2.2350
 1677TIP3   OH229225   3.577   0.834  18.891 -0.7834  0.5729  0.1008
 1677TIP3    H129226   3.605   0.745  18.868 -0.2023  0.8718 -0.3782
 1677TIP3    H229227   3.592   0.885  18.811 -1.6432  0.9861  0.1961
 1678TIP3   OH229228   4.274   2.352  21.012 -0.2260 -0.2392 -0.0680
 1678TIP3    H129229   4.361   2.391  21.009  0.0473 -0.8486 -0.1454
 1678TIP3    H229230   4.216   2.426  21.031  0.6037 -0.2264  2.9445
 1679TIP3   OH229231   5.106   3.946  20.729  0.0217 -0.4476 -0.6579
 1679TIP3    H129232   5.057   3.997  20.793  1.3499  0.7736 -0.5830
 1679TIP3    H229233   5.039   3.895  20.683 -1.5270  2.1854 -1.5261
 1680TIP3   OH229234   2.746   4.450  18.918  0.1917 -0.0974  0.2959
 1680TIP3    H129235   2.791   4.478  18.998  0.2644 -1.1654  0.6471
 1680TIP3    H229236   2.742   4.354  18.925 -1.3652 -0.0863 -0.1421
 1681TIP3   OH229237   4.524   0.746  18.264  0.4310 -0.7945  0.0739
 1681TIP3    H129238   4.591   0.758  18.197  0.9606 -0.9195  0.5743
 1681TIP3    H229239   4.518   0.831  18.308 -0.5851 -0.4266 -0.7223
 1682TIP3   OH229240   1.554   0.816  17.875 -0.0519 -0.3161 -0.2459
 1682TIP3    H129241   1.559   0.891  17.815 -1.3184  0.6541  0.7982
 1682TIP3    H229242   1.644   0.804  17.905  0.3943 -0.0668 -1.4138
 1683TIP3   OH229243   4.235   1.107  19.690 -0.0538 -0.6574  0.4841
 1683TIP3    H129244   4.158   1.052  19.682  0.1602 -0.8355 -0.3774
 1683TIP3    H229245   4.207   1.178  19.749 -0.9627 -0.5598 -0.0457
 1684TIP3   OH229246   2.579   3.493  19.698  0.4486  0.6208  0.2418
 1684TIP3    H129247   2.590   3.405  19.662  0.7342  0.4982  0.6236
 1684TIP3    H229248   2.491   3.494  19.735 -0.5298  1.2797 -1.9284
 1685TIP3   OH229249   3.682   0.886  20.781  0.5165 -0.0933  0.5328
 1685TIP3    H129250   3.622   0.863  20.851 -2.4323  0.1061 -1.7173
 1685TIP3    H229251   3.666   0.979  20.766  0.7246 -0.2351 -0.6797
 1686TIP3   OH229252   2.384   1.866  18.410  0.5125 -0.1494 -0.1340
 1686TIP3    H129253   2.440   1.910  18.346  0.2130  2.2087  1.1248
 1686TIP3    H229254   2.419   1.894  18.495 -2.6329  1.6736  0.7047
 1687TIP3   OH229255   6.125   6.316  20.710  1.0779 -0.4356  0.1150
 1687TIP3    H129256   6.041   6.311  20.756  0.0330  2.9478 -1.1316
 1687TIP3    H229257   6.183   6.364  20.769  0.5701  1.4987 -0.8847
 1688TIP3   OH229258   5.910   2.942  18.691 -0.3164 -0.7031  0.5857
 1688TIP3    H129259   5.956   2.993  18.625 -2.2384  1.8775  1.0743
 1688TIP3    H229260   5.947   2.970  18.775 -0.1073 -1.5620  0.7968
 1689TIP3   OH229261   6.566   2.077  19.392 -0.2830 -0.0655 -0.4056
 1689TIP3    H129262   6.560   2.148  19.456 -0.5157 -0.8224  0.4248
 1689TIP3    H229263   6.554   1.997  19.443 -0.5218 -0.6822 -1.4009
 1690TIP3   OH229264   0.600   0.194  18.259  0.2103 -0.1932  0.2856
 1690TIP3    H129265   0.555   0.259  18.204 -1.1003  1.0833  2.7179
 1690TIP3    H229266   0.664   0.154  18.200 -1.2737  0.8744 -2.2364
 1691TIP3   OH229267   3.369   3.102  20.220 -0.7946  0.3072 -0.5558
 1691TIP3    H129268   3.453   3.074  20.255 -1.0487 -0.9236 -0.8757
 1691TIP3    H229269   3.384   3.110  20.125 -1.1170 -0.2825 -0.6649
 1692TIP3   OH229270   5.538   2.969  20.862  0.2538  0.3031 -0.1537
 1692TIP3    H129271   5.617   2.947  20.913  0.2225 -0.9186 -0.6030
 1692TIP3    H229272   5.561   2.946  20.772 -0.5626  0.0835 -0.3091
 1693TIP3   OH229273   6.054   5.049  17.781  0.1096  0.5053 -0.3585
 1693TIP3    H129274   5.969   5.046  17.825  0.5822 -0.2627  0.5322
 1693TIP3    H229275   6.081   5.141  17.787 -0.4420  0.6649 -0.2457
 1694TIP3   OH229276   1.712   5.493  20.323 -0.8712  0.0449  0.4703
 1694TIP3    H129277   1.730   5.567  20.265  0.4257  1.1868  2.2215
 1694TIP3    H229278   1.713   5.417  20.265 -1.7694  1.3100 -1.3117
 1695TIP3   OH229279   2.652   1.000  19.293  0.3370 -0.4243  0.1616
 1695TIP3    H129280   2.676   1.082  19.335  1.6232 -0.7123  0.0373
 1695TIP3    H229281   2.676   1.013  19.201 -0.9133 -0.3886 -0.1723
 1696TIP3   OH229282   1.772   6.490  19.044  0.2739  0.1435  0.3331
 1696TIP3    H129283   1.803   6.551  19.110  0.8213  1.0991 -0.7640
 1696TIP3    H229284   1.768   6.405  19.088  1.0464  0.6761  1.4451
 1697TIP3   OH229285   6.530   1.836  19.503 -0.1870 -0.1729  0.3904
 1697TIP3    H129286   6.469   1.766  19.482 -0.5733  0.1874  0.3039
 1697TIP3    H229287   6.538   1.833  19.598 -1.0387  0.3531  0.4888
 1698TIP3   OH229288   2.208   0.301  20.186  0.0806 -0.1868  0.4425
 1698TIP3    H129289   2.125   0.267  20.218  0.4233 -1.3903  0.0907
 1698TIP3    H229290   2.256   0.326  20.265 -0.3040 -0.2191  0.6887
 1699TIP3   OH229291   0.029   3.671  20.329  0.0262  0.3347  0.3635
 1699TIP3    H129292   0.088   3.596  20.318  1.2007  1.0835  1.3211
 1699TIP3    H229293  -0.000   3.692  20.240  0.5282 -0.5708 -0.0305
 1700TIP3   OH229294   5.413   2.502  19.108  0.5361 -0.3894  0.4834
 1700TIP3    H129295   5.331   2.452  19.112  0.4396 -0.2529  0.2513
 1700TIP3    H229296   5.391   2.581  19.058  0.5416  0.1822  1.3717
 1701TIP3   OH229297   3.305   0.334  18.703 -0.3598  0.5025  0.8286
 1701TIP3    H129298   3.262   0.338  18.617 -0.1099  0.2996  0.6932
 1701TIP3    H229299   3.390   0.374  18.690 -1.1027  2.4178  1.4865
 1702TIP3   OH229300   5.556   0.318  20.949 -0.6174  0.2213 -0.6882
 1702TIP3    H129301   5.584   0.351  21.034 -0.2485 -0.5655 -0.4967
 1702TIP3    H229302   5.623   0.346  20.888 -0.1043 -0.4844 -0.4604
 1703TIP3   OH229303   1.653   1.120  18.892 -0.3151 -0.7171  0.0449
 1703TIP3    H129304   1.661   1.059  18.818 -1.0794  0.8825 -1.4239
 1703TIP3    H229305   1.738   1.115  18.936  0.9360 -0.2674 -2.1349
 1704TIP3   OH229306   5.393   4.359  18.635  0.4002  0.1839 -0.1077
 1704TIP3    H129307   5.356   4.271  18.637  2.2928 -0.6448  0.6160
 1704TIP3    H229308   5.318   4.417  18.649 -0.5389 -1.4201  2.0814
 1705TIP3   OH229309   1.923   2.330  17.134  0.0432  0.0813  0.3550
 1705TIP3    H129310   1.847   2.274  17.116 -0.0619  0.4819 -0.5033
 1705TIP3    H229311   1.897   2.416  17.102 -0.6269  1.1859  3.5507
 1706TIP3   OH229312   1.193   2.368  21.160 -0.4671 -0.5256  0.0638
 1706TIP3    H129313   1.167   2.350  21.069 -1.4602  0.7351  0.0725
 1706TIP3    H229314   1.119   2.415  21.197  0.1825 -0.4865  1.3669
 1707TIP3   OH229315   5.543   3.994  20.186  0.6883  0.7700 -0.4646
 1707TIP3    H129316   5.530   3.959  20.274  1.1167 -0.2965 -0.8122
 1707TIP3    H229317   5.536   3.918  20.129  2.9665  0.9891 -1.1356
 1708TIP3   OH229318   3.961   3.037  20.556 -0.7059 -0.3892 -0.3615
 1708TIP3    H129319   3.877   2.993  20.544 -0.8576 -0.0248 -0.6505
 1708TIP3    H229320   4.026   2.971  20.532 -0.9316 -0.4385 -0.8474
 1709TIP3   OH229321   0.393   1.930  20.820  0.0800 -0.0768 -0.3086
 1709TIP3    H129322   0.451   1.871  20.867  0.4413 -1.2592 -2.1470
 1709TIP3    H229323   0.421   2.018  20.846  1.1621 -0.6735  0.5974
 1710TIP3   OH229324   5.191   6.109  19.338 -0.1416  0.1443 -0.0991
 1710TIP3    H129325   5.156   6.140  19.422 -1.7767  0.3228 -0.8153
 1710TIP3    H229326   5.137   6.033  19.316 -0.0972  0.4329 -1.2521
 1711TIP3   OH229327   5.993   5.444  19.871 -0.1425 -0.0564  0.4768
 1711TIP3    H129328   6.010   5.504  19.943 -0.1268 -1.7206  1.9390
 1711TIP3    H229329   6.075   5.396  19.860 -0.5197 -0.6441  0.1589
 1712TIP3   OH229330   2.971   2.845  18.779 -0.1148  0.0923 -0.0718
 1712TIP3    H129331   2.996   2.766  18.826 -0.3282 -0.6591 -1.1877
 1712TIP3    H229332   2.908   2.815  18.714 -0.9187  1.3360  0.1113
 1713TIP3   OH229333   1.824   5.826  17.950 -0.6128 -0.2427  0.2131
 1713TIP3    H129334   1.906   5.827  17.901  0.2201  1.3794  1.5257
 1713TIP3    H229335   1.788   5.739  17.935  0.3959 -0.3723 -1.9026
 1714TIP3   OH229336   2.135   0.497  19.007  0.4154 -0.4752  0.5184
 1714TIP3    H129337   2.210   0.437  19.007 -0.4961 -1.6562  0.4320
 1714TIP3    H229338   2.096   0.486  19.094  0.8414  0.8068  0.8914
 1715TIP3   OH229339   0.443   1.155  20.093 -0.0174  0.1334 -0.2906
 1715TIP3    H129340   0.467   1.129  20.182  0.5143  0.5248 -0.3147
 1715TIP3    H229341   0.351   1.131  20.085 -0.2666  0.7604  0.6137
 1716TIP3   OH229342   1.539   0.735  18.667  0.0159  0.5964  0.2826
 1716TIP3    H129343   1.582   0.783  18.597 -0.6114 -1.2328 -1.4336
 1716TIP3    H229344   1.469   0.794  18.697  1.2605  2.0233  0.4802
 1717TIP3   OH229345   5.117   5.135  20.097 -0.0278  0.2930  0.4261
 1717TIP3    H129346   5.096   5.048  20.063 -0.4112  0.2231  0.8321
 1717TIP3    H229347   5.184   5.119  20.163  0.4141  0.3849  0.0083
 1718TIP3   OH229348   2.092   0.006  20.693  0.2726  0.1823  0.1793
 1718TIP3    H129349   2.084  -0.078  20.647  1.7268 -0.6123  1.3070
 1718TIP3    H229350   2.185   0.029  20.685 -0.1418  1.8243 -0.3032
 1719TIP3   OH229351   2.531   1.602  18.383 -0.2947  0.7672  0.4978
 1719TIP3    H129352   2.609   1.640  18.342 -0.3336  0.9416  0.5841
 1719TIP3    H229353   2.464   1.670  18.376 -0.6299  0.3796 -0.1452
 1720TIP3   OH229354   0.421   3.621  19.498 -0.3539 -0.1875  0.0130
 1720TIP3    H129355   0.387   3.532  19.506 -0.4911 -0.2752 -1.3606
 1720TIP3    H229356   0.374   3.658  19.423 -1.2628  1.4893  1.3333
 1721TIP3   OH229357   1.675   0.660  21.163  0.4455 -0.3689  0.0087
 1721TIP3    H129358   1.758   0.666  21.116  0.9514 -0.7255  0.8376
 1721TIP3    H229359   1.621   0.604  21.108  0.6635  0.0578 -0.6531
 1722TIP3   OH229360   5.948   3.886  19.614 -0.1272 -0.2281 -0.0028
 1722TIP3    H129361   5.943   3.828  19.690 -0.6284 -0.3034 -0.0900
 1722TIP3    H229362   5.859   3.921  19.605  0.4147  1.4316  0.7392
 1723TIP3   OH229363   6.448   6.061  18.056  0.1125  0.0708  0.0175
 1723TIP3    H129364   6.478   6.151  18.052 -0.2321  0.1584 -0.8030
 1723TIP3    H229365   6.519   6.010  18.017 -0.1417  0.1072 -0.4971
 1724TIP3   OH229366   3.641   1.509  19.457  0.2684  0.3136 -0.1167
 1724TIP3    H129367   3.568   1.557  19.496 -0.2995 -1.0595  0.5793
 1724TIP3    H229368   3.603   1.424  19.431  1.9101 -1.0884  1.7509
 1725TIP3   OH229369   3.644   2.285  19.083  0.2773 -0.3369  0.0535
 1725TIP3    H129370   3.561   2.281  19.130 -0.2564  1.3790 -0.6650
 1725TIP3    H229371   3.648   2.203  19.034 -1.4153 -0.0856 -0.5542
 1726TIP3   OH229372   1.351   3.104  17.897 -0.2909 -0.1045 -0.3704
 1726TIP3    H129373   1.407   3.066  17.830 -0.9981 -0.3568 -0.8232
 1726TIP3    H229374   1.271   3.052  17.895 -0.4086  0.0205  0.5192
 1727TIP3   OH229375   4.695   1.373  18.707  0.1761  0.2596  0.2484
 1727TIP3    H129376   4.629   1.406  18.646  0.7832 -0.2872 -0.7249
 1727TIP3    H229377   4.752   1.448  18.722 -0.4719  0.6465  0.8480
 1728TIP3   OH229378   0.042   1.559  17.911  0.1942 -0.5076  0.2867
 1728TIP3    H129379   0.045   1.463  17.903 -2.1468 -0.6200  0.1997
 1728TIP3    H229380  -0.047   1.578  17.938  0.3668  1.7385 -0.5558
 1729TIP3   OH229381   1.192   6.563  17.947  0.0624  0.2027  0.5084
 1729TIP3    H129382   1.210   6.552  17.854 -1.5555 -0.3858  0.2348
 1729TIP3    H229383   1.274   6.594  17.984  1.2200 -1.1132 -0.8363
 1730TIP3   OH229384   6.296   4.804  19.226 -0.1142 -0.5674  0.0481
 1730TIP3    H129385   6.332   4.717  19.211  1.8632 -0.1937  2.0621
 1730TIP3    H229386   6.342   4.860  19.163  0.3561 -0.6313  0.3302
 1731TIP3   OH229387   0.301   3.792  18.160  0.1508  0.6495  0.1817
 1731TIP3    H129388   0.221   3.769  18.113  1.0524  0.4297 -1.2985
 1731TIP3    H229389   0.367   3.732  18.127  1.1539  1.4505  0.6703
 1732TIP3   OH229390   2.590   3.549  18.698 -0.0439  0.0373 -0.0255
 1732TIP3    H129391   2.618   3.591  18.779  0.7134 -1.6668  0.6510
 1732TIP3    H229392   2.513   3.599  18.670  0.1865  1.1749  1.2820
 1733TIP3   OH229393   0.086   3.516  18.189  0.1345  0.4470  0.2711
 1733TIP3    H129394   0.092   3.596  18.136  1.3489 -1.3996 -2.6073
 1733TIP3    H229395   0.145   3.454  18.146 -2.0341 -2.5885  1.3265
 1734TIP3   OH229396   3.264   1.970  20.258 -0.0564 -0.6902 -0.1936
 1734TIP3    H129397   3.211   2.032  20.308 -0.0898 -1.4673  0.7661
 1734TIP3    H229398   3.238   1.983  20.167 -0.5096  0.2553  0.0668
 1735TIP3   OH229399   0.408   2.649  19.291  0.6021  0.1635 -0.5870
 1735TIP3    H129400   0.483   2.590  19.282 -0.9259 -1.9780 -0.0358
 1735TIP3    H229401   0.411   2.678  19.382  1.0233  0.4823 -0.6985
 1736TIP3   OH229402   4.180   0.730  19.633  0.1288 -0.0564 -0.1891
 1736TIP3    H129403   4.183   0.644  19.674 -0.7524  0.0166  0.0477
 1736TIP3    H229404   4.201   0.713  19.541 -1.2906 -0.7250 -0.4190
 1737TIP3   OH229405   1.264   4.180  20.911  0.6674 -0.3920 -0.4151
 1737TIP3    H129406   1.235   4.135  20.832 -1.2946 -0.7870  0.4557
 1737TIP3    H229407   1.303   4.110  20.964  0.7520 -0.3973 -0.4857
 1738TIP3   OH229408   3.661   3.387  18.813  0.1154  0.2752 -0.4174
 1738TIP3    H129409   3.614   3.326  18.757 -2.7091  1.4156  0.5030
 1738TIP3    H229410   3.639   3.360  18.902  0.0666  1.6672  0.0274
 1739TIP3   OH229411   2.193   3.581  21.389 -0.2745 -0.5765 -0.1795
 1739TIP3    H129412   2.285   3.607  21.382 -0.5144  0.2335 -0.4264
 1739TIP3    H229413   2.144   3.663  21.377 -0.9764 -0.6611  1.7495
 1740TIP3   OH229414   6.663   5.075  19.852  0.2973  0.0496  1.0656
 1740TIP3    H129415   6.618   5.125  19.920 -1.0959  0.8950 -0.4416
 1740TIP3    H229416   6.603   5.004  19.830  0.4353  0.1865  0.2297
 1741TIP3   OH229417   4.537   3.856  20.391 -0.1148 -0.1975 -0.0663
 1741TIP3    H129418   4.518   3.773  20.435 -0.4720 -1.3021 -2.1473
 1741TIP3    H229419   4.633   3.858  20.384 -0.0953 -0.3529  0.1345
 1742TIP3   OH229420   1.239   5.760  18.189 -0.0899 -0.1617 -0.1181
 1742TIP3    H129421   1.197   5.769  18.275  2.8930  0.4584  1.4001
 1742TIP3    H229422   1.222   5.669  18.164 -2.5438  0.1374  0.1867
 1743TIP3   OH229423   5.847   2.901  19.057  0.5810  0.0191  0.1193
 1743TIP3    H129424   5.910   2.951  19.005  0.4994  0.9494  0.8891
 1743TIP3    H229425   5.894   2.822  19.082  1.7027  0.9705  1.1961
 1744TIP3   OH229426   2.860   0.514  19.679  0.1804 -0.2834 -0.1831
 1744TIP3    H129427   2.928   0.545  19.739 -2.4102  1.5689  2.0391
 1744TIP3    H229428   2.853   0.420  19.698  0.3876 -0.0035  1.4755
 1745TIP3   OH229429   2.211   1.057  21.370 -0.6543 -0.5175 -0.0130
 1745TIP3    H129430   2.144   1.089  21.430 -2.9478 -0.4072 -2.4539
 1745TIP3    H229431   2.173   1.067  21.283  2.6364 -0.3074 -1.5994
 1746TIP3   OH229432   1.781   0.703  17.996  0.8020  0.3076 -0.1197
 1746TIP3    H129433   1.865   0.738  17.966  0.3678  1.3533 -0.1642
 1746TIP3    H229434   1.798   0.610  18.011  1.7671  0.3420 -0.8699
 1747TIP3   OH229435   1.475   0.511  18.534 -0.0262 -0.2795 -0.0619
 1747TIP3    H129436   1.546   0.525  18.472  1.7512 -1.3849  1.5923
 1747TIP3    H229437   1.473   0.590  18.587 -1.5128  0.6449 -1.4140
 1748TIP3   OH229438   5.647   1.877  18.454 -0.0700  0.1415  0.1192
 1748TIP3    H129439   5.636   1.856  18.362  2.0223 -0.0230 -0.1451
 1748TIP3    H229440   5.738   1.854  18.473 -0.2725  0.7523  2.0703
 1749TIP3   OH229441   2.961   4.073  17.571 -0.1837  0.0367  0.0804
 1749TIP3    H129442   2.876   4.096  17.609  0.6549 -0.4135  2.3943
 1749TIP3    H229443   2.960   3.977  17.566 -0.0645  0.0648 -0.5296
 1750TIP3   OH229444   2.913   0.696  20.043  0.5254  0.1086  0.4036
 1750TIP3    H129445   2.917   0.772  19.985  0.1287  0.6955  1.1221
 1750TIP3    H229446   2.996   0.650  20.028  0.1612 -0.1239 -1.0958
 1751TIP3   OH229447   0.448   0.665  20.430 -0.2753  0.1021  0.5474
 1751TIP3    H129448   0.491   0.748  20.452  2.2987 -0.3457 -2.1402
 1751TIP3    H229449   0.375   0.689  20.374  0.7874  0.5918 -0.6689
 1752TIP3   OH229450   0.676   4.337  19.629  0.5998 -0.0348 -0.2296
 1752TIP3    H129451   0.709   4.405  19.688 -1.0937  0.7378 -0.0946
 1752TIP3    H229452   0.583   4.330  19.651  0.4746 -1.5267 -1.1103
 1753TIP3   OH229453   5.797   5.732  19.765  0.1617  0.3939  0.3986
 1753TIP3    H129454   5.807   5.726  19.860  0.7069 -1.2919  0.2566
 1753TIP3    H229455   5.779   5.643  19.736 -1.8853  1.1418 -0.9113
 1754TIP3   OH229456   2.288   2.573  20.278 -0.0759  0.3384 -0.1758
 1754TIP3    H129457   2.277   2.596  20.370  1.4760  2.8341 -0.5099
 1754TIP3    H229458   2.201   2.583  20.240 -0.3774  1.1804  0.6914
 1755TIP3   OH229459   3.563   6.481  20.526 -0.0049  0.0032  0.1542
 1755TIP3    H129460   3.484   6.530  20.548 -0.5528 -1.3432  1.3499
 1755TIP3    H229461   3.630   6.516  20.585 -0.0681  0.2175  0.0959
 1756TIP3   OH229462   3.106   5.050  19.887  0.4612 -0.5251 -0.1456
 1756TIP3    H129463   3.017   5.023  19.905  0.3899  0.3448  0.8945
 1756TIP3    H229464   3.104   5.079  19.795 -0.0468 -1.5348 -0.4679
 1757TIP3   OH229465   5.148   0.499  18.593 -0.4389 -0.5386 -0.0992
 1757TIP3    H129466   5.137   0.415  18.547  0.7219 -0.0256 -1.3959
 1757TIP3    H229467   5.190   0.556  18.529 -2.0086  1.3480  0.4573
 1758TIP3   OH229468   1.648   2.805  19.603  0.0635  0.8938  0.2111
 1758TIP3    H129469   1.567   2.857  19.603 -2.7272 -3.0037  1.4577
 1758TIP3    H229470   1.649   2.762  19.688  1.1045 -2.4464 -1.3345
 1759TIP3   OH229471   0.069   0.431  21.009 -0.0110 -0.4582  0.1346
 1759TIP3    H129472   0.053   0.336  21.008 -0.9889 -0.3062 -0.0557
 1759TIP3    H229473  -0.018   0.469  21.019  0.3917  0.4218  0.3197
 1760TIP3   OH229474   4.485   5.671  18.009  0.0365 -0.1535  0.0706
 1760TIP3    H129475   4.395   5.686  17.979  0.5232  1.4642 -0.6926
 1760TIP3    H229476   4.540   5.712  17.942  1.2548  1.0462  1.7265
 1761TIP3   OH229477   3.733   2.776  20.961 -0.0134  0.8154  0.8108
 1761TIP3    H129478   3.727   2.842  20.893  2.3125 -0.6039 -0.9528
 1761TIP3    H229479   3.811   2.801  21.012  1.3350 -0.8009 -0.3175
 1762TIP3   OH229480   5.695   5.577  20.526  0.0157  0.1503  0.6222
 1762TIP3    H129481   5.633   5.648  20.544 -0.1140  0.7093 -1.7211
 1762TIP3    H229482   5.767   5.592  20.587  1.1790  3.8373 -1.4099
 1763TIP3   OH229483   0.531   3.666  20.637 -0.4934 -0.2127  0.1623
 1763TIP3    H129484   0.487   3.591  20.596 -1.2640 -0.9497  2.2127
 1763TIP3    H229485   0.581   3.628  20.710  3.0943  0.6676 -1.5744
 1764TIP3   OH229486   4.959   1.540  21.026  0.3538  0.2275  0.0061
 1764TIP3    H129487   4.989   1.496  21.105  1.5503  1.2371  0.1582
 1764TIP3    H229488   4.942   1.469  20.963  0.9772 -0.5019  0.6453
 1765TIP3   OH229489   3.318   1.615  17.907 -0.3929  0.0779  0.1896
 1765TIP3    H129490   3.267   1.549  17.954  0.9724 -0.9050  0.3612
 1765TIP3    H229491   3.322   1.689  17.967 -2.8477  0.7878 -0.4327
 1766TIP3   OH229492   5.015   4.463  20.279 -0.7015 -0.0036  0.0815
 1766TIP3    H129493   5.038   4.519  20.353 -0.9971 -0.6235  0.6461
 1766TIP3    H229494   4.921   4.450  20.286 -0.7304 -0.0754 -0.3983
 1767TIP3   OH229495   5.285   1.975  18.142 -0.4587 -0.3544 -0.6715
 1767TIP3    H129496   5.318   2.064  18.159  1.2546 -1.1024  0.0525
 1767TIP3    H229497   5.346   1.938  18.079 -0.7780 -1.2665 -0.4512
 1768TIP3   OH229498   2.911   0.172  18.325  0.3031 -0.7425 -0.6422
 1768TIP3    H129499   2.924   0.147  18.417 -1.3229 -0.8349 -0.4020
 1768TIP3    H229500   2.990   0.143  18.281  1.0031 -0.9442  0.6916
 1769TIP3   OH229501   2.956   1.849  20.225 -0.2001 -0.5467  0.0201
 1769TIP3    H129502   2.984   1.939  20.206 -0.2563 -0.8107 -1.4300
 1769TIP3    H229503   2.984   1.799  20.149 -0.4957 -1.6997  0.6497
 1770TIP3   OH229504   3.734   6.044  20.416  0.5377  0.1594 -0.3774
 1770TIP3    H129505   3.715   5.956  20.385  0.7999  0.0989 -0.3680
 1770TIP3    H229506   3.656   6.095  20.393  0.8928  0.2177 -1.5405
 1771TIP3   OH229507   0.262   5.994  18.986  0.1049  0.4177  0.7826
 1771TIP3    H129508   0.173   5.992  18.951 -0.1485  0.6881  1.4072
 1771TIP3    H229509   0.315   5.955  18.917  0.0934  3.6427 -1.2928
 1772TIP3   OH229510   5.915   3.727  18.603 -0.2004 -0.1382 -0.5855
 1772TIP3    H129511   5.976   3.782  18.554 -0.3461 -0.6631 -1.3832
 1772TIP3    H229512   5.971   3.661  18.645 -0.1739 -0.4030 -1.0248
 1773TIP3   OH229513   5.439   2.431  20.399 -0.2263  0.0746 -0.4224
 1773TIP3    H129514   5.347   2.433  20.426 -0.4783 -0.8613 -1.1562
 1773TIP3    H229515   5.452   2.342  20.366  1.3040 -0.2310  0.8619
 1774TIP3   OH229516   2.389   1.697  17.984 -0.4769 -0.4144 -0.2640
 1774TIP3    H129517   2.467   1.646  17.960 -0.2709  0.2689 -1.0800
 1774TIP3    H229518   2.418   1.788  17.978 -0.6847 -0.1724  1.6871
 1775TIP3   OH229519   2.726   1.078  19.025 -0.1968  0.2511 -0.1265
 1775TIP3    H129520   2.790   1.037  18.966 -0.6845 -1.0841  0.2409
 1775TIP3    H229521   2.757   1.168  19.035  2.2502 -0.6276  0.8814
 1776TIP3   OH229522   1.236   3.800  19.086  0.1247 -0.3332 -0.2672
 1776TIP3    H129523   1.204   3.713  19.111 -0.3738  0.2700  1.2978
 1776TIP3    H229524   1.178   3.827  19.015  0.9473 -1.6851 -1.5202
 1777TIP3   OH229525   0.108   5.539  18.479  0.0208 -0.2799  0.2998
 1777TIP3    H129526   0.090   5.553  18.572  1.8867  0.0234  0.6592
 1777TIP3    H229527   0.113   5.444  18.470 -0.2002 -0.3127  0.4883
 1778TIP3   OH229528   1.830   4.309  20.421  0.0233  0.5419 -0.4612
 1778TIP3    H129529   1.757   4.268  20.374 -0.1938 -0.7944  0.9756
 1778TIP3    H229530   1.908   4.282  20.371 -0.3198  0.5337 -1.0034
 1779TIP3   OH229531   6.515   1.141  19.450  0.1428 -0.1276 -0.7012
 1779TIP3    H129532   6.572   1.090  19.392 -0.0470 -0.4044 -0.6457
 1779TIP3    H229533   6.461   1.193  19.390 -0.5106 -0.9007 -0.8085
 1780TIP3   OH229534   3.743   4.650  18.779 -0.5770  0.5463 -0.2821
 1780TIP3    H129535   3.770   4.620  18.866 -0.7161 -0.4943 -0.5782
 1780TIP3    H229536   3.652   4.676  18.789 -1.1195 -1.1251 -0.4276
 1781TIP3   OH229537   4.215   1.121  20.118  0.0122  0.1487 -0.7649
 1781TIP3    H129538   4.245   1.054  20.057 -3.3268 -1.6037 -0.7396
 1781TIP3    H229539   4.203   1.199  20.064  1.5236  0.0151 -1.3268
 1782TIP3   OH229540   4.600   5.714  19.886 -0.0422 -0.3194 -0.3237
 1782TIP3    H129541   4.561   5.663  19.815 -0.0701 -3.3040  1.6907
 1782TIP3    H229542   4.667   5.657  19.923  1.8383  2.2060  0.4059
 1783TIP3   OH229543   3.289   6.068  17.585 -0.3779 -0.6279  0.1520
 1783TIP3    H129544   3.322   6.150  17.548 -1.2437 -0.7783 -0.9798
 1783TIP3    H229545   3.313   6.001  17.521 -0.8188 -1.0739  0.4464
 1784TIP3   OH229546   4.190   4.175  20.890  0.2510  0.4316 -0.9103
 1784TIP3    H129547   4.177   4.093  20.937  0.6686  0.2275 -1.1486
 1784TIP3    H229548   4.239   4.151  20.811  1.1297  1.0120 -0.5679
 1785TIP3   OH229549   5.499   5.465  20.761 -0.3470  0.4826  0.5341
 1785TIP3    H129550   5.506   5.488  20.669  0.5541 -0.2561  0.4031
 1785TIP3    H229551   5.466   5.545  20.803 -1.4508  0.6023 -0.5110
 1786TIP3   OH229552   6.434   5.708  20.309 -0.1018  0.2482 -0.4503
 1786TIP3    H129553   6.431   5.622  20.349 -1.3737  0.1260 -0.7717
 1786TIP3    H229554   6.371   5.704  20.237  0.8297  1.0162 -1.3368
 1787TIP3   OH229555   2.926   4.838  20.944  0.1299 -0.2687  0.1895
 1787TIP3    H129556   2.905   4.883  21.026 -0.5612  0.2758 -0.2740
 1787TIP3    H229557   3.021   4.834  20.943  0.1761  0.5319  0.5924
 1788TIP3   OH229558   3.568   1.859  19.121  0.3852 -0.4172  0.3881
 1788TIP3    H129559   3.570   1.769  19.154 -0.0160 -1.6145 -2.5946
 1788TIP3    H229560   3.484   1.866  19.075  0.0828  1.7615  1.1428
 1789TIP3   OH229561   1.887   3.809  18.608  0.3911  0.2342  0.0060
 1789TIP3    H129562   1.928   3.733  18.564 -1.1264 -0.9162  0.4971
 1789TIP3    H229563   1.818   3.837  18.548 -1.3191 -0.9854  1.2919
 1790TIP3   OH229564   2.849   6.661  17.766  0.0653  0.3234  0.1574
 1790TIP3    H129565   2.917   6.689  17.704  0.4990 -1.6264 -0.2954
 1790TIP3    H229566   2.899   6.627  17.840 -0.3396 -2.1760 -0.6472
 1791TIP3   OH229567   4.591   0.255  18.034 -0.2886 -0.2556 -0.2569
 1791TIP3    H129568   4.503   0.249  17.996  0.2540  0.1403 -1.6187
 1791TIP3    H229569   4.632   0.172  18.011  0.6905  0.7205 -2.2958
 1792TIP3   OH229570   4.001   4.380  21.329 -0.2278 -0.2628  0.0347
 1792TIP3    H129571   4.068   4.313  21.318 -0.6839 -0.8351  0.6831
 1792TIP3    H229572   4.046   4.453  21.372  0.5590  0.3497 -1.6907
 1793TIP3   OH229573   2.939   4.181  19.719  0.6928  0.4513  0.1942
 1793TIP3    H129574   2.929   4.250  19.654  0.3956  1.0971  0.9097
 1793TIP3    H229575   2.849   4.159  19.745  0.7882  2.3875  2.6143
 1794TIP3   OH229576   3.527   2.871  19.153  0.1278  0.1785  0.0144
 1794TIP3    H129577   3.567   2.909  19.230  0.3580  1.0506 -0.5258
 1794TIP3    H229578   3.557   2.925  19.080  0.8186 -1.2765 -0.8397
 1795TIP3   OH229579   0.561   2.065  18.480 -0.1593 -0.3953  0.1080
 1795TIP3    H129580   0.562   2.051  18.575 -0.3171  1.5041  0.4390
 1795TIP3    H229581   0.483   2.019  18.449 -1.0546  0.3359  1.1838
 1796TIP3   OH229582   4.475   1.829  19.573  0.1042 -0.4791 -0.2392
 1796TIP3    H129583   4.505   1.912  19.537 -2.0285 -0.2434 -1.6583
 1796TIP3    H229584   4.412   1.853  19.640  1.1638 -0.9706  0.9727
 1797TIP3   OH229585   6.467   5.438  20.935 -0.3523  0.0691 -0.0594
 1797TIP3    H129586   6.375   5.413  20.923 -0.6467  0.5757  0.9503
 1797TIP3    H229587   6.508   5.361  20.974 -0.1861 -0.3883 -1.1228
 1798TIP3   OH229588   3.418   5.953  18.110 -0.4681 -0.3604 -0.0324
 1798TIP3    H129589   3.509   5.942  18.080 -0.3111 -1.0942  0.6877
 1798TIP3    H229590   3.375   5.998  18.038  0.6633  0.7366 -0.0600
 1799TIP3   OH229591   3.227   0.917  19.004 -0.1527  0.4341  0.6544
 1799TIP3    H129592   3.149   0.918  19.060 -2.0525 -0.0728 -1.8288
 1799TIP3    H229593   3.223   0.834  18.958  2.1634  0.1936  0.7855
 1800TIP3   OH229594   1.262   4.115  20.204  0.1316  0.1344 -0.2448
 1800TIP3    H129595   1.307   4.036  20.174 -0.4395  0.2436 -1.4654
 1800TIP3    H229596   1.182   4.119  20.151  0.2506  1.6364 -0.3630
 1801TIP3   OH229597   4.660   6.540  18.717  0.2640  0.0235 -0.1659
 1801TIP3    H129598   4.577   6.587  18.709  1.0599  1.4454 -0.6298
 1801TIP3    H229599   4.692   6.562  18.804 -0.3422 -1.4429  0.4581
 1802TIP3   OH229600   5.346   6.201  19.901  0.2116 -0.5466  0.0137
 1802TIP3    H129601   5.275   6.149  19.863 -0.9688  2.5276 -2.4394
 1802TIP3    H229602   5.301   6.271  19.947  1.7369 -0.5260  1.5452
 1803TIP3   OH229603   4.182   5.770  20.160  0.1883  0.1300  0.3131
 1803TIP3    H129604   4.268   5.730  20.161  0.9765  1.6840 -1.0752
 1803TIP3    H229605   4.144   5.743  20.077 -0.0036  0.7648  0.1911
 1804TIP3   OH229606   4.911   4.617  18.917 -0.2541 -0.3799 -0.5000
 1804TIP3    H129607   4.898   4.554  18.846  0.8688  0.0553 -1.1194
 1804TIP3    H229608   4.954   4.692  18.876 -2.0353  1.0578  0.1247
 1805TIP3   OH229609   3.365   2.627  20.404  0.1089 -0.0869  0.4118
 1805TIP3    H129610   3.326   2.540  20.397 -1.8320  0.5425  2.2739
 1805TIP3    H229611   3.336   2.673  20.325  0.1514 -0.7575  0.0033
 1806TIP3   OH229612   4.204   5.057  20.146 -0.1147 -0.0838  0.4912
 1806TIP3    H129613   4.140   5.015  20.202 -2.5079 -0.6200 -2.3808
 1806TIP3    H229614   4.185   5.151  20.153  0.5349 -0.0162  1.5609
 1807TIP3   OH229615   3.389   0.844  20.392 -0.4372  0.4660 -0.5056
 1807TIP3    H129616   3.362   0.905  20.460  0.7977 -0.1820  0.6315
 1807TIP3    H229617   3.467   0.884  20.353  0.0561 -0.0972 -0.1248
 1808TIP3   OH229618   6.591   3.463  20.461  0.3537  0.3032  0.6213
 1808TIP3    H129619   6.667   3.404  20.463  1.5917  1.6954 -1.4309
 1808TIP3    H229620   6.628   3.549  20.440 -1.5419  1.5899  2.2389
 1809TIP3   OH229621   1.493   6.658  19.731  0.0531 -0.9799 -0.6829
 1809TIP3    H129622   1.414   6.614  19.762  0.4274 -0.8463  0.5370
 1809TIP3    H229623   1.478   6.672  19.638 -1.7756 -0.1156 -0.3081
 1810TIP3   OH229624   0.798   6.354  19.220  0.5259  0.2557  0.2234
 1810TIP3    H129625   0.848   6.275  19.241  2.6595  1.6646  0.8077
 1810TIP3    H229626   0.789   6.352  19.125  0.7379 -0.5594  0.2090
 1811TIP3   OH229627   1.634   4.882  20.799 -0.3862 -0.2039 -0.3674
 1811TIP3    H129628   1.593   4.813  20.747  0.2435 -1.7615  1.0977
 1811TIP3    H229629   1.639   4.957  20.740 -2.4797 -0.9168 -1.5523
 1812TIP3   OH229630   6.038   2.615  18.317 -0.0973  0.4868 -0.1753
 1812TIP3    H129631   5.947   2.646  18.319 -0.3021 -0.1221  0.1887
 1812TIP3    H229632   6.039   2.550  18.247  0.0092  0.3618 -0.0582
 1813TIP3   OH229633   3.450   0.906  19.679 -0.7970 -0.1172  0.0458
 1813TIP3    H129634   3.418   0.993  19.703 -0.6801  0.4633 -1.7459
 1813TIP3    H229635   3.507   0.922  19.604 -2.8784 -1.9991 -2.0623
 1814TIP3   OH229636   2.797   0.492  19.128 -0.4329  0.9967 -0.0517
 1814TIP3    H129637   2.762   0.452  19.049 -0.2787  0.2379  0.2634
 1814TIP3    H229638   2.768   0.436  19.200 -0.7715  1.8050  0.4665
 1815TIP3   OH229639   0.050   6.357  20.713  0.2765  0.0173 -0.3008
 1815TIP3    H129640   0.048   6.299  20.637  0.3521 -0.7432  0.2624
 1815TIP3    H229641  -0.008   6.429  20.690 -1.0334 -1.0417 -0.4218
 1816TIP3   OH229642   0.141   2.078  21.047 -0.0759 -0.0179  0.6024
 1816TIP3    H129643   0.145   1.985  21.026 -0.6451  0.0161  0.3292
 1816TIP3    H229644   0.112   2.120  20.966 -0.6192  0.3008  0.9549
 1817TIP3   OH229645   3.505   2.740  17.582 -0.0451 -0.4154 -0.1874
 1817TIP3    H129646   3.567   2.793  17.632 -0.6534 -0.3725  0.5498
 1817TIP3    H229647   3.506   2.777  17.494  0.8514 -0.3180 -0.1450
 1818TIP3   OH229648   2.544   3.498  20.127 -0.2495  0.3741  0.0380
 1818TIP3    H129649   2.599   3.560  20.080  0.5330 -0.8691 -0.7589
 1818TIP3    H229650   2.500   3.449  20.057 -0.7962 -0.0113  0.6442
 1819TIP3   OH229651   4.060   4.797  18.272  0.4030 -0.0722 -0.4601
 1819TIP3    H129652   4.043   4.704  18.262  2.1326 -0.4250 -0.3797
 1819TIP3    H229653   3.973   4.837  18.279 -0.3450 -1.7189 -0.0207
 1820TIP3   OH229654   4.374   4.899  19.263  0.2728  0.5894 -0.5051
 1820TIP3    H129655   4.312   4.939  19.324 -0.7819 -0.5517 -0.7925
 1820TIP3    H229656   4.397   4.970  19.203  1.5762  1.8319  1.3502
 1821TIP3   OH229657   0.804   2.636  20.557  0.3491 -0.5741  0.1263
 1821TIP3    H129658   0.892   2.669  20.574  0.0915  1.3055 -1.7456
 1821TIP3    H229659   0.750   2.673  20.627  0.0017  3.6870 -2.0403
 1822TIP3   OH229660   3.312   1.099  17.838 -0.7305  0.1398 -0.3556
 1822TIP3    H129661   3.291   1.057  17.754 -1.4011 -0.2124 -0.0229
 1822TIP3    H229662   3.354   1.181  17.814 -2.9283  1.1159 -1.0795
 1823TIP3   OH229663   0.661   0.615  19.846 -0.1630 -0.1234  0.3525
 1823TIP3    H129664   0.610   0.642  19.923 -0.4786 -1.0615  0.4757
 1823TIP3    H229665   0.602   0.628  19.772 -0.6329 -1.3115  0.5058
 1824TIP3   OH229666   4.382   4.796  20.982 -0.4741  0.2084 -0.1008
 1824TIP3    H129667   4.307   4.737  20.990  0.0097 -0.5035 -0.6781
 1824TIP3    H229668   4.424   4.770  20.899  1.7895 -1.0528  1.3434
 1825TIP3   OH229669   4.011   0.287  20.682 -0.0918  0.3476  0.2279
 1825TIP3    H129670   4.043   0.204  20.645 -0.3784 -0.3591  1.4891
 1825TIP3    H229671   4.091   0.333  20.707  0.0652 -0.8577  2.1911
 1826TIP3   OH229672   4.959   1.810  19.762 -0.7618  0.9135  0.2458
 1826TIP3    H129673   4.873   1.780  19.731 -0.4924  0.8787 -0.4855
 1826TIP3    H229674   5.011   1.820  19.682  0.2223  0.0183  0.7460
 1827TIP3   OH229675   1.600   3.604  19.199 -0.3639  0.4788  0.2887
 1827TIP3    H129676   1.641   3.644  19.275  0.3177 -1.0048  0.7383
 1827TIP3    H229677   1.673   3.568  19.148 -0.8213  1.2703 -0.9988
 1828TIP3   OH229678   5.772   6.466  18.561  0.3346  0.1961 -0.4509
 1828TIP3    H129679   5.825   6.545  18.558 -2.4794  2.3657  1.4779
 1828TIP3    H229680   5.771   6.440  18.654  2.4947 -3.2485 -1.1809
 1829TIP3   OH229681   3.999   0.265  20.170  0.3431  0.2405  0.5363
 1829TIP3    H129682   3.945   0.288  20.246 -1.4347  0.3480 -0.7045
 1829TIP3    H229683   3.952   0.301  20.095  0.7148 -2.0217 -0.8899
 1830TIP3   OH229684   4.294   3.784  18.459  0.3916 -0.2043 -0.5070
 1830TIP3    H129685   4.385   3.782  18.429  0.1330 -0.3753 -1.3016
 1830TIP3    H229686   4.260   3.867  18.428 -0.7160 -1.5735 -3.3101
 1831TIP3   OH229687   2.715   6.278  19.815 -0.2252 -0.0176  0.4904
 1831TIP3    H129688   2.657   6.324  19.755 -0.1015 -1.1863 -0.5571
 1831TIP3    H229689   2.712   6.330  19.896 -1.0829  1.0864 -0.2252
 1832TIP3   OH229690   1.019   2.702  19.199  0.3275  0.1670  0.2987
 1832TIP3    H129691   1.108   2.671  19.182  0.0440 -1.2791  1.2641
 1832TIP3    H229692   0.981   2.714  19.112  0.5702 -1.9679 -0.1651
 1833TIP3   OH229693   3.750   1.171  19.326 -0.7592  0.1598  0.1652
 1833TIP3    H129694   3.745   1.261  19.292  4.4748  0.5470 -0.4712
 1833TIP3    H229695   3.730   1.116  19.251  0.6505  0.9535 -0.8542
 1834TIP3   OH229696   4.548   4.109  20.498  0.1226 -0.3858  0.1672
 1834TIP3    H129697   4.507   4.027  20.472 -0.1848 -0.0176 -0.5377
 1834TIP3    H229698   4.540   4.165  20.421 -0.4177  0.5886  0.9114
 1835TIP3   OH229699   3.506   5.036  19.365  0.4821 -0.2550  0.3215
 1835TIP3    H129700   3.438   4.973  19.343 -0.6384  0.6439  1.0883
 1835TIP3    H229701   3.556   4.993  19.435  0.3585 -0.6861  0.1513
 1836TIP3   OH229702   1.099   3.303  19.412 -0.1045  0.1831  0.6347
 1836TIP3    H129703   1.120   3.211  19.421 -1.3407 -0.3049 -0.9759
 1836TIP3    H229704   1.158   3.335  19.343 -0.3131  0.3462  0.5276
 1837TIP3   OH229705   2.139   1.753  19.271 -0.0489  0.0967  0.0975
 1837TIP3    H129706   2.159   1.690  19.201 -0.8797 -0.0057 -0.0622
 1837TIP3    H229707   2.220   1.760  19.321 -0.3549 -2.3077  1.0623
 1838TIP3   OH229708   6.222   0.145  20.325 -0.2387 -0.3704  0.0437
 1838TIP3    H129709   6.217   0.055  20.294  0.2375 -0.0151 -1.1167
 1838TIP3    H229710   6.314   0.158  20.347  0.3208  0.6815 -2.5810
 1839TIP3   OH229711   1.401   3.146  17.633  0.4013 -0.8308  0.2398
 1839TIP3    H129712   1.318   3.117  17.596  0.0401 -0.4237  0.7041
 1839TIP3    H229713   1.453   3.067  17.643  0.7696 -0.8797 -1.7291
 1840TIP3   OH229714   2.727   0.333  20.147 -0.1694 -0.5072 -0.6693
 1840TIP3    H129715   2.715   0.380  20.064 -0.1922 -1.3330 -1.1478
 1840TIP3    H229716   2.821   0.326  20.158 -0.1545  0.2199 -0.2555
 1841TIP3   OH229717   4.809   3.824  20.405  0.4192  0.3841 -0.0032
 1841TIP3    H129718   4.842   3.758  20.344  0.2729  1.4365 -1.2592
 1841TIP3    H229719   4.868   3.899  20.393  1.2873  0.1163  2.2328
 1842TIP3   OH229720   2.271   3.316  20.950  0.1745 -0.4250 -0.2433
 1842TIP3    H129721   2.299   3.318  20.859  2.4606 -1.0791  0.3562
 1842TIP3    H229722   2.249   3.224  20.966  2.1681 -0.8398  0.4332
 1843TIP3   OH229723   4.350   0.961  19.485  0.5728  0.0417  0.0522
 1843TIP3    H129724   4.356   0.995  19.574  1.7447  0.9611 -0.3490
 1843TIP3    H229725   4.330   1.037  19.431 -1.9743 -0.7876 -0.3116
 1844TIP3   OH229726   2.152   0.585  20.177 -0.4941 -0.3131  0.3148
 1844TIP3    H129727   2.202   0.612  20.255  0.5133  1.0958 -0.7655
 1844TIP3    H229728   2.214   0.532  20.127 -0.3614  0.6468 -0.5743
 1845TIP3   OH229729   5.854   2.218  18.914 -0.3283 -0.4309  0.3494
 1845TIP3    H129730   5.895   2.302  18.895 -1.0131 -0.4765 -1.5659
 1845TIP3    H229731   5.765   2.240  18.940 -0.6888 -0.5695 -0.7307
 1846TIP3   OH229732   5.822   3.872  18.831  0.3046  0.0592 -0.2433
 1846TIP3    H129733   5.909   3.880  18.870 -0.5706 -0.8754  2.0480
 1846TIP3    H229734   5.835   3.816  18.755  1.8860  0.9844 -0.7137
 1847TIP3   OH229735   3.120   5.938  18.480 -0.2384 -0.2766 -0.2403
 1847TIP3    H129736   3.031   5.904  18.487 -0.2517 -0.0909  0.4972
 1847TIP3    H229737   3.110   6.033  18.489 -0.0437 -0.1865 -0.9042
 1848TIP3   OH229738   0.565   3.935  20.833  0.5993  0.1295  0.1225
 1848TIP3    H129739   0.473   3.930  20.805  0.5069 -0.2272  0.4851
 1848TIP3    H229740   0.596   4.018  20.796  0.0579  0.3819  0.2130
 1849TIP3   OH229741   6.665   4.294  18.878  0.2001  0.0517  0.4055
 1849TIP3    H129742   6.611   4.373  18.870 -0.4312 -0.2909  1.1565
 1849TIP3    H229743   6.752   4.326  18.902 -0.1945  0.4905  1.2976
 1850TIP3   OH229744   5.769   4.244  19.858 -0.0653 -0.5429  0.0121
 1850TIP3    H129745   5.825   4.322  19.862 -0.4360 -0.2000 -1.0499
 1850TIP3    H229746   5.719   4.255  19.777 -1.0693 -1.2504  0.5190
 1851TIP3   OH229747   1.647   4.799  18.288  0.5674 -0.1366 -0.3192
 1851TIP3    H129748   1.564   4.846  18.288  0.8863  0.4368 -0.4462
 1851TIP3    H229749   1.638   4.734  18.219 -0.4464 -1.2989  0.8603
 1852TIP3   OH229750   3.377   0.729  20.133  0.6565 -0.1389 -0.1156
 1852TIP3    H129751   3.379   0.744  20.228  0.1390  0.4035 -0.1820
 1852TIP3    H229752   3.396   0.814  20.095  0.0192 -0.1618 -0.5022
 1853TIP3   OH229753   2.721   3.432  19.105 -0.3234 -0.5842 -0.1234
 1853TIP3    H129754   2.763   3.429  19.191 -0.5365 -1.7919 -0.0421
 1853TIP3    H229755   2.641   3.380  19.116 -3.7051  4.1364  0.6423
 1854TIP3   OH229756   0.545   6.197  20.504  0.3776  0.1217  0.3531
 1854TIP3    H129757   0.554   6.289  20.530 -0.8475  0.2767  0.2851
 1854TIP3    H229758   0.508   6.154  20.581 -1.3359  0.1835 -0.3830
 1855TIP3   OH229759   4.136   1.921  18.549 -0.0585 -0.8046  0.4899
 1855TIP3    H129760   4.187   1.875  18.482 -2.4011 -1.1576 -1.1903
 1855TIP3    H229761   4.195   1.990  18.581  1.6168 -1.4832 -0.9635
 1856TIP3   OH229762   2.128   1.992  18.568 -0.2303  0.6610  0.3165
 1856TIP3    H129763   2.097   1.981  18.658 -2.4442  1.6992 -0.2490
 1856TIP3    H229764   2.180   2.072  18.570  1.1234 -0.1909  0.9440
 1857TIP3   OH229765   1.270   5.279  20.769  0.2535 -0.2712 -0.2222
 1857TIP3    H129766   1.316   5.349  20.722  0.8817 -0.4246  0.1502
 1857TIP3    H229767   1.177   5.294  20.750  0.5446 -1.5481 -3.2201
 1858TIP3   OH229768   1.550   0.493  20.982  0.0398  0.7972  0.1558
 1858TIP3    H129769   1.573   0.520  20.893 -0.1565 -0.3687 -0.2736
 1858TIP3    H229770   1.459   0.463  20.975  0.2813 -0.0512  0.5693
 1859TIP3   OH229771   4.854   6.051  19.308  0.4766 -0.3310 -0.0630
 1859TIP3    H129772   4.846   6.136  19.351  0.3156 -0.4525  0.1541
 1859TIP3    H229773   4.865   6.071  19.215 -2.0816 -0.0980 -0.3932
 1860TIP3   OH229774   6.146   0.914  20.872 -0.9530 -0.3589  0.4328
 1860TIP3    H129775   6.152   0.990  20.814 -3.0880  0.5978  1.3514
 1860TIP3    H229776   6.092   0.852  20.824 -0.8938 -0.4711  0.5112
 1861TIP3   OH229777   1.808   1.433  18.947  0.0565 -0.0745  0.5789
 1861TIP3    H129778   1.788   1.503  19.010 -0.6459 -0.0314  0.3168
 1861TIP3    H229779   1.749   1.362  18.971 -1.0538  0.3625 -0.7339
 1862TIP3   OH229780   2.628   3.440  20.664  0.1743 -0.1255  0.0947
 1862TIP3    H129781   2.679   3.371  20.706 -0.1879 -1.3185 -1.3461
 1862TIP3    H229782   2.646   3.429  20.571 -0.6010  1.1716 -0.2275
 1863TIP3   OH229783   2.090   3.632  20.690  0.1021  0.6845  0.1934
 1863TIP3    H129784   2.025   3.701  20.681 -0.1316  0.6042  1.1377
 1863TIP3    H229785   2.050   3.556  20.648  1.0592  1.5244 -2.3722
 1864TIP3   OH229786   2.536   2.748  18.458 -0.0773 -0.2211  1.0686
 1864TIP3    H129787   2.443   2.731  18.447 -0.5159  0.9195  2.6404
 1864TIP3    H229788   2.579   2.675  18.414 -1.6864 -0.3513 -0.3895
 1865TIP3   OH229789   3.913   6.389  20.311  0.2191 -0.3223  0.1881
 1865TIP3    H129790   3.992   6.442  20.301 -0.0041  0.1344  0.7981
 1865TIP3    H229791   3.843   6.453  20.321 -0.2536 -0.7247 -0.4885
 1866TIP3   OH229792   5.738   1.405  21.002  0.1481 -0.0989 -0.1577
 1866TIP3    H129793   5.773   1.419  21.090  0.6180 -0.8626 -0.2051
 1866TIP3    H229794   5.737   1.492  20.962  2.6126 -0.0824 -0.3578
 1867TIP3   OH229795   6.625   2.457  20.579  0.4606 -0.4915  0.0104
 1867TIP3    H129796   6.536   2.445  20.546  0.2823 -1.0454  0.6601
 1867TIP3    H229797   6.615   2.505  20.661  0.7474 -0.6823  0.1601
 1868TIP3   OH229798   5.120   6.333  17.854 -0.0806 -0.1900 -0.0178
 1868TIP3    H129799   5.116   6.296  17.942 -1.3024 -1.2874 -0.5076
 1868TIP3    H229800   5.106   6.258  17.796 -0.0671  0.6436 -1.1326
 1869TIP3   OH229801   0.724   2.566  17.786 -0.1074  0.0941  0.0559
 1869TIP3    H129802   0.649   2.514  17.758 -0.1882  1.1856 -1.9154
 1869TIP3    H229803   0.712   2.651  17.743  2.2282  0.3150 -0.2867
 1870TIP3   OH229804   1.184   2.077  20.871 -0.1431 -0.3605  1.0818
 1870TIP3    H129805   1.156   2.006  20.930 -0.2207 -2.5306 -1.3743
 1870TIP3    H229806   1.216   2.031  20.793  0.3887  2.3545 -0.4020
 1871TIP3   OH229807   3.088   4.018  18.779 -0.0331 -0.6503  0.8280
 1871TIP3    H129808   3.110   3.971  18.698  1.3033  1.1157  0.1136
 1871TIP3    H229809   2.999   3.989  18.799 -0.6016 -0.7744 -1.5639
 1872TIP3   OH229810   0.686   4.083  19.964  0.1994 -0.4312 -0.1316
 1872TIP3    H129811   0.705   3.990  19.956 -0.1566 -0.3579 -2.3515
 1872TIP3    H229812   0.594   4.086  19.993 -0.1996 -0.8035 -1.3016
 1873TIP3   OH229813   5.330   2.034  17.218 -0.1461 -0.4332  0.2702
 1873TIP3    H129814   5.287   2.119  17.216 -1.4481 -1.0711 -0.3468
 1873TIP3    H229815   5.296   1.989  17.140  1.4799 -1.0546 -0.1071
 1874TIP3   OH229816   3.661   3.300  18.245  0.1330 -0.2388 -0.3505
 1874TIP3    H129817   3.741   3.252  18.225 -0.4314 -1.7769  0.8243
 1874TIP3    H229818   3.669   3.321  18.338 -0.9662 -0.7488 -0.1213
 1875TIP3   OH229819   4.162   4.038  18.423 -0.6867  0.8221 -0.2786
 1875TIP3    H129820   4.180   4.127  18.454  1.6928 -0.1960  1.5792
 1875TIP3    H229821   4.083   4.012  18.471  0.0970  1.0612  1.1981
 1876TIP3   OH229822   2.503   6.565  20.290  0.0107 -0.0821 -0.0754
 1876TIP3    H129823   2.465   6.560  20.378  1.2017 -1.2624  0.4020
 1876TIP3    H229824   2.528   6.656  20.279  1.7857 -0.2916  1.6989
 1877TIP3   OH229825   6.168   0.537  18.922  0.1809 -0.3015  0.2026
 1877TIP3    H129826   6.214   0.611  18.961 -0.4699  0.4166 -0.3539
 1877TIP3    H229827   6.232   0.466  18.921  1.8782  1.1149 -2.0737
 1878TIP3   OH229828   0.348   4.597  20.547  0.0667  0.6827 -0.1872
 1878TIP3    H129829   0.269   4.607  20.493 -0.1672  0.0403  0.0326
 1878TIP3    H229830   0.328   4.645  20.628 -0.1982  0.3131 -0.0309
 1879TIP3   OH229831   2.220   4.884  17.524 -0.2498 -0.2827  0.3938
 1879TIP3    H129832   2.252   4.801  17.489  0.0988 -0.3139  0.7727
 1879TIP3    H229833   2.287   4.910  17.588 -2.0263 -1.4930  2.9534
 1880TIP3   OH229834   5.246   2.448  18.372  0.5449 -0.4935 -0.4840
 1880TIP3    H129835   5.326   2.492  18.401  0.6650  1.0221 -2.8196
 1880TIP3    H229836   5.175   2.503  18.403  0.5176 -0.6396 -0.2887
 1881TIP3   OH229837   5.981   2.427  18.584 -0.1895  0.3257  0.6971
 1881TIP3    H129838   5.938   2.482  18.649  0.1233  1.1997  0.1955
 1881TIP3    H229839   5.923   2.351  18.574  0.0019 -0.0582  2.3166
 1882TIP3   OH229840   3.487   5.631  19.951  0.3915 -0.1484  0.6142
 1882TIP3    H129841   3.403   5.672  19.933  0.8590 -0.1764 -1.9571
 1882TIP3    H229842   3.471   5.537  19.940  0.9771 -0.0785 -1.1771
 1883TIP3   OH229843   1.204   4.762  20.557  0.3202 -0.0671 -0.2307
 1883TIP3    H129844   1.195   4.831  20.622 -1.5467 -0.2219 -0.2782
 1883TIP3    H229845   1.116   4.725  20.548  0.4521  0.0295 -2.9339
 1884TIP3   OH229846   0.471   6.138  19.814 -0.6171 -0.3556 -0.0956
 1884TIP3    H129847   0.422   6.060  19.786 -0.7864 -0.0516 -0.6748
 1884TIP3    H229848   0.477   6.130  19.909  0.2722 -1.5993 -0.2337
 1885TIP3   OH229849   1.047   1.030  18.390  0.1218 -0.2971 -0.3815
 1885TIP3    H129850   1.028   0.958  18.450 -0.0447  0.8032  0.9489
 1885TIP3    H229851   1.026   0.996  18.303 -2.6381 -0.9774  0.4555
 1886TIP3   OH229852   2.740   0.861  20.157 -0.5046  0.5219 -0.5182
 1886TIP3    H129853   2.809   0.915  20.195 -0.6337  1.0197 -0.9824
 1886TIP3    H229854   2.787   0.792  20.110 -0.2963  1.1487 -1.2580
 1887TIP3   OH229855   1.071   5.435  19.319  0.1655  0.6179  0.5552
 1887TIP3    H129856   1.067   5.472  19.407  2.7633  0.4181  0.8176
 1887TIP3    H229857   0.996   5.375  19.316 -1.0103  1.9066  1.9694
 1888TIP3   OH229858   2.199   1.094  20.019  0.4294 -0.3376 -0.2084
 1888TIP3    H129859   2.149   1.176  20.015 -0.8811 -1.1713 -1.5641
 1888TIP3    H229860   2.277   1.117  20.071 -1.2570  1.0249  1.8838
 1889TIP3   OH229861   3.048   5.131  18.198  0.0385  0.0005 -0.1285
 1889TIP3    H129862   3.081   5.208  18.152  2.3355 -0.7180  0.1554
 1889TIP3    H229863   3.085   5.138  18.286 -2.3371  0.1514  0.9092
 1890TIP3   OH229864   3.112   4.423  19.361 -0.4832 -0.5546 -0.4223
 1890TIP3    H129865   3.188   4.436  19.418 -1.6052  0.7049  0.8881
 1890TIP3    H229866   3.142   4.446  19.274  0.2439  1.5722  0.3219
 1891TIP3   OH229867   1.981   5.842  19.255  0.4034  0.1386  0.5483
 1891TIP3    H129868   1.978   5.752  19.222 -2.3076  0.1524  0.5311
 1891TIP3    H229869   1.990   5.896  19.176 -0.4892 -0.0349  0.3229
 1892TIP3   OH229870   0.927   3.532  17.469  0.1921 -0.1082 -0.5257
 1892TIP3    H129871   0.846   3.565  17.431 -0.1185 -0.3383 -0.0671
 1892TIP3    H229872   0.994   3.595  17.441 -0.5431  1.5162  1.1732
 1893TIP3   OH229873   1.681   4.857  19.658 -0.1062  0.2062  0.2218
 1893TIP3    H129874   1.658   4.946  19.685 -0.7075  0.0255  0.3214
 1893TIP3    H229875   1.687   4.808  19.740  0.8097  0.2894  0.2061
 1894TIP3   OH229876   0.236   2.776  18.819  0.6668  0.4978  0.0078
 1894TIP3    H129877   0.236   2.697  18.873 -0.7540  0.0709 -0.5911
 1894TIP3    H229878   0.289   2.838  18.869  0.1451 -0.1834  1.4631
 1895TIP3   OH229879   6.507   6.688  20.782 -0.3505  0.1715 -0.2769
 1895TIP3    H129880   6.481   6.598  20.803 -2.8158  1.4215  2.7346
 1895TIP3    H229881   6.426   6.737  20.780  1.0584  2.6500 -0.2489
 1896TIP3   OH229882   5.762   1.790  20.405  0.3845  0.1988  0.1899
 1896TIP3    H129883   5.713   1.718  20.444  0.8496  0.5370  1.4560
 1896TIP3    H229884   5.712   1.813  20.326  0.3848 -1.6664 -0.4039
 1897TIP3   OH229885   0.500   4.917  19.718  0.1013 -0.1646  0.2363
 1897TIP3    H129886   0.414   4.955  19.738 -0.1046 -0.3459 -0.2766
 1897TIP3    H229887   0.511   4.933  19.624  0.0444 -1.2905  0.0200
 1898TIP3   OH229888   4.576   3.656  19.388 -0.2536 -0.4331 -0.1202
 1898TIP3    H129889   4.526   3.632  19.310 -0.3073  0.5842 -0.4227
 1898TIP3    H229890   4.528   3.729  19.426  1.2308  0.9343 -0.7251
 1899TIP3   OH229891   6.309   3.849  19.138 -0.5328  0.4153 -0.0081
 1899TIP3    H129892   6.345   3.903  19.208 -1.3993  1.3687 -0.2706
 1899TIP3    H229893   6.308   3.760  19.173 -0.6343  0.8259  1.0542
 1900TIP3   OH229894   4.335   0.318  19.940 -0.0270  0.0221  0.2690
 1900TIP3    H129895   4.321   0.388  20.004 -1.8250 -0.0489  0.0015
 1900TIP3    H229896   4.365   0.244  19.993 -0.3475  0.3093  0.8687
 1901TIP3   OH229897   0.940   2.130  19.103 -0.3181  0.2229  0.0572
 1901TIP3    H129898   0.986   2.058  19.145  0.0081  1.0555  1.1664
 1901TIP3    H229899   0.876   2.088  19.046 -0.3092 -0.9331  0.8784
 1902TIP3   OH229900   3.938   2.183  18.952  0.4211 -0.5241  0.5134
 1902TIP3    H129901   3.976   2.177  19.040  0.3378 -0.0877  0.5823
 1902TIP3    H229902   3.870   2.116  18.950  1.7063 -1.8717  0.1271
 1903TIP3   OH229903   2.667   4.150  19.755  0.1656  0.6751  0.3960
 1903TIP3    H129904   2.605   4.093  19.710  0.8880 -2.6777  3.2489
 1903TIP3    H229905   2.616   4.194  19.823  0.3779  0.0970  0.9349
 1904TIP3   OH229906   3.077   2.847  19.223 -0.5458  0.2887 -0.1450
 1904TIP3    H129907   3.005   2.894  19.182  0.7817  1.3981 -1.3320
 1904TIP3    H229908   3.090   2.891  19.307 -0.7544  0.5881 -0.2690
 1905TIP3   OH229909   2.130   4.092  20.342 -0.3295  0.6305  0.7104
 1905TIP3    H129910   2.167   4.157  20.282  2.8824 -2.3490 -0.9323
 1905TIP3    H229911   2.192   4.089  20.415 -1.3138  0.5185  1.5547
 1906TIP3   OH229912   2.125   3.333  18.158  0.0079 -0.4379 -0.6665
 1906TIP3    H129913   2.187   3.391  18.112 -0.2438  0.4358  0.0657
 1906TIP3    H229914   2.105   3.265  18.094  1.6403 -0.6831 -0.9678
 1907TIP3   OH229915   1.452   0.438  19.462  0.3400  0.0411 -0.4715
 1907TIP3    H129916   1.398   0.386  19.402  0.9757 -0.7817 -0.3518
 1907TIP3    H229917   1.491   0.506  19.406  0.2880 -0.2243 -0.8345
 1908TIP3   OH229918   6.125   3.772  20.233 -0.1992 -0.2206  0.1923
 1908TIP3    H129919   6.164   3.716  20.301  1.7479  1.7314  0.7760
 1908TIP3    H229920   6.178   3.754  20.155  0.8872  1.1942  0.5532
 1909TIP3   OH229921   3.076   6.120  20.829 -0.0643  0.1186 -0.6406
 1909TIP3    H129922   3.011   6.182  20.796  1.6869  1.3290 -2.0304
 1909TIP3    H229923   3.068   6.044  20.771 -0.0328  0.3807 -0.9879
 1910TIP3   OH229924   0.096   1.650  18.190  0.0777  0.2227 -0.2696
 1910TIP3    H129925   0.073   1.606  18.109  0.5706  1.1249 -0.9189
 1910TIP3    H229926   0.180   1.612  18.215  0.0543  0.1335 -0.3270
 1911TIP3   OH229927   1.315   6.615  18.781  0.7647  0.3999  0.1752
 1911TIP3    H129928   1.332   6.584  18.871 -2.3297  1.9332  1.4107
 1911TIP3    H229929   1.271   6.541  18.739  0.6042  0.3032  0.5051
 1912TIP3   OH229930   6.486   4.216  19.758 -0.3767  0.2618 -0.1464
 1912TIP3    H129931   6.558   4.238  19.698 -0.3730  0.2901 -0.1311
 1912TIP3    H229932   6.479   4.120  19.751 -1.0626  0.3576 -0.9909
 1913TIP3   OH229933   5.907   3.983  19.292  0.1770 -0.2002 -0.0226
 1913TIP3    H129934   5.864   4.009  19.211 -0.4169  0.7230  0.5632
 1913TIP3    H229935   5.844   3.926  19.336 -0.5699  1.2946  0.9193
 1914TIP3   OH229936   6.656   4.832  20.489 -0.1186 -0.7686 -0.3108
 1914TIP3    H129937   6.595   4.869  20.426 -1.0727  1.8970  1.9482
 1914TIP3    H229938   6.734   4.887  20.482 -0.0310 -0.7834  0.4225
 1915TIP3   OH229939   0.846   4.523  20.846  0.2203 -0.0902 -0.4236
 1915TIP3    H129940   0.871   4.456  20.782  0.5014  0.0880 -0.4997
 1915TIP3    H229941   0.903   4.507  20.921  1.2482  0.9216 -0.9665
 1916TIP3   OH229942   0.642   2.087  19.714  0.4169 -0.4994 -0.3539
 1916TIP3    H129943   0.729   2.089  19.753  0.5176 -0.3800 -0.5829
 1916TIP3    H229944   0.615   1.995  19.721 -0.1366 -0.2497  1.2358
 1917TIP3   OH229945   3.851   6.034  19.445  0.0183 -0.4708 -0.4304
 1917TIP3    H129946   3.826   5.953  19.400  0.0158 -0.4442 -0.4774
 1917TIP3    H229947   3.801   6.031  19.528 -0.4384 -0.2306 -0.6925
 1918TIP3   OH229948   3.088   1.596  19.782 -0.9405 -0.0451  0.1096
 1918TIP3    H129949   3.038   1.601  19.864 -1.0834  1.2542 -0.0389
 1918TIP3    H229950   3.055   1.669  19.730  0.4310  0.2386 -0.3819
 1919TIP3   OH229951   4.684   4.528  19.411 -0.1323 -0.0134  0.4421
 1919TIP3    H129952   4.636   4.556  19.333 -0.7952 -1.2429  0.3873
 1919TIP3    H229953   4.616   4.520  19.479  0.5002  1.5116  1.3148
 1920TIP3   OH229954   3.561   6.612  19.159 -0.3194 -0.1915 -0.3594
 1920TIP3    H129955   3.612   6.545  19.113  1.1363  0.2984  0.4763
 1920TIP3    H229956   3.580   6.598  19.251 -0.2706  1.1478 -0.1487
 1921TIP3   OH229957   0.858   0.533  19.358  0.2136  0.1209  0.2064
 1921TIP3    H129958   0.813   0.604  19.404  0.7408 -0.0184  0.9621
 1921TIP3    H229959   0.839   0.455  19.411 -0.8932 -0.4453 -0.9596
 1922TIP3   OH229960   2.862   2.102  19.994  1.2238 -0.2761  0.4369
 1922TIP3    H129961   2.820   2.183  19.964  1.0883  0.0544  1.4839
 1922TIP3    H229962   2.796   2.059  20.048  2.0024 -0.0554  1.6025
 1923TIP3   OH229963   4.374   1.783  18.934 -0.2069 -0.5452  0.2886
 1923TIP3    H129964   4.445   1.719  18.939  0.8579  0.5440 -0.2017
 1923TIP3    H229965   4.303   1.745  18.985  0.7013 -1.7082  0.7276
 1924TIP3   OH229966   4.003   1.495  17.706 -0.0527 -0.1690  0.1072
 1924TIP3    H129967   4.017   1.408  17.668  0.2903 -0.2497  0.4062
 1924TIP3    H229968   3.908   1.504  17.711 -0.0943 -0.8085  0.6967
 1925TIP3   OH229969   0.651   1.459  19.098 -0.0125  0.1282  0.0256
 1925TIP3    H129970   0.579   1.396  19.107 -0.1838  0.4193  0.7135
 1925TIP3    H229971   0.640   1.520  19.171 -0.4734  1.5895 -1.2171
 1926TIP3   OH229972   3.374   4.266  20.659 -0.0864  0.3763  0.2805
 1926TIP3    H129973   3.318   4.316  20.600 -0.6126  0.5331  0.8992
 1926TIP3    H229974   3.460   4.268  20.618 -0.0593  1.9327  0.3779
 1927TIP3   OH229975   6.641   6.498  20.177 -0.3644 -0.0262 -0.0433
 1927TIP3    H129976   6.662   6.414  20.137 -0.6175  1.0349 -2.6203
 1927TIP3    H229977   6.548   6.511  20.160 -0.3656  0.7129  0.4706
 1928TIP3   OH229978   4.833   5.094  18.588 -0.6992  0.1137  0.0764
 1928TIP3    H129979   4.824   5.011  18.541 -1.3470 -0.5382  1.2988
 1928TIP3    H229980   4.889   5.072  18.663 -1.3213  0.6437  0.7018
 1929TIP3   OH229981   0.026   4.226  19.969 -0.7754  0.0919 -0.1148
 1929TIP3    H129982  -0.044   4.250  20.029 -0.8327  3.5765 -1.3513
 1929TIP3    H229983  -0.019   4.207  19.886 -0.5416 -2.7604  0.3060
 1930TIP3   OH229984   4.686   1.336  19.072 -0.0052  0.0835  0.3191
 1930TIP3    H129985   4.627   1.283  19.018  0.6792 -0.0997 -0.2725
 1930TIP3    H229986   4.638   1.351  19.153 -0.8459 -0.0965 -0.1304
 1931TIP3   OH229987   4.253   2.445  19.604 -0.0561  0.3555 -1.0570
 1931TIP3    H129988   4.192   2.515  19.627 -0.6294  0.0371 -1.5619
 1931TIP3    H229989   4.286   2.413  19.688 -0.1728  0.8938 -0.8023
 1932TIP3   OH229990   2.354   0.421  18.679  0.0351 -0.5013  0.4528
 1932TIP3    H129991   2.337   0.328  18.697  2.2643 -0.6865  1.9334
 1932TIP3    H229992   2.446   0.434  18.702 -0.3678  2.2302  0.8660
 1933TIP3   OH229993   2.065   1.856  18.307 -0.2037 -0.1002 -0.3192
 1933TIP3    H129994   2.141   1.797  18.308  0.2264  0.4498 -0.3475
 1933TIP3    H229995   2.078   1.911  18.384 -1.2126 -0.8030  0.3713
 1934TIP3   OH229996   1.939   4.097  18.672  0.4495 -0.5845 -0.1412
 1934TIP3    H129997   1.915   4.004  18.661 -0.2791 -0.3445 -0.7006
 1934TIP3    H229998   1.903   4.140  18.594 -0.1927  0.3500  0.6500
 1935TIP3   OH229999   0.878   2.964  20.249 -0.0694  0.3948 -0.0577
 1935TIP3    H130000   0.940   3.036  20.242 -1.6693  1.8131 -0.1390
 1935TIP3    H230001   0.851   2.947  20.159  0.6273 -0.6458 -0.0903
 1936TIP3   OH230002   0.785   5.841  18.131  0.5299 -0.4965  0.0229
 1936TIP3    H130003   0.813   5.758  18.170 -1.5818 -0.9722  0.6911
 1936TIP3    H230004   0.840   5.907  18.173  0.9181 -1.3767  0.9378
 1937TIP3   OH230005   5.557   6.405  18.434  0.2540  0.0015  0.4478
 1937TIP3    H130006   5.539   6.317  18.467 -1.3956  0.7899  1.7578
 1937TIP3    H230007   5.632   6.434  18.485 -0.1337 -0.0904  1.0816
 1938TIP3   OH230008   2.595   3.172  20.569 -0.2312  0.0487  0.0878
 1938TIP3    H130009   2.646   3.199  20.493  0.9249  0.2460  0.9011
 1938TIP3    H230010   2.653   3.114  20.617 -1.6933 -1.7406 -0.2137
 1939TIP3   OH230011   4.191   4.538  20.134 -0.6840  0.4947  0.0595
 1939TIP3    H130012   4.260   4.590  20.176 -0.8024  0.6661  0.0411
 1939TIP3    H230013   4.225   4.522  20.045  0.0841 -0.8441  0.5640
 1940TIP3   OH230014   5.520   6.476  19.406  0.2531 -0.0872  0.3313
 1940TIP3    H130015   5.466   6.466  19.327  0.8452  1.1873 -0.2565
 1940TIP3    H230016   5.469   6.434  19.475  0.0607 -1.9162 -0.8596
 1941TIP3   OH230017   5.903   2.118  18.187  0.4761 -0.6012 -0.2538
 1941TIP3    H130018   5.815   2.129  18.223  0.3585 -1.8894 -0.1033
 1941TIP3    H230019   5.917   2.023  18.186  0.6576 -0.6343 -3.1352
 1942TIP3   OH230020   4.035   0.385  18.947 -0.9997  0.0008 -0.6760
 1942TIP3    H130021   3.967   0.338  18.900 -1.5138 -0.4190  0.4549
 1942TIP3    H230022   4.105   0.320  18.959 -1.7391 -0.5390  0.9472
 1943TIP3   OH230023   6.630   0.439  18.851 -0.2451 -0.0681 -0.2952
 1943TIP3    H130024   6.537   0.458  18.842 -0.0582  0.2222 -1.9216
 1943TIP3    H230025   6.653   0.393  18.770  0.3201 -3.2168  1.4733
 1944TIP3   OH230026   6.347   3.146  19.744  0.1610  0.1514 -0.4890
 1944TIP3    H130027   6.432   3.104  19.732 -0.1837 -0.6805 -0.1029
 1944TIP3    H230028   6.344   3.167  19.837 -0.3897 -0.6024 -0.3212
 1945TIP3   OH230029   2.499   2.288  19.794  0.1828  0.3017  0.0224
 1945TIP3    H130030   2.473   2.378  19.776 -0.5707 -0.3414 -2.4671
 1945TIP3    H230031   2.437   2.258  19.860 -0.1364  1.3006  0.1992
 1946TIP3   OH230032   4.454   2.575  18.600 -0.5607 -0.1226  0.2915
 1946TIP3    H130033   4.537   2.536  18.627  0.1228 -1.3522 -3.1050
 1946TIP3    H230034   4.479   2.659  18.562 -0.7019 -0.8286 -1.4335
 1947TIP3   OH230035   6.129   0.964  20.559  0.7428 -0.0078  0.4777
 1947TIP3    H130036   6.121   0.941  20.466  0.3498  1.6158  0.0725
 1947TIP3    H230037   6.184   0.896  20.596  1.1108 -0.5594 -1.0064
 1948TIP3   OH230038   6.371   2.992  21.006 -0.0564  0.2713  0.4018
 1948TIP3    H130039   6.452   3.042  21.005  1.1631 -1.5211 -1.5398
 1948TIP3    H230040   6.325   3.020  21.085  1.2345  3.1929  0.2458
 1949TIP3   OH230041   4.433   6.672  18.662 -0.2174 -0.7295 -0.6199
 1949TIP3    H130042   4.366   6.707  18.720  0.7190  0.8353 -0.4175
 1949TIP3    H230043   4.477   6.749  18.627  0.9740 -1.6978 -1.3440
 1950TIP3   OH230044   4.337   6.401  19.649  0.0626 -0.3782  0.0005
 1950TIP3    H130045   4.427   6.433  19.658 -0.4354  0.8549  0.9697
 1950TIP3    H230046   4.308   6.435  19.565  0.1105  0.2690  0.2407
 1951TIP3   OH230047   3.934   0.063  19.406 -0.3601 -0.0848  0.1045
 1951TIP3    H130048   3.927   0.146  19.358  0.8376 -0.1766 -0.2875
 1951TIP3    H230049   3.922  -0.004  19.339 -0.2601 -0.2178  0.2186
 1952TIP3   OH230050   2.778   1.690  18.282 -0.2939 -0.2905 -0.1338
 1952TIP3    H130051   2.795   1.618  18.221 -0.7430 -1.3982  1.0052
 1952TIP3    H230052   2.857   1.694  18.336 -0.1745  0.2569 -0.3305
 1953TIP3   OH230053   0.658   3.378  18.924  0.0392  0.0160 -0.1058
 1953TIP3    H130054   0.623   3.430  18.852  0.3344  0.4128  0.0342
 1953TIP3    H230055   0.592   3.310  18.939 -0.9532  1.0906  0.5458
 1954TIP3   OH230056   6.540   0.452  18.353 -0.6847 -0.1698 -0.4635
 1954TIP3    H130057   6.576   0.429  18.267 -0.4099 -0.2556 -0.3278
 1954TIP3    H230058   6.553   0.374  18.407 -0.9971 -0.1700 -0.3868
 1955TIP3   OH230059   0.206   6.323  19.887 -0.8071  0.0886 -0.1575
 1955TIP3    H130060   0.257   6.375  19.948  0.4287  0.0293 -1.1078
 1955TIP3    H230061   0.238   6.234  19.898 -2.8026 -0.5129  1.3505
 1956TIP3   OH230062   3.320   2.242  19.318 -0.6226 -0.0762 -0.0558
 1956TIP3    H130063   3.280   2.157  19.297 -1.1910  0.2426 -0.2691
 1956TIP3    H230064   3.295   2.299  19.245 -2.6445  1.0600  1.4257
 1957TIP3   OH230065   4.791   2.890  20.042 -0.4525 -0.3149 -0.1721
 1957TIP3    H130066   4.881   2.879  20.011 -0.4405 -0.6313 -0.0396
 1957TIP3    H230067   4.737   2.875  19.964 -0.3916 -0.1628 -0.2446
 1958TIP3   OH230068   2.483   2.922  19.052  0.6607  0.0976  0.2996
 1958TIP3    H130069   2.420   2.890  18.987  0.2352  0.4074  0.5527
 1958TIP3    H230070   2.430   2.938  19.130  0.8996  1.2130  0.2477
 1959TIP3   OH230071   5.753   6.514  19.259  0.1925  0.2905 -0.2227
 1959TIP3    H130072   5.699   6.501  19.337  1.5120  0.2903  0.7198
 1959TIP3    H230073   5.712   6.459  19.192 -0.3401 -0.5566  0.7730
 1960TIP3   OH230074   1.527   2.141  19.881 -0.4621  0.2762 -0.0053
 1960TIP3    H130075   1.553   2.231  19.862 -1.1923  0.3848 -0.5424
 1960TIP3    H230076   1.535   2.096  19.797  0.2997 -0.2701  0.3495
 1961TIP3   OH230077   2.685   1.594  18.966 -0.0685  0.2881 -0.4856
 1961TIP3    H130078   2.696   1.688  18.949 -0.5545 -0.1270 -3.7292
 1961TIP3    H230079   2.612   1.568  18.909  1.0228 -2.3141 -0.8280
 1962TIP3   OH230080   4.826   4.363  21.373 -0.3632 -0.0942  0.0838
 1962TIP3    H130081   4.849   4.445  21.416  0.5127 -0.1154 -0.3364
 1962TIP3    H230082   4.859   4.372  21.284  0.9697 -1.4291  0.4024
 1963TIP3   OH230083   2.262   4.688  17.937 -0.2599 -0.4978 -0.1827
 1963TIP3    H130084   2.201   4.761  17.930 -0.6135 -0.8870 -1.4772
 1963TIP3    H230085   2.334   4.710  17.878 -1.0516 -1.7970 -1.7283
 1964TIP3   OH230086   4.141   2.637  19.727 -0.1384 -0.6674 -0.4328
 1964TIP3    H130087   4.103   2.643  19.814  1.0321 -0.8679  0.1092
 1964TIP3    H230088   4.077   2.679  19.670 -0.2585  0.7975  0.7256
 1965TIP3   OH230089   0.270   3.004  20.039  0.0280  0.5207  0.2804
 1965TIP3    H130090   0.282   3.078  20.099  1.8318  0.5307 -0.0565
 1965TIP3    H230091   0.213   2.944  20.088  0.0524  1.2851  1.3056
 1966TIP3   OH230092   3.338   1.832  18.938  0.1481 -0.7897  0.0258
 1966TIP3    H130093   3.386   1.751  18.920 -0.2090 -0.5005 -2.7622
 1966TIP3    H230094   3.249   1.804  18.956  0.2528 -1.0749  0.1053
 1967TIP3   OH230095   6.025   1.773  20.462 -0.3970  0.1480  0.0976
 1967TIP3    H130096   6.013   1.805  20.551 -0.2896 -0.5463  0.3629
 1967TIP3    H230097   5.936   1.754  20.431 -0.5337  1.3690 -0.3257
 1968TIP3   OH230098   5.263   4.730  20.602 -0.0386 -0.4394 -0.2979
 1968TIP3    H130099   5.281   4.823  20.591 -0.9923 -0.2270 -0.1487
 1968TIP3    H230100   5.347   4.692  20.628  0.1812  0.5100  0.4414
 1969TIP3   OH230101   0.574   4.560  20.360  0.0049 -0.0318  0.4974
 1969TIP3    H130102   0.491   4.569  20.408 -0.0666  0.0253  0.3638
 1969TIP3    H230103   0.547   4.535  20.272  0.1161  0.3682  0.3499
 1970TIP3   OH230104   5.792   3.562  19.189 -0.1862  0.1044 -0.0295
 1970TIP3    H130105   5.767   3.644  19.232 -2.7026  0.1750 -1.3894
 1970TIP3    H230106   5.872   3.535  19.232 -0.7004  1.9397  2.2636
 1971TIP3   OH230107   6.438   5.981  18.336 -0.2438  0.2832  0.6087
 1971TIP3    H130108   6.477   5.961  18.250 -0.4215 -1.3504  0.8675
 1971TIP3    H230109   6.384   6.058  18.320 -0.7695 -0.3489 -0.9167
 1972TIP3   OH230110   5.793   0.699  18.015  0.3145 -0.0994  0.0635
 1972TIP3    H130111   5.780   0.618  17.965  1.3778  0.8460 -1.8660
 1972TIP3    H230112   5.801   0.767  17.948 -2.3766  1.9582  1.6263
 1973TIP3   OH230113   3.722   6.047  18.042  0.4299  0.7058 -0.5804
 1973TIP3    H130114   3.816   6.036  18.033  0.5327  0.7503  0.3169
 1973TIP3    H230115   3.696   6.095  17.963  1.2710  1.3126 -0.5084
 1974TIP3   OH230116   2.328   5.212  21.067 -0.0228  0.1452 -0.1107
 1974TIP3    H130117   2.387   5.269  21.018  0.2865 -0.5609 -0.5744
 1974TIP3    H230118   2.382   5.136  21.090 -0.3609  0.1487  0.7199
 1975TIP3   OH230119   0.359   1.150  18.186  0.4581 -0.4104 -0.1848
 1975TIP3    H130120   0.388   1.061  18.163  2.8168  0.8450 -2.7291
 1975TIP3    H230121   0.400   1.167  18.271  0.4717 -1.5306  0.0519
 1976TIP3   OH230122   6.572   2.145  18.794 -0.9201 -0.6179  0.2138
 1976TIP3    H130123   6.624   2.187  18.726 -0.9268  0.7718  1.0370
 1976TIP3    H230124   6.522   2.078  18.747  1.0782 -1.5584 -0.6991
 1977TIP3   OH230125   5.173   4.195  21.083 -0.0288 -0.2895 -0.7540
 1977TIP3    H130126   5.260   4.218  21.116 -0.3057 -1.2581  0.7185
 1977TIP3    H230127   5.167   4.101  21.094 -2.1751 -0.0004  1.5275
 1978TIP3   OH230128   0.234   1.100  21.028  0.3095  0.2136  0.1838
 1978TIP3    H130129   0.156   1.136  21.072  0.4092  2.6892 -1.4765
 1978TIP3    H230130   0.308   1.143  21.071  0.6411 -0.2780  0.1147
 1979TIP3   OH230131   5.663   0.502  20.144 -0.3973 -0.5385 -0.5342
 1979TIP3    H130132   5.704   0.513  20.058  1.2568  1.2899  0.4191
 1979TIP3    H230133   5.693   0.417  20.175  1.2787 -0.0132 -0.6275
 1980TIP3   OH230134   1.455   2.057  21.446 -0.1821  0.2168  0.7516
 1980TIP3    H130135   1.383   2.073  21.385  0.1427  0.8020  0.5116
 1980TIP3    H230136   1.430   2.105  21.525  0.1753  0.8572  0.4883
 1981TIP3   OH230137   3.928   5.907  18.556  0.4299  0.0915  0.0981
 1981TIP3    H130138   3.842   5.941  18.532  0.4905  0.0016 -0.2524
 1981TIP3    H230139   3.952   5.955  18.635  0.0230  0.0618  0.2458
 1982TIP3   OH230140   3.666   2.920  17.713  0.1790  0.2456  0.1112
 1982TIP3    H130141   3.743   2.957  17.671  0.0464  0.9647  0.4842
 1982TIP3    H230142   3.626   2.993  17.760 -0.7864 -0.0891 -0.1551
 1983TIP3   OH230143   5.873   2.897  18.289 -0.4815  0.0274  0.3469
 1983TIP3    H130144   5.844   2.945  18.211 -1.7492 -0.0560  0.7341
 1983TIP3    H230145   5.966   2.915  18.296 -0.5219  0.7280 -0.7016
 1984TIP3   OH230146   2.426   1.243  18.855 -0.1099 -0.2907 -0.0754
 1984TIP3    H130147   2.370   1.178  18.896 -0.0658 -0.4175 -0.2186
 1984TIP3    H230148   2.367   1.293  18.798 -0.0662 -0.4640 -0.2729
 1985TIP3   OH230149   0.437   2.027  20.240 -0.4912 -0.0851  0.5626
 1985TIP3    H130150   0.400   2.091  20.301  0.4698  2.1324 -1.0575
 1985TIP3    H230151   0.367   2.011  20.178 -0.6840 -0.5270  0.8872
 1986TIP3   OH230152   0.618   1.582  18.157  0.1348 -0.1005  0.0893
 1986TIP3    H130153   0.599   1.649  18.223  0.7168 -0.3405  0.5052
 1986TIP3    H230154   0.617   1.499  18.206 -0.4778 -0.3920 -0.4034
 1987TIP3   OH230155   3.815   2.218  17.540 -0.6145 -0.2302 -0.2103
 1987TIP3    H130156   3.787   2.135  17.501  0.8536 -2.2373  2.6063
 1987TIP3    H230157   3.910   2.222  17.523 -0.7222  1.0943 -0.6264
 1988TIP3   OH230158   5.659   0.108  20.753 -0.0133  0.4625  0.3274
 1988TIP3    H130159   5.687   0.085  20.665  1.9644  2.1680  0.4175
 1988TIP3    H230160   5.601   0.184  20.741 -3.7280 -2.1380  0.2604
 1989TIP3   OH230161   0.242   0.307  17.902 -0.0021  0.2147  0.0770
 1989TIP3    H130162   0.309   0.291  17.835 -1.3610 -0.1344 -1.2729
 1989TIP3    H230163   0.161   0.274  17.862 -1.0998  1.2542  1.3667
 1990TIP3   OH230164   4.097   2.732  18.834 -0.7317  0.3827  0.2625
 1990TIP3    H130165   4.044   2.748  18.756 -0.4286  0.1925  0.0164
 1990TIP3    H230166   4.034   2.730  18.906 -0.8473  2.3419  0.2759
 1991TIP3   OH230167   3.637   5.105  20.025 -0.0843 -0.1706 -0.7256
 1991TIP3    H130168   3.561   5.115  19.968  0.1827 -1.0287 -1.2449
 1991TIP3    H230169   3.647   5.011  20.035 -0.1575 -0.0450  0.7962
 1992TIP3   OH230170   3.327   4.179  20.317 -0.6286  0.1495  0.3267
 1992TIP3    H130171   3.248   4.228  20.295 -0.0379  1.3586  0.8258
 1992TIP3    H230172   3.345   4.202  20.408 -0.8593 -1.7528  0.8917
 1993TIP3   OH230173   0.345   3.505  19.168  0.5060  0.2766 -0.2286
 1993TIP3    H130174   0.253   3.493  19.191  0.0551  1.7432 -1.1024
 1993TIP3    H230175   0.369   3.589  19.208  1.4464 -0.0297 -0.1111
 1994TIP3   OH230176   0.869   5.231  19.335  0.1142  0.3979 -0.1416
 1994TIP3    H130177   0.778   5.252  19.356 -0.9324 -3.1565 -0.4346
 1994TIP3    H230178   0.909   5.208  19.418  0.3666  0.6722 -0.1849
 1995TIP3   OH230179   1.733   6.412  20.529 -0.3946 -0.7488 -0.0508
 1995TIP3    H130180   1.741   6.334  20.475 -0.6049 -2.5484  2.3581
 1995TIP3    H230181   1.642   6.440  20.517  0.4397  1.1122 -3.3007
 1996TIP3   OH230182   2.156   0.691  21.144  0.5108 -0.0456  0.4580
 1996TIP3    H130183   2.231   0.709  21.087  2.8693  1.7137  3.7820
 1996TIP3    H230184   2.164   0.753  21.215 -3.2591 -0.9163  1.8987
 1997TIP3   OH230185   2.204   2.239  20.961 -0.2109  0.3426  0.0872
 1997TIP3    H130186   2.126   2.291  20.979 -0.8949 -0.1898 -1.2080
 1997TIP3    H230187   2.170   2.152  20.938  0.7762  0.0180 -0.1893
 1998TIP3   OH230188   2.549   4.550  20.665  0.0729 -0.0015  0.5669
 1998TIP3    H130189   2.482   4.610  20.698  1.4695  2.1888 -0.3691
 1998TIP3    H230190   2.587   4.511  20.744 -0.7763  0.4196  1.2053
 1999TIP3   OH230191   6.025   0.958  19.956  0.2656 -0.0256 -0.3706
 1999TIP3    H130192   6.068   0.879  19.922  0.2660 -0.3708  0.4250
 1999TIP3    H230193   6.045   1.025  19.890 -0.0283 -0.7621 -1.2327
 2000TIP3   OH230194   0.569   1.296  19.745 -0.4685 -0.0584 -0.3223
 2000TIP3    H130195   0.494   1.257  19.789 -0.1683 -1.0212 -0.6540
 2000TIP3    H230196   0.643   1.279  19.803 -0.3689  0.2212 -0.3612
 2001TIP3   OH230197   2.915   4.232  18.677 -0.3299  0.8126  0.3209
 2001TIP3    H130198   2.848   4.265  18.617 -1.2250 -0.7580  0.4154
 2001TIP3    H230199   2.899   4.138  18.682  1.2800  0.5470  1.1188
 2002TIP3   OH230200   0.792   2.938  20.749  0.1088  0.1330 -0.1714
 2002TIP3    H130201   0.797   2.845  20.725  1.4387  0.1363 -0.0037
 2002TIP3    H230202   0.839   2.944  20.832 -0.1188  0.9344 -0.0927
 2003TIP3   OH230203   2.107   0.218  19.355  0.1328 -0.2814 -0.1887
 2003TIP3    H130204   2.075   0.128  19.348 -1.2246 -0.0196  1.9372
 2003TIP3    H230205   2.033   0.267  19.390  1.0479  1.5772 -0.7192
 2004TIP3   OH230206   3.517   1.407  19.784 -0.3469  0.2436  0.7582
 2004TIP3    H130207   3.605   1.445  19.785  0.6523 -1.9007  0.2840
 2004TIP3    H230208   3.464   1.468  19.732  1.4199  0.4920 -0.8523
 2005TIP3   OH230209   2.017   2.731  19.325  0.2471 -0.0322  0.2580
 2005TIP3    H130210   1.959   2.679  19.270  0.9989  0.2429 -0.8373
 2005TIP3    H230211   1.960   2.770  19.391 -0.4293 -1.6485  0.6641
 2006TIP3   OH230212   4.139   4.426  20.418 -0.8664  0.0256 -0.5038
 2006TIP3    H130213   4.195   4.472  20.355 -1.1822 -1.6390 -2.0924
 2006TIP3    H230214   4.050   4.440  20.384 -0.8722 -3.0779 -2.0910
 2007TIP3   OH230215   0.447   1.117  20.360  0.3587  0.0294 -0.3062
 2007TIP3    H130216   0.496   1.174  20.420 -0.2082 -0.5870  0.7610
 2007TIP3    H230217   0.371   1.089  20.410  0.0676 -0.8048 -1.1905
 2008TIP3   OH230218   2.562   3.285  19.466  0.1620  0.5304 -0.5752
 2008TIP3    H130219   2.524   3.328  19.390  0.0794 -0.5181 -1.1454
 2008TIP3    H230220   2.487   3.269  19.524 -0.0074  0.0061 -0.9342
 2009TIP3   OH230221   3.650   5.356  19.966 -0.3030  0.2019 -0.2110
 2009TIP3    H130222   3.578   5.393  20.017  0.3066  1.3317 -0.1372
 2009TIP3    H230223   3.629   5.263  19.958 -0.7596  0.1236  1.5095
 2010TIP3   OH230224   1.230   0.221  19.023 -0.1089 -0.6605 -0.7093
 2010TIP3    H130225   1.304   0.161  19.027 -0.8787 -1.6149 -0.5169
 2010TIP3    H230226   1.157   0.168  18.991 -0.8323  0.1435 -0.4337
 2011TIP3   OH230227   1.102   1.916  19.194  0.7841  0.0452 -0.0686
 2011TIP3    H130228   1.096   1.859  19.117  1.1004  0.0935 -0.1309
 2011TIP3    H230229   1.186   1.961  19.184  0.3530  0.8395 -0.2432
 2012TIP3   OH230230   2.692   6.351  20.138 -0.1840 -0.1483 -0.2886
 2012TIP3    H130231   2.735   6.329  20.221 -0.9858 -0.5739  0.0170
 2012TIP3    H230232   2.764   6.377  20.081  0.3485  0.5451  0.6554
 2013TIP3   OH230233   1.486   0.856  20.045  0.2765 -0.2459 -0.1132
 2013TIP3    H130234   1.462   0.948  20.059  0.0985 -0.3114  0.0057
 2013TIP3    H230235   1.543   0.835  20.119 -1.6859 -0.9733  1.2832
 2014TIP3   OH230236   5.788   4.296  19.583  0.0630  0.3924  0.6291
 2014TIP3    H130237   5.876   4.263  19.602 -0.0093  0.0807  0.4259
 2014TIP3    H230238   5.732   4.219  19.588 -0.2303  0.6241  0.9503
 2015TIP3   OH230239   6.220   2.755  19.239 -0.1435 -0.0420 -0.4845
 2015TIP3    H130240   6.247   2.830  19.187  0.3094  0.6405  0.6987
 2015TIP3    H230241   6.296   2.697  19.238 -0.8371 -1.0147 -2.2462
 2016TIP3   OH230242   3.957   1.075  20.240 -0.4313 -0.2257  0.1982
 2016TIP3    H130243   3.931   1.166  20.255 -0.3718 -0.4285  1.6574
 2016TIP3    H230244   4.034   1.081  20.184  0.4725  0.7201  1.4784
 2017TIP3   OH230245   4.623   1.748  21.055  0.1524 -0.0112 -0.6100
 2017TIP3    H130246   4.604   1.731  21.147 -0.4465 -1.1908 -0.9414
 2017TIP3    H230247   4.616   1.844  21.047  0.4761  0.1327  0.6118
 2018TIP3   OH230248   5.025   6.292  19.819 -0.2480 -0.0907  0.7077
 2018TIP3    H130249   4.951   6.234  19.838 -0.4130 -0.7105 -1.4951
 2018TIP3    H230250   5.000   6.376  19.855 -2.3925 -0.1016 -0.5533
 2019TIP3   OH230251   5.506   6.279  17.729  0.1071  0.3351  0.3869
 2019TIP3    H130252   5.429   6.237  17.691  0.0262 -0.3370  1.2609
 2019TIP3    H230253   5.479   6.302  17.818  1.0441 -0.3178  0.8634
 2020TIP3   OH230254   0.782   5.916  19.638 -0.0638 -0.0731 -0.6259
 2020TIP3    H130255   0.861   5.930  19.587  1.3248 -1.5029  1.0132
 2020TIP3    H230256   0.729   5.857  19.585  1.3986 -1.6179 -0.4349
 2021TIP3   OH230257   2.804   4.604  19.202 -0.1692  0.6178 -0.8609
 2021TIP3    H130258   2.847   4.518  19.200  0.9861  0.8605  3.2391
 2021TIP3    H230259   2.872   4.666  19.177  1.3299  0.7382  2.8235
 2022TIP3   OH230260   0.269   2.229  20.341  0.1471  0.1100  0.2543
 2022TIP3    H130261   0.232   2.251  20.427 -0.0835 -0.5573  0.3342
 2022TIP3    H230262   0.279   2.313  20.297  0.2556  0.4579  0.9295
 2023TIP3   OH230263   5.382   4.255  20.720 -0.3419 -0.0786 -0.5644
 2023TIP3    H130264   5.358   4.244  20.628 -0.4019  0.8256 -0.6638
 2023TIP3    H230265   5.313   4.310  20.756  0.2625  0.4813 -0.2455
 2024TIP3   OH230266   2.334   3.286  20.671 -0.1471  0.0575  0.4157
 2024TIP3    H130267   2.259   3.308  20.617  0.1342  2.4895  0.8869
 2024TIP3    H230268   2.404   3.265  20.609 -0.7572 -0.5804 -0.0598
 2025TIP3   OH230269   5.569   3.984  18.888 -0.1592  0.8376 -0.0608
 2025TIP3    H130270   5.503   3.983  18.818  1.1662 -1.7639 -1.4353
 2025TIP3    H230271   5.652   3.969  18.842  1.3610  3.2252  1.6973
 2026TIP3   OH230272   2.730   6.108  18.928  0.6551 -0.1528  0.3046
 2026TIP3    H130273   2.656   6.168  18.926 -2.5072 -3.4168  3.1477
 2026TIP3    H230274   2.804   6.162  18.956 -1.6608  2.6079  1.6515
 2027TIP3   OH230275   0.881   0.283  20.626  0.0772  0.0413  0.2860
 2027TIP3    H130276   0.799   0.279  20.676  0.7652 -1.0181  1.3943
 2027TIP3    H230277   0.936   0.344  20.675  0.4445 -0.3216  0.3322
 2028TIP3   OH230278   0.941   5.150  19.573  0.0298  0.5370  0.1257
 2028TIP3    H130279   0.958   5.111  19.659 -0.5416 -0.0881 -0.0369
 2028TIP3    H230280   1.027   5.178  19.542  0.5309 -0.9475  0.0910
 2029TIP3   OH230281   1.492   4.368  19.114 -0.4110 -0.0969 -0.3005
 2029TIP3    H130282   1.440   4.414  19.048  1.8551  0.4188 -1.8689
 2029TIP3    H230283   1.540   4.438  19.159 -1.6998 -0.4698  1.7838
 2030TIP3   OH230284   5.669   3.306  19.120  0.9378  0.1964 -0.4007
 2030TIP3    H130285   5.743   3.367  19.130 -0.6261  2.0391  0.5834
 2030TIP3    H230286   5.624   3.309  19.204  0.6662 -2.2194 -0.4004
 2031TIP3   OH230287   3.214   0.662  18.460 -0.1608  0.1844 -0.0354
 2031TIP3    H130288   3.203   0.582  18.409 -0.8045  0.6607 -0.6619
 2031TIP3    H230289   3.286   0.642  18.521  1.9384  0.1982 -2.3403
 2032TIP3   OH230290   4.074   5.036  19.711  0.8724  0.1398 -0.3064
 2032TIP3    H130291   4.107   5.117  19.750 -0.2643  0.1208  0.7490
 2032TIP3    H230292   3.981   5.034  19.734  0.6395 -0.9313 -1.2475
 2033TIP3   OH230293   5.596   4.586  18.625  0.0128  0.0778  0.2013
 2033TIP3    H130294   5.546   4.658  18.665 -3.1186 -0.5765 -2.0702
 2033TIP3    H230295   5.550   4.507  18.653  0.0631 -0.6136 -1.5335
 2034TIP3   OH230296   1.834   0.928  18.717  0.1038  0.1569 -0.1707
 2034TIP3    H130297   1.897   0.861  18.691 -0.0397  0.2003 -0.6458
 2034TIP3    H230298   1.884   1.010  18.713  0.4435  0.0129  1.0034
 2035TIP3   OH230299   0.897   3.206  20.525 -0.4981  0.7385  1.1669
 2035TIP3    H130300   0.825   3.151  20.556 -0.2787 -0.1457  0.1714
 2035TIP3    H230301   0.873   3.227  20.435  2.2027 -2.7664 -0.5809
 2036TIP3   OH230302   5.699   6.129  18.851 -0.3844  0.4429  0.4058
 2036TIP3    H130303   5.718   6.083  18.769 -0.7451  2.0765 -0.6556
 2036TIP3    H230304   5.735   6.217  18.837  0.8952  0.3419  2.6021
 2037TIP3   OH230305   2.239   1.567  18.513 -0.2871 -0.3381 -0.1300
 2037TIP3    H130306   2.182   1.598  18.443  0.3323  0.2540 -0.3752
 2037TIP3    H230307   2.323   1.550  18.470 -0.2270 -1.0669  0.2575
 2038TIP3   OH230308   1.185   2.286  20.003 -0.1066 -0.3682  0.1798
 2038TIP3    H130309   1.211   2.194  19.999 -0.6318 -0.5021 -0.3087
 2038TIP3    H230310   1.238   2.323  20.074 -1.8380 -1.6668  2.2601
 2039TIP3   OH230311   1.599   5.801  19.731 -0.2465  0.4022  0.0844
 2039TIP3    H130312   1.667   5.746  19.693  1.0685  0.3672  2.2910
 2039TIP3    H230313   1.624   5.890  19.705 -1.2851  0.1865 -1.8556
 2040TIP3   OH230314   4.335   5.855  18.754 -0.1305 -0.4195  0.3058
 2040TIP3    H130315   4.313   5.946  18.776 -1.2062 -0.6493  0.2452
 2040TIP3    H230316   4.294   5.804  18.824 -0.2794 -0.9151 -0.1437
 2041TIP3   OH230317   1.427   5.051  20.427 -0.1031 -0.0871  0.5911
 2041TIP3    H130318   1.337   5.033  20.454  0.5861 -2.5305  1.5068
 2041TIP3    H230319   1.420   5.128  20.371 -2.4056  1.4602  2.7830
 2042TIP3   OH230320   3.792   1.324  18.230  0.0824 -0.6936 -0.8998
 2042TIP3    H130321   3.777   1.356  18.319 -1.0889 -2.1909 -0.5113
 2042TIP3    H230322   3.861   1.380  18.195  0.3288  0.1316  0.8330
 2043TIP3   OH230323   1.212   1.255  18.071  0.3807  0.4779 -0.2426
 2043TIP3    H130324   1.253   1.242  17.985 -1.8185 -1.3545 -1.1294
 2043TIP3    H230325   1.235   1.176  18.120 -2.8444 -1.2561 -1.2071
 2044TIP3   OH230326   2.930   2.320  20.712  0.2854  0.3742  0.7941
 2044TIP3    H130327   2.888   2.389  20.661  0.5421  0.0019  0.0655
 2044TIP3    H230328   3.015   2.357  20.737  0.1748  0.5431  0.9243
 2045TIP3   OH230329   2.220   6.483  20.097 -0.0602 -0.2460 -0.2312
 2045TIP3    H130330   2.194   6.541  20.168 -0.2942 -0.2049 -0.3513
 2045TIP3    H230331   2.144   6.478  20.040  0.1915 -0.1265 -0.5812
 2046TIP3   OH230332   5.235   4.942  20.306 -0.4385 -0.5949 -0.9882
 2046TIP3    H130333   5.208   4.861  20.263 -1.8809 -1.1084  0.7583
 2046TIP3    H230334   5.198   4.935  20.394 -0.3281  1.8354 -0.7006
 2047TIP3   OH230335   5.267   2.967  18.694  0.1452  0.1883  0.4008
 2047TIP3    H130336   5.180   2.930  18.710  0.3118 -0.0691  0.7239
 2047TIP3    H230337   5.278   2.965  18.599 -0.0018 -0.2345  0.3926
 2048TIP3   OH230338   0.265   0.831  21.004  0.6105  0.3107  0.1499
 2048TIP3    H130339   0.351   0.866  21.026  1.1920 -0.7702 -0.3327
 2048TIP3    H230340   0.210   0.908  20.995  1.9696  1.1578 -1.4172
 2049TIP3   OH230341   1.301   3.514  21.056 -0.8505  0.0327 -0.7060
 2049TIP3    H130342   1.303   3.603  21.021  0.1634 -0.1213 -1.0586
 2049TIP3    H230343   1.209   3.487  21.046 -1.4054  1.3977  0.3684
 2050TIP3   OH230344   4.647   0.875  20.607  0.1689 -0.3984 -0.5714
 2050TIP3    H130345   4.727   0.925  20.624 -0.2582  0.7884 -1.8711
 2050TIP3    H230346   4.594   0.932  20.551 -2.5709 -0.2310  1.9733
 2051TIP3   OH230347   1.064   3.819  20.677  0.3233 -0.7855 -0.3761
 2051TIP3    H130348   1.157   3.813  20.699  0.2996 -0.4448 -0.1814
 2051TIP3    H230349   1.039   3.729  20.656  0.5958 -0.9460 -0.0238
 2052TIP3   OH230350   1.564   0.104  18.400 -0.8221 -0.2326 -0.0271
 2052TIP3    H130351   1.580   0.136  18.311  0.0267 -1.6884 -0.4475
 2052TIP3    H230352   1.492   0.156  18.432 -0.0493  1.4832 -0.9477
 2053TIP3   OH230353   6.129   2.674  20.968  0.2456 -0.2009  0.2707
 2053TIP3    H130354   6.134   2.763  20.933 -2.7217 -0.1982 -0.3739
 2053TIP3    H230355   6.096   2.622  20.894  1.6052 -1.8059  0.7405
 2054TIP3   OH230356   1.491   3.470  19.665  0.0523 -0.1223 -0.2018
 2054TIP3    H130357   1.457   3.495  19.579 -0.0216 -2.0753 -0.7763
 2054TIP3    H230358   1.496   3.553  19.713 -1.4214  0.8012 -1.5309
 2055TIP3   OH230359   1.810   2.238  17.886 -0.4320  0.2358  0.1251
 2055TIP3    H130360   1.787   2.230  17.794 -1.0586  0.2617  0.2713
 2055TIP3    H230361   1.746   2.182  17.931  0.6871 -0.8245  0.4378
 2056TIP3   OH230362   0.565   2.119  19.077  0.3560  0.6983  0.3103
 2056TIP3    H130363   0.624   2.063  19.027 -0.4513  0.2777 -0.1999
 2056TIP3    H230364   0.479   2.105  19.037 -0.4195 -0.0358  2.1183
 2057TIP3   OH230365   2.187   6.614  20.354  0.2527  0.9639  0.7839
 2057TIP3    H130366   2.269   6.587  20.396  0.4303 -2.0145 -1.1429
 2057TIP3    H230367   2.132   6.536  20.358 -0.7400  1.4347 -1.9454
 2058TIP3   OH230368   0.140   3.563  20.736 -0.5677 -0.5532  0.3108
 2058TIP3    H130369   0.155   3.632  20.673 -1.0369 -0.1348  0.6549
 2058TIP3    H230370   0.122   3.608  20.818  0.7692 -1.0813  0.9295
 2059TIP3   OH230371   2.176   2.023  18.827 -0.4342  0.0549 -0.3713
 2059TIP3    H130372   2.180   2.005  18.921 -0.4902 -1.1584 -0.5835
 2059TIP3    H230373   2.266   2.011  18.797 -0.7448 -1.5343 -0.7805
 2060TIP3   OH230374   3.795   5.247  20.230  0.4275  0.2823  0.0579
 2060TIP3    H130375   3.862   5.188  20.195 -0.6145 -3.0012  3.0784
 2060TIP3    H230376   3.720   5.235  20.172 -0.2991 -2.7772  1.4609
 2061TIP3   OH230377   3.231   2.658  20.886 -0.4694  0.3472  0.0478
 2061TIP3    H130378   3.234   2.704  20.802  1.7889 -1.9847 -1.2978
 2061TIP3    H230379   3.321   2.661  20.918 -0.5295 -1.7987  0.5795
 2062TIP3   OH230380   5.341   6.357  19.577 -0.0073  0.1792 -0.0591
 2062TIP3    H130381   5.319   6.264  19.580  0.0741  0.1188 -1.0083
 2062TIP3    H230382   5.322   6.389  19.666 -1.4871 -0.4058 -0.1364
 2063TIP3   OH230383   5.558   3.884  20.586 -0.0891  0.4789 -0.6586
 2063TIP3    H130384   5.503   3.946  20.634 -0.1270  0.6460 -0.9194
 2063TIP3    H230385   5.645   3.896  20.624 -0.6732 -1.5861  1.5445
 2064TIP3   OH230386   6.212   5.068  20.651  1.1422 -0.5444 -0.0523
 2064TIP3    H130387   6.185   5.068  20.743  2.7722  1.6794  0.5019
 2064TIP3    H230388   6.229   4.976  20.631 -1.9056 -1.4754  0.9631
 2065TIP3   OH230389   1.705   0.082  18.766  0.3273 -0.3937 -0.1846
 2065TIP3    H130390   1.735   0.145  18.831 -1.0794  0.6519 -0.5162
 2065TIP3    H230391   1.680   0.135  18.690 -0.3257 -1.3902 -0.6909
 2066TIP3   OH230392   5.119   2.038  18.861  0.2631  0.0732 -0.3279
 2066TIP3    H130393   5.203   2.063  18.823  2.1472 -2.0412  2.0635
 2066TIP3    H230394   5.093   1.959  18.813  0.4064 -0.1205 -0.0855
 2067TIP3   OH230395   2.179   2.528  19.672  0.4505  0.4974 -0.0255
 2067TIP3    H130396   2.221   2.555  19.754  1.0533  0.9656 -0.4787
 2067TIP3    H230397   2.235   2.563  19.603 -0.1156  0.2163 -0.6468
 2068TIP3   OH230398   0.562   1.083  20.725  0.0044  0.0763  0.4173
 2068TIP3    H130399   0.505   1.145  20.678  1.1950  0.7588 -0.1844
 2068TIP3    H230400   0.627   1.057  20.659 -0.1028 -1.3549  0.8435
 2069TIP3   OH230401   2.821   3.332  20.868 -0.2237  0.2218 -0.4604
 2069TIP3    H130402   2.786   3.301  20.952  1.5302 -0.3210  0.1040
 2069TIP3    H230403   2.856   3.419  20.887  2.0704 -0.7161 -0.0414
 2070TIP3   OH230404   5.282   5.298  18.125 -0.0978 -0.5689 -0.2796
 2070TIP3    H130405   5.358   5.331  18.172 -1.3168  1.4927  0.3973
 2070TIP3    H230406   5.267   5.362  18.055 -1.2487 -0.8702 -0.3396
 2071TIP3   OH230407   2.453   3.401  19.229  0.5972 -0.6162 -0.1355
 2071TIP3    H130408   2.372   3.381  19.277  1.4989 -0.6370  1.4446
 2071TIP3    H230409   2.469   3.493  19.247  1.3855 -0.8307  0.2956
 2072TIP3   OH230410   4.607   4.395  18.448  0.6947  0.3448 -0.2326
 2072TIP3    H130411   4.616   4.300  18.454  0.1261  0.1939 -1.4379
 2072TIP3    H230412   4.513   4.411  18.458  0.8228  0.8095  0.2551
 2073TIP3   OH230413   4.061   1.989  20.029 -0.7836 -0.2571 -0.2588
 2073TIP3    H130414   4.123   1.944  19.971  0.6430  1.2469  0.0254
 2073TIP3    H230415   4.072   2.082  20.009  0.0919  0.3745  2.6454
 2074TIP3   OH230416   5.457   0.648  19.474  0.7101 -0.2417  0.5739
 2074TIP3    H130417   5.509   0.570  19.493  0.6476 -0.4712 -0.1696
 2074TIP3    H230418   5.522   0.716  19.454  0.7802  0.0333  1.6849
 2075TIP3   OH230419   2.254   0.368  19.585  0.0567  0.1642  0.0110
 2075TIP3    H130420   2.197   0.360  19.661 -0.8643  0.1450 -0.6594
 2075TIP3    H230421   2.241   0.286  19.537  2.0319 -0.6402  0.7467
 2076TIP3   OH230422   4.921   1.367  21.284 -0.3836 -0.1717 -0.1774
 2076TIP3    H130423   4.830   1.393  21.271 -0.5062 -1.0509 -1.1718
 2076TIP3    H230424   4.927   1.279  21.246  0.8922 -0.1112 -0.1628
 2077TIP3   OH230425   5.664   4.247  20.845 -0.0010  0.7150 -0.4238
 2077TIP3    H130426   5.722   4.315  20.811 -0.3894  1.3185  0.1055
 2077TIP3    H230427   5.580   4.264  20.802  0.0974  0.0994 -0.8688
 2078TIP3   OH230428   1.454   0.392  20.521  0.3604 -0.5162 -0.4543
 2078TIP3    H130429   1.386   0.438  20.472  1.6495  1.4702 -0.4874
 2078TIP3    H230430   1.516   0.362  20.454  1.8801  1.7946 -0.1900
 2079TIP3   OH230431   3.502   2.069  20.390  0.8408  0.0243 -0.2084
 2079TIP3    H130432   3.460   2.013  20.326  1.0252 -0.7956  0.3653
 2079TIP3    H230433   3.443   2.144  20.400  0.1131 -0.5268 -0.2936
 2080TIP3   OH230434   5.723   0.696  20.323  0.3259 -0.2941 -0.6553
 2080TIP3    H130435   5.803   0.732  20.285  1.3943 -1.0127  0.7974
 2080TIP3    H230436   5.701   0.621  20.267  1.4266 -0.8828 -0.3151
 2081TIP3   OH230437   6.198   5.952  18.050  0.0348  0.2406  0.0394
 2081TIP3    H130438   6.293   5.961  18.060  0.0991  0.6016 -0.8290
 2081TIP3    H230439   6.179   5.994  17.966 -1.0179  1.0329  0.6450
 2082TIP3   OH230440   1.919   1.385  20.377 -0.1773  0.0825 -0.6059
 2082TIP3    H130441   1.917   1.447  20.304  2.8169  0.1540 -0.7697
 2082TIP3    H230442   1.937   1.440  20.454  0.0010 -0.3315 -0.3512
 2083TIP3   OH230443   3.349   4.238  19.157  0.3321  0.4191  0.7138
 2083TIP3    H130444   3.317   4.321  19.122  1.5111  1.3129  1.6608
 2083TIP3    H230445   3.272   4.199  19.198 -0.4728  0.5380 -0.6151
 2084TIP3   OH230446   1.428   5.370  18.135  0.4160 -0.0090  0.2753
 2084TIP3    H130447   1.386   5.436  18.079 -2.5256 -1.7045  0.2262
 2084TIP3    H230448   1.422   5.289  18.083 -0.1841 -1.1407  2.0323
 2085TIP3   OH230449   2.932   1.215  20.066  0.0971 -0.1216  0.5677
 2085TIP3    H130450   2.985   1.248  20.139  0.8208  0.6998 -0.3076
 2085TIP3    H230451   2.858   1.276  20.061  1.0107  0.9468 -0.5315
 2086TIP3   OH230452   4.433   1.622  20.177 -0.0269 -0.2923 -0.0248
 2086TIP3    H130453   4.495   1.662  20.237 -0.2864 -0.6354  0.4774
 2086TIP3    H230454   4.488   1.576  20.113  0.2401 -0.2912  0.2030
 2087TIP3   OH230455   6.505   3.334  18.702  0.0097 -0.0678  0.0702
 2087TIP3    H130456   6.534   3.259  18.753 -0.1862 -0.2039 -0.0181
 2087TIP3    H230457   6.507   3.408  18.763 -2.6439 -0.6742  1.0064
 2088TIP3   OH230458   5.819   5.770  20.335  0.0388 -0.5193  0.2127
 2088TIP3    H130459   5.871   5.759  20.415 -0.7946 -2.5819  0.5268
 2088TIP3    H230460   5.728   5.767  20.365 -0.3068  1.1121 -0.5560
 2089TIP3   OH230461   5.909   2.485  18.916  0.1578  0.1866  0.2596
 2089TIP3    H130462   5.821   2.521  18.905  0.4654  0.8253 -0.1614
 2089TIP3    H230463   5.939   2.520  19.000 -0.4809 -1.0945  1.0497
 2090TIP3   OH230464   5.274   0.917  19.921  0.2131 -0.1179  0.5459
 2090TIP3    H130465   5.290   0.984  19.988 -0.0310  0.2259  0.2705
 2090TIP3    H230466   5.331   0.845  19.944 -0.5688 -0.4000  1.6953
 2091TIP3   OH230467   5.161   4.669  20.160  0.3174 -0.7790 -0.7741
 2091TIP3    H130468   5.100   4.596  20.176 -1.6326  0.6700 -1.2713
 2091TIP3    H230469   5.243   4.640  20.201 -0.6911 -2.7951 -0.0127
 2092TIP3   OH230470   6.262   5.929  18.737  0.4102  0.9450 -0.0774
 2092TIP3    H130471   6.270   6.004  18.678  0.8675 -0.6149 -2.1193
 2092TIP3    H230472   6.244   5.967  18.823  1.0167  3.3838 -0.9632
 2093TIP3   OH230473   4.410   1.163  18.210 -0.2398 -0.1500  0.7568
 2093TIP3    H130474   4.317   1.150  18.226 -0.0805 -1.4446  0.7122
 2093TIP3    H230475   4.434   1.092  18.151  0.5285  0.8735 -0.2148
 2094TIP3   OH230476   5.862   5.317  18.646  0.5061 -0.0389 -0.1786
 2094TIP3    H130477   5.898   5.392  18.599  0.2364  0.6987  0.7511
 2094TIP3    H230478   5.901   5.241  18.603  1.5390  0.6616 -0.5315
 2095TIP3   OH230479   2.356   3.029  20.801  0.3464 -0.1464  1.0721
 2095TIP3    H130480   2.291   3.046  20.870  0.1987  0.9977  0.6574
 2095TIP3    H230481   2.356   3.108  20.747 -0.0850 -1.2907 -0.6965
 2096TIP3   OH230482   4.368   5.411  20.180 -0.7877  0.1731 -0.2213
 2096TIP3    H130483   4.377   5.506  20.180 -1.6418  0.2638 -0.9103
 2096TIP3    H230484   4.327   5.390  20.095  1.3419 -1.0057 -1.0528
 2097TIP3   OH230485   3.228   3.376  17.641  0.1841 -0.1106 -0.0340
 2097TIP3    H130486   3.318   3.385  17.672 -0.2084  1.2696  0.8191
 2097TIP3    H230487   3.196   3.467  17.635 -0.6392 -0.4702 -1.8916
 2098TIP3   OH230488   0.823   4.335  20.418 -0.2135 -0.1424 -0.2710
 2098TIP3    H130489   0.758   4.390  20.460 -1.5099  0.0836 -2.4765
 2098TIP3    H230490   0.898   4.393  20.403 -0.5598  0.3228 -0.2140
 2099TIP3   OH230491   5.261   0.052  20.044  0.6876 -0.0611 -0.2624
 2099TIP3    H130492   5.276   0.147  20.038 -0.3925  0.2448  1.2746
 2099TIP3    H230493   5.315   0.024  20.117 -0.1671 -0.3380  0.2762
 2100TIP3   OH230494   6.298   3.572  19.159  0.0558 -0.4840  0.2857
 2100TIP3    H130495   6.351   3.493  19.150 -0.6259 -0.7786 -1.6469
 2100TIP3    H230496   6.237   3.568  19.086 -0.3386  1.5764  0.4405
 2101TIP3   OH230497   0.263   5.713  19.592  0.0409 -0.1637 -0.3068
 2101TIP3    H130498   0.319   5.700  19.516  0.3379 -0.1004 -0.1012
 2101TIP3    H230499   0.187   5.760  19.557  0.4843  0.4678 -0.4478
 2102TIP3   OH230500   4.851   4.122  21.146 -0.0417  0.0661 -0.1657
 2102TIP3    H130501   4.835   4.215  21.132 -0.3019  0.3883  1.9647
 2102TIP3    H230502   4.946   4.114  21.154 -0.1166  0.6452  2.2198
 2103TIP3   OH230503   3.265   1.232  20.541  0.4528 -0.3522 -0.4542
 2103TIP3    H130504   3.213   1.289  20.598  1.0928 -0.4400  0.2295
 2103TIP3    H230505   3.251   1.267  20.453 -1.0723 -0.6141 -0.3415
 2104TIP3   OH230506   2.385   5.727  19.983 -0.9458 -0.1335  0.2869
 2104TIP3    H130507   2.303   5.762  20.017 -0.7756 -0.0805  0.6528
 2104TIP3    H230508   2.364   5.694  19.896 -1.3001  0.1019  0.2835
 2105TIP3   OH230509   5.830   4.596  19.632  0.2395 -0.2494  0.3510
 2105TIP3    H130510   5.891   4.588  19.559 -1.8504 -0.2336 -1.4948
 2105TIP3    H230511   5.829   4.689  19.654 -0.1291 -0.0331 -0.5546
 2106TIP3   OH230512   0.528   5.145  18.167  0.0561  0.7127 -0.2256
 2106TIP3    H130513   0.622   5.129  18.178  0.1864  2.7967  3.0839
 2106TIP3    H230514   0.523   5.231  18.127 -0.5058  0.0978 -1.5270
 2107TIP3   OH230515   5.235   4.175  18.809 -0.2323 -0.4591  0.8092
 2107TIP3    H130516   5.267   4.085  18.814 -1.0463 -0.8132 -0.0863
 2107TIP3    H230517   5.241   4.207  18.899  1.3014 -0.9626  0.9052
 2108TIP3   OH230518   5.376   4.074  18.519  0.2472  0.1051  0.0064
 2108TIP3    H130519   5.356   3.987  18.552 -0.5680 -0.2047 -1.2433
 2108TIP3    H230520   5.470   4.084  18.533  0.1916 -0.6132  0.9696
 2109TIP3   OH230521   3.952   0.897  19.302 -0.0865  1.0397 -0.4934
 2109TIP3    H130522   3.997   0.873  19.222 -0.4460  0.6421 -0.5806
 2109TIP3    H230523   4.011   0.959  19.345  2.1642 -1.8995  1.0337
 2110TIP3   OH230524   5.567   2.969  19.711 -0.0084  0.2459  0.0895
 2110TIP3    H130525   5.642   2.913  19.730  0.5062  1.2553  1.1921
 2110TIP3    H230526   5.571   2.982  19.616 -0.0811 -1.4450 -0.1803
 2111TIP3   OH230527   6.577   3.166  21.010 -0.4530  0.5459  0.6685
 2111TIP3    H130528   6.666   3.159  21.045 -0.3104 -0.7340  0.1202
 2111TIP3    H230529   6.585   3.229  20.937  0.5703 -1.3289 -0.9372
 2112TIP3   OH230530   1.748   4.078  20.731 -0.0863 -0.2837  0.0281
 2112TIP3    H130531   1.680   4.099  20.667 -0.1726  1.1581  0.5767
 2112TIP3    H230532   1.830   4.079  20.680 -0.2703 -0.1887 -0.2667
 2113TIP3   OH230533   3.311   5.134  18.024 -0.4111 -0.4599  0.2433
 2113TIP3    H130534   3.358   5.072  17.969  2.1271  0.9461  0.6915
 2113TIP3    H230535   3.287   5.084  18.102  0.7883 -1.1294  0.1999
 2114TIP3   OH230536   2.233   5.061  19.638  0.0570  0.0562  0.4262
 2114TIP3    H130537   2.172   4.987  19.639 -1.5141  1.2844  0.1287
 2114TIP3    H230538   2.215   5.108  19.719  0.6382  0.4374  0.3415
 2115TIP3   OH230539   0.053   0.376  18.583  0.5157 -0.0717 -0.1915
 2115TIP3    H130540   0.135   0.360  18.630  1.6560 -1.0716 -2.3380
 2115TIP3    H230541   0.042   0.471  18.585 -0.7003 -0.0983  3.8109
 2116TIP3   OH230542   2.107   1.983  20.897 -0.1561  0.2230 -0.0074
 2116TIP3    H130543   2.026   1.996  20.947  0.4690  1.8433  0.6167
 2116TIP3    H230544   2.077   1.976  20.806 -1.0120  0.7301  0.2205
 2117TIP3   OH230545   5.262   1.010  18.097  0.0469 -0.0189 -0.2222
 2117TIP3    H130546   5.298   1.041  18.180 -1.2984 -0.3289  0.5035
 2117TIP3    H230547   5.195   0.947  18.121  0.4865 -1.0704 -1.5974
 2118TIP3   OH230548   5.534   3.188  19.912 -0.6501  0.0021 -0.0693
 2118TIP3    H130549   5.618   3.161  19.876 -0.7153  1.5754 -1.5231
 2118TIP3    H230550   5.478   3.111  19.903  0.2827 -0.6806 -0.1972
 2119TIP3   OH230551   0.958   2.622  21.179  0.1805 -0.0785  0.3725
 2119TIP3    H130552   0.969   2.612  21.084  1.6865 -1.7605  0.6725
 2119TIP3    H230553   0.902   2.549  21.204  1.0701 -0.5885  0.9513
 2120TIP3   OH230554   1.481   4.710  18.850 -0.4323  0.0925  0.7480
 2120TIP3    H130555   1.444   4.623  18.863 -0.4195  0.0327  0.4071
 2120TIP3    H230556   1.435   4.744  18.773 -0.2035  0.2526  0.6799
 2121TIP3   OH230557   0.871   4.780  18.407 -0.2102  0.0627  0.4215
 2121TIP3    H130558   0.862   4.705  18.465 -3.6212 -0.4748 -0.5696
 2121TIP3    H230559   0.897   4.742  18.323 -0.2451  0.2382  0.3302
 2122TIP3   OH230560   5.277   5.495  18.817  0.7553 -0.5549 -0.5425
 2122TIP3    H130561   5.349   5.486  18.879  0.7682  0.2815 -0.4312
 2122TIP3    H230562   5.235   5.408  18.816  0.4452 -0.4467  1.0100
 2123TIP3   OH230563   3.447   0.900  18.539 -0.3559 -0.2129  0.5106
 2123TIP3    H130564   3.541   0.890  18.527 -0.2657  0.2506  0.8037
 2123TIP3    H230565   3.410   0.815  18.515  0.0893 -0.2402 -0.0958
 2124TIP3   OH230566   1.706   5.401  18.131  0.6213 -0.1334 -0.4333
 2124TIP3    H130567   1.761   5.330  18.096  1.3346  0.8624 -1.3967
 2124TIP3    H230568   1.617   5.369  18.120  0.9242 -0.8684 -0.8734
 2125TIP3   OH230569   1.193   1.987  19.685  0.0250  0.3276 -0.1370
 2125TIP3    H130570   1.264   1.963  19.626 -0.1810  0.4522 -0.4453
 2125TIP3    H230571   1.167   1.905  19.727 -0.9432 -0.1052 -1.4776
 2126TIP3   OH230572   1.615   1.203  19.377  0.1300 -0.1069 -0.0823
 2126TIP3    H130573   1.586   1.147  19.449  0.3144  0.8588  0.7691
 2126TIP3    H230574   1.653   1.279  19.420  0.9383  0.1499 -1.2034
 2127TIP3   OH230575   6.482   1.600  18.341 -0.2041  0.0902  0.0965
 2127TIP3    H130576   6.394   1.621  18.374 -0.6084 -0.5253 -0.5581
 2127TIP3    H230577   6.468   1.584  18.247  0.7622  0.8911 -0.1991
 2128TIP3   OH230578   4.445   0.376  19.678  0.5726 -0.6685 -0.2894
 2128TIP3    H130579   4.380   0.360  19.610  1.1259 -1.3777 -0.6729
 2128TIP3    H230580   4.418   0.320  19.751 -0.3670  0.5533  0.3292
 2129TIP3   OH230581   2.104   2.203  17.336 -0.5800 -0.9102  0.6914
 2129TIP3    H130582   2.189   2.228  17.299 -0.4964 -3.2605 -0.9691
 2129TIP3    H230583   2.040   2.236  17.273 -0.6876 -1.6029  0.4258
 2130TIP3   OH230584   5.774   4.560  21.310  0.1700 -0.1623  0.3793
 2130TIP3    H130585   5.773   4.640  21.364  0.5795  0.7130 -0.8653
 2130TIP3    H230586   5.690   4.519  21.326 -0.6709  1.3058 -0.0816
 2131TIP3   OH230587   1.750   2.121  17.085 -0.2425 -0.1238  0.2397
 2131TIP3    H130588   1.672   2.067  17.094 -1.4628  0.7384 -3.6150
 2131TIP3    H230589   1.822   2.057  17.079 -0.8949 -1.0103  1.2816
 2132TIP3   OH230590   1.512   0.546  19.715 -0.2768  0.8670  0.2274
 2132TIP3    H130591   1.450   0.507  19.778  1.0516  0.9487  1.6457
 2132TIP3    H230592   1.516   0.484  19.643  0.1478 -0.5882  1.4477
 2133TIP3   OH230593   1.395   5.511  21.074 -0.4784 -0.2453 -0.5957
 2133TIP3    H130594   1.302   5.509  21.052 -1.2339  0.2489  2.1826
 2133TIP3    H230595   1.414   5.423  21.108  0.1256 -0.3604 -1.1858
 2134TIP3   OH230596   3.457   5.726  18.702  0.5911  0.1443 -0.1992
 2134TIP3    H130597   3.511   5.660  18.659  0.1503  1.5786 -3.2114
 2134TIP3    H230598   3.508   5.754  18.778  1.4033 -2.5890  0.3382
 2135TIP3   OH230599   3.773   4.562  20.435 -0.3786 -0.1933  0.1672
 2135TIP3    H130600   3.786   4.641  20.487  0.8089 -1.0009  1.1560
 2135TIP3    H230601   3.710   4.510  20.486 -1.0727  0.0637 -0.4228
 2136TIP3   OH230602   0.666   5.444  21.108  0.2371  0.3204  0.5987
 2136TIP3    H130603   0.660   5.372  21.046  0.5349  0.0584  0.8764
 2136TIP3    H230604   0.575   5.462  21.132  0.0832  0.6923 -0.2162
 2137TIP3   OH230605   2.676   2.944  20.952 -0.5323 -0.4068  0.0333
 2137TIP3    H130606   2.668   3.035  20.981  0.8939 -0.2601  0.0497
 2137TIP3    H230607   2.729   2.902  21.021  0.8119 -0.6570 -1.1136
 2138TIP3   OH230608   0.087   0.028  20.687  0.1806  0.2186  0.0043
 2138TIP3    H130609   0.120  -0.013  20.606 -0.6041  2.8263 -1.7521
 2138TIP3    H230610   0.009  -0.023  20.708 -0.5310  0.4330 -1.8642
 2139TIP3   OH230611   1.853   0.453  18.087 -0.0855 -0.1744  0.8800
 2139TIP3    H130612   1.891   0.400  18.017 -0.0842 -0.1746  0.8801
 2139TIP3    H230613   1.890   0.417  18.168 -0.5387 -0.5471  0.9201
 2140TIP3   OH230614   4.844   5.856  19.805  0.3619  0.2262  0.3466
 2140TIP3    H130615   4.784   5.831  19.875 -1.4782 -1.6037 -1.7205
 2140TIP3    H230616   4.813   5.942  19.776  0.4544  0.4964  1.0366
 2141TIP3   OH230617   1.001   0.157  21.038  0.1310 -0.0226  0.3738
 2141TIP3    H130618   1.034   0.154  21.128 -2.7059 -1.5023  1.5020
 2141TIP3    H230619   0.961   0.244  21.031 -2.1488 -0.8855  1.6441
 2142TIP3   OH230620   2.463   6.229  19.995 -0.5062 -0.1261  0.4634
 2142TIP3    H130621   2.510   6.164  20.047  0.7680 -1.0351 -1.7185
 2142TIP3    H230622   2.440   6.184  19.914 -0.2127  1.9334 -0.8228
 2143TIP3   OH230623   1.235   6.624  19.811 -0.2543 -0.1803  0.2861
 2143TIP3    H130624   1.157   6.677  19.825 -0.0418  0.2372 -0.0900
 2143TIP3    H230625   1.259   6.593  19.899 -0.9095 -0.4176  0.3838
 2144TIP3   OH230626   0.559   0.080  17.959  0.0690  0.2932  0.1580
 2144TIP3    H130627   0.578  -0.010  17.987 -0.9725 -0.0902 -0.2910
 2144TIP3    H230628   0.519   0.070  17.873 -0.3628  1.1635  0.2486
 2145TIP3   OH230629   5.846   0.946  20.594 -0.1172 -0.0790 -0.4181
 2145TIP3    H130630   5.940   0.959  20.587  0.0092 -0.7953 -0.0948
 2145TIP3    H230631   5.826   0.958  20.687 -0.1960 -0.8571 -0.3279
 2146TIP3   OH230632   4.606   1.236  20.547 -0.2692  0.1341 -0.2411
 2146TIP3    H130633   4.566   1.202  20.467  0.2021 -0.6703 -0.1417
 2146TIP3    H230634   4.699   1.242  20.528 -0.1487 -0.0804  0.2378
 2147TIP3   OH230635   0.592   5.240  19.308  0.0776  0.0088 -0.4514
 2147TIP3    H130636   0.638   5.296  19.245  1.8350 -0.8047  0.0553
 2147TIP3    H230637   0.504   5.233  19.273  0.5424  0.9745 -1.9086
 2148TIP3   OH230638   2.053   0.887  20.152 -0.3080 -0.0093  0.0749
 2148TIP3    H130639   2.029   0.797  20.130  0.8065 -0.0120 -1.2859
 2148TIP3    H230640   2.131   0.904  20.099  2.1871  0.2564  3.4802
 2149TIP3   OH230641   4.735   2.169  18.096  0.1200  0.4468 -0.5374
 2149TIP3    H130642   4.828   2.153  18.114 -0.4409 -1.3474  0.9564
 2149TIP3    H230643   4.708   2.095  18.042 -1.1719 -0.8865  1.7771
 2150TIP3   OH230644   2.363   6.523  20.963 -0.1432  0.5452  0.1819
 2150TIP3    H130645   2.302   6.480  20.904 -1.5649  1.1618  1.1400
 2150TIP3    H230646   2.317   6.602  20.993  1.0625  0.9593  1.0531
 2151TIP3   OH230647   2.740   6.384  19.203 -0.2823 -0.3406 -0.1080
 2151TIP3    H130648   2.806   6.314  19.203 -1.5844 -1.6506  1.2933
 2151TIP3    H230649   2.786   6.460  19.239  0.6827 -0.9873  0.0850
 2152TIP3   OH230650   3.956   5.412  18.276 -0.6488  0.1711 -0.0341
 2152TIP3    H130651   4.009   5.434  18.352 -0.1590 -0.6243 -0.1256
 2152TIP3    H230652   3.962   5.316  18.269 -0.9942  0.1940 -0.8463
 2153TIP3   OH230653   4.851   1.454  20.248 -0.8715  0.0647 -0.0272
 2153TIP3    H130654   4.864   1.537  20.295 -0.1145  0.5004 -0.9664
 2153TIP3    H230655   4.757   1.451  20.230 -0.7642  1.3029 -0.9695
 2154TIP3   OH230656   5.521   3.674  18.566 -0.0208  0.2403 -0.0653
 2154TIP3    H130657   5.449   3.642  18.512  0.3821  0.5437 -0.7897
 2154TIP3    H230658   5.598   3.627  18.535  0.7380  2.4011 -1.6974
 2155TIP3   OH230659   1.885   2.951  19.584  0.0828  0.0677  0.2612
 2155TIP3    H130660   1.818   2.883  19.577 -0.9800  1.2157 -1.8904
 2155TIP3    H230661   1.856   3.005  19.658  1.4706 -2.2345  2.6425
 2156TIP3   OH230662   0.883   3.446  18.392 -1.0687 -0.2537  0.1799
 2156TIP3    H130663   0.790   3.443  18.415 -0.9530 -0.3539  0.6504
 2156TIP3    H230664   0.920   3.368  18.433 -1.2569 -1.7118 -2.2419
 2157TIP3   OH230665   4.385   1.215  20.744 -0.2916 -0.3641  0.7538
 2157TIP3    H130666   4.459   1.232  20.686 -1.3586  0.7788 -0.3280
 2157TIP3    H230667   4.350   1.131  20.714 -0.4432 -0.0894  0.1553
 2158TIP3   OH230668   0.907   0.899  20.319 -0.0666  0.1982 -0.4085
 2158TIP3    H130669   0.885   0.862  20.404  1.3745  0.7909  0.2560
 2158TIP3    H230670   0.822   0.910  20.275 -0.6331 -3.6777 -0.6457
 2159TIP3   OH230671   0.880   0.391  17.837 -0.4657  0.4655 -0.1450
 2159TIP3    H130672   0.830   0.436  17.905 -1.4532  0.1739 -0.6584
 2159TIP3    H230673   0.942   0.457  17.805  0.2090  0.5248  1.2063
 2160TIP3   OH230674   5.168   1.946  17.026 -0.0274  0.1022  0.3678
 2160TIP3    H130675   5.096   1.884  17.038 -0.2240  0.5811  2.0240
 2160TIP3    H230676   5.153   1.984  16.940 -0.6432 -1.1936 -0.1299
 2161TIP3   OH230677   4.214   5.471  18.107 -0.8654  0.5177 -0.1487
 2161TIP3    H130678   4.140   5.444  18.161  0.2933 -0.9655  0.7710
 2161TIP3    H230679   4.288   5.476  18.167 -0.1969  2.0398 -1.0318
 2162TIP3   OH230680   1.113   3.717  18.493 -0.8507  0.3986  0.2297
 2162TIP3    H130681   1.157   3.763  18.422 -2.8426 -0.4815 -1.6712
 2162TIP3    H230682   1.174   3.648  18.519 -0.4271  0.2320 -1.1684
 2163TIP3   OH230683   2.785   1.759  19.454  0.3693 -0.1614 -0.0518
 2163TIP3    H130684   2.828   1.688  19.407  1.8720  0.3477  0.5069
 2163TIP3    H230685   2.837   1.837  19.433 -0.3585  0.5024  0.5500
 2164TIP3   OH230686   3.023   2.692  19.960  0.6758  0.3215  0.1824
 2164TIP3    H130687   3.000   2.617  20.014  2.0004  0.0665  0.4095
 2164TIP3    H230688   2.955   2.757  19.979 -0.7238 -0.9363 -0.3243
 2165TIP3   OH230689   1.285   4.470  18.895 -0.1541 -0.5060 -0.2520
 2165TIP3    H130690   1.202   4.445  18.856  0.6195 -1.3918 -1.3826
 2165TIP3    H230691   1.350   4.454  18.827  1.1492 -1.3524  1.1106
 2166TIP3   OH230692   3.476   2.577  17.836  0.1307  0.2536 -0.0714
 2166TIP3    H130693   3.553   2.588  17.891  0.3213  0.6402 -0.4116
 2166TIP3    H230694   3.422   2.512  17.882  0.2879  0.5671  0.5599
 2167TIP3   OH230695   2.526   3.616  20.982  0.2838  0.3601 -0.6968
 2167TIP3    H130696   2.453   3.600  21.042  0.6412 -1.1716 -0.6243
 2167TIP3    H230697   2.511   3.554  20.910  2.2289 -1.0302  0.0013
 2168TIP3   OH230698   2.384   3.528  18.320 -0.6846 -0.4349  0.0504
 2168TIP3    H130699   2.413   3.600  18.264  0.4323 -1.9088 -1.3529
 2168TIP3    H230700   2.314   3.566  18.373  0.3673  1.8784 -0.0865
 2169TIP3   OH230701   6.513   0.729  20.780  0.8292 -0.1921 -0.0679
 2169TIP3    H130702   6.542   0.657  20.723 -0.7568 -1.3433  0.5292
 2169TIP3    H230703   6.498   0.688  20.865  2.0307  1.2914  0.9166
 2170TIP3   OH230704   1.301   5.875  18.961  0.1753 -0.0023  0.3892
 2170TIP3    H130705   1.265   5.890  19.048  1.1509 -0.1969  0.8365
 2170TIP3    H230706   1.294   5.781  18.947  1.1772 -0.1531  0.7969
 2171TIP3   OH230707   0.211   4.399  18.971  0.8265  0.4140  0.2823
 2171TIP3    H130708   0.276   4.455  18.927 -0.1703  1.0524 -0.4240
 2171TIP3    H230709   0.201   4.437  19.058 -0.2162  1.6826 -0.3625
 2172TIP3   OH230710   1.423   2.506  19.323 -0.3278  0.4631  0.0138
 2172TIP3    H130711   1.487   2.453  19.370 -1.8040 -1.3908  0.0494
 2172TIP3    H230712   1.393   2.570  19.388 -0.2809 -0.2326  0.7432
 2173TIP3   OH230713   1.758   2.045  20.334  0.0850  0.7071 -0.2025
 2173TIP3    H130714   1.823   1.985  20.298  0.6178  1.0455  0.1613
 2173TIP3    H230715   1.676   2.021  20.292 -0.4236 -2.3416  2.1425
 2174TIP3   OH230716   0.019   4.146  18.200 -0.4291  0.2614 -0.2411
 2174TIP3    H130717  -0.030   4.107  18.128 -0.4659 -0.5153  0.1908
 2174TIP3    H230718   0.080   4.078  18.228 -1.0578  0.1987  1.0760
 2175TIP3   OH230719   6.404   2.846  19.644  0.1269  0.3353 -0.1721
 2175TIP3    H130720   6.437   2.872  19.558 -1.2754 -0.9258 -1.1314
 2175TIP3    H230721   6.418   2.751  19.648 -1.9133 -0.0052 -0.0127
 2176TIP3   OH230722   6.591   5.907  21.078  0.4619  0.0575  0.0603
 2176TIP3    H130723   6.534   5.837  21.110  0.0561  1.0793  1.6479
 2176TIP3    H230724   6.566   5.917  20.986  0.4321 -1.7564 -0.1640
 2177TIP3   OH230725   4.444   5.612  20.738 -0.0728 -0.1318  0.4629
 2177TIP3    H130726   4.386   5.683  20.713  0.0686  0.2227  1.1131
 2177TIP3    H230727   4.520   5.621  20.681 -0.6381 -0.5934 -0.3840
 2178TIP3   OH230728   4.745   0.486  17.422  0.6808  0.3564 -0.2663
 2178TIP3    H130729   4.773   0.577  17.425  1.6189  0.0597  0.3551
 2178TIP3    H230730   4.652   0.490  17.400  0.5981  1.4810  0.2325
 2179TIP3   OH230731   4.600   5.353  19.809 -0.1821 -0.4406 -0.4171
 2179TIP3    H130732   4.520   5.405  19.815 -0.0187 -0.3510  1.2840
 2179TIP3    H230733   4.572   5.264  19.829 -0.1284 -0.7165 -1.4916
 2180TIP3   OH230734   6.038   2.128  19.091 -0.6510 -0.1089 -0.5514
 2180TIP3    H130735   5.963   2.179  19.060  1.0074  2.1519 -1.0863
 2180TIP3    H230736   6.035   2.136  19.186  0.0558  1.8078 -0.6507
 2181TIP3   OH230737   2.103   4.802  18.690 -0.4028 -0.2659  0.4433
 2181TIP3    H130738   2.016   4.808  18.730 -0.8499  2.0350 -0.6988
 2181TIP3    H230739   2.141   4.889  18.703  0.9219 -0.6139 -0.8469
 2182TIP3   OH230740   4.871   2.484  19.383 -0.2373 -0.0353  0.1590
 2182TIP3    H130741   4.844   2.409  19.435 -0.4819  0.6924  1.1092
 2182TIP3    H230742   4.802   2.495  19.318  0.5449 -1.5506 -1.0123
 2183TIP3   OH230743   2.481   5.022  20.596  0.1310 -0.5007  0.2411
 2183TIP3    H130744   2.396   5.054  20.567  1.6996  2.9753 -1.0767
 2183TIP3    H230745   2.508   5.083  20.665  1.4459 -1.7375  0.8956
 2184TIP3   OH230746   3.321   5.204  20.266 -0.1019  0.0417  0.6154
 2184TIP3    H130747   3.311   5.112  20.241  1.7489  0.0162 -0.2026
 2184TIP3    H230748   3.401   5.205  20.319 -0.5271  1.0899  1.2719
 2185TIP3   OH230749   1.807   0.557  19.802 -0.1808  0.2512  0.4844
 2185TIP3    H130750   1.720   0.546  19.765  0.9904 -1.8284 -1.9830
 2185TIP3    H230751   1.812   0.493  19.873 -0.8444  0.8438  1.0768
 2186TIP3   OH230752   3.991   3.474  19.899  0.7455  0.3585  0.6149
 2186TIP3    H130753   4.074   3.522  19.903  0.5177  0.6362  2.9410
 2186TIP3    H230754   3.973   3.448  19.989 -0.7437 -1.4017 -0.1271
 2187TIP3   OH230755   5.723   4.132  20.482  0.1341  0.2769  0.2064
 2187TIP3    H130756   5.752   4.080  20.557 -1.0102 -0.2701  0.2922
 2187TIP3    H230757   5.779   4.103  20.410  0.1191 -0.4195  0.4640
 2188TIP3   OH230758   2.684   5.341  19.711 -0.0634  0.5877  0.6611
 2188TIP3    H130759   2.624   5.414  19.694 -0.4863 -0.0622 -0.7463
 2188TIP3    H230760   2.771   5.380  19.703 -0.2825  1.0742  0.5778
 2189TIP3   OH230761   1.479   3.657  20.497  0.0010 -0.0675 -0.2975
 2189TIP3    H130762   1.543   3.659  20.426  0.1511 -2.1048 -0.2788
 2189TIP3    H230763   1.395   3.648  20.452 -0.2980  2.2346 -0.3065
 2190TIP3   OH230764   5.795   3.174  20.781  0.6074  0.4182  0.6256
 2190TIP3    H130765   5.815   3.081  20.782  0.6928  0.4250  0.1030
 2190TIP3    H230766   5.705   3.180  20.812  1.2330  0.3483  2.5902
 2191TIP3   OH230767   5.379   3.259  18.719 -0.2584 -0.3027  0.5306
 2191TIP3    H130768   5.312   3.224  18.661  0.9654 -1.1692 -0.4140
 2191TIP3    H230769   5.346   3.344  18.746 -2.3744 -1.2872  1.2347
 2192TIP3   OH230770   4.415   3.726  19.655  0.0216  0.0011  0.1658
 2192TIP3    H130771   4.378   3.644  19.686  0.7250 -0.7553 -0.9269
 2192TIP3    H230772   4.343   3.769  19.609 -0.2911 -0.0841  0.5711
 2193TIP3   OH230773   1.279   1.122  20.591 -0.5461 -0.2477  0.5942
 2193TIP3    H130774   1.254   1.043  20.640 -0.8686  0.1408  1.0532
 2193TIP3    H230775   1.250   1.104  20.502 -0.4957 -0.7076  0.6652
 2194TIP3   OH230776   0.356   2.086  18.878  0.3173  0.3692  0.1586
 2194TIP3    H130777   0.315   2.143  18.813  1.3739 -0.1861 -1.0439
 2194TIP3    H230778   0.283   2.042  18.921 -0.4076  0.3049 -1.0773
 2195TIP3   OH230779   6.179   5.847  18.314  0.0742  0.1161  0.5603
 2195TIP3    H130780   6.255   5.900  18.338  1.1012 -0.9681 -0.1663
 2195TIP3    H230781   6.162   5.868  18.223  0.2031 -0.4516  0.3973
 2196TIP3   OH230782   5.359   6.495  20.290  0.1079  0.1889  0.4210
 2196TIP3    H130783   5.404   6.411  20.299 -3.8621 -2.3710 -0.9189
 2196TIP3    H230784   5.292   6.494  20.358 -0.7041  1.7714 -0.2965
 2197TIP3   OH230785   1.933   3.251  20.145 -0.5814  0.3849  0.4298
 2197TIP3    H130786   1.926   3.195  20.223 -0.3248 -1.1241 -0.5948
 2197TIP3    H230787   2.010   3.305  20.162 -0.5695  0.1345  1.2467
 2198TIP3   OH230788   6.107   4.884  19.438  0.0714  0.3714 -0.1726
 2198TIP3    H130789   6.073   4.798  19.463 -0.3499  0.5501 -0.1280
 2198TIP3    H230790   6.128   4.876  19.345 -0.6470  0.4293 -0.3504
 2199TIP3   OH230791   6.663   3.018  20.666 -0.2942 -0.6154  0.0844
 2199TIP3    H130792   6.586   3.037  20.720  1.0277 -0.8859  2.1683
 2199TIP3    H230793   6.737   3.050  20.717  1.1343 -1.9210 -1.0565
 2200TIP3   OH230794   2.593   3.722  20.411 -0.0069  0.0312 -0.1980
 2200TIP3    H130795   2.605   3.815  20.428 -1.7408 -0.0364  1.7693
 2200TIP3    H230796   2.567   3.718  20.319 -1.3764  1.6604  0.0703
 2201TIP3   OH230797   0.328   2.183  18.249 -0.3452 -0.3846  0.2729
 2201TIP3    H130798   0.239   2.149  18.262 -0.0811 -2.3347 -2.2266
 2201TIP3    H230799   0.383   2.130  18.307 -0.5932 -0.3529  0.5389
 2202TIP3   OH230800   6.084   3.880  18.392  0.0260 -0.3943 -0.0769
 2202TIP3    H130801   6.132   3.944  18.444  0.3451  0.2867 -1.1735
 2202TIP3    H230802   6.151   3.825  18.352 -0.2176 -0.9154  0.2115
 2203TIP3   OH230803   2.319   3.631  18.787  0.1229 -0.4575  0.7247
 2203TIP3    H130804   2.260   3.697  18.824  1.3019  0.9567  0.1843
 2203TIP3    H230805   2.304   3.553  18.839 -0.9927  0.3687  1.6923
 2204TIP3   OH230806   5.222   4.389  20.885 -0.4911 -0.3526 -0.6458
 2204TIP3    H130807   5.144   4.428  20.845  0.1618  0.1054 -1.5200
 2204TIP3    H230808   5.189   4.314  20.935 -1.6517  0.6944  0.2161
 2205TIP3   OH230809   6.345   1.618  20.329  0.8984  0.4613 -0.4128
 2205TIP3    H130810   6.275   1.576  20.380  2.3903  0.5622  1.8267
 2205TIP3    H230811   6.334   1.711  20.346  1.5978  0.4729  0.0188
 2206TIP3   OH230812   1.355   3.059  20.039 -0.1892  0.5466  0.0089
 2206TIP3    H130813   1.427   3.000  20.059 -0.4165  0.4414  0.5497
 2206TIP3    H230814   1.389   3.116  19.970  0.6378  0.9232  0.7035
 2207TIP3   OH230815   4.432   4.953  18.676 -0.7562  0.2547  0.4331
 2207TIP3    H130816   4.455   4.897  18.751 -2.0557  1.1729  1.5705
 2207TIP3    H230817   4.474   5.037  18.695  2.9905 -0.7180 -2.2954
 2208TIP3   OH230818   2.788   4.849  18.757 -0.0435  0.5142 -0.1512
 2208TIP3    H130819   2.744   4.853  18.842  0.9006  2.2264  0.2883
 2208TIP3    H230820   2.716   4.838  18.694 -0.9958  1.8181  0.6685
 2209TIP3   OH230821   3.305   4.220  20.949 -0.0594 -0.5109  0.0393
 2209TIP3    H130822   3.373   4.257  21.006 -1.5469  3.6419 -0.5048
 2209TIP3    H230823   3.346   4.215  20.863  0.0445  0.5901  0.0058
 2210TIP3   OH230824   5.352   0.766  18.830  0.1799 -0.3953  0.3437
 2210TIP3    H130825   5.267   0.721  18.829  0.4317 -0.8648 -0.6213
 2210TIP3    H230826   5.362   0.795  18.920 -1.0161 -0.3274  0.4776
 2211TIP3   OH230827   0.280   5.535  20.724  0.6661 -0.0656  0.3312
 2211TIP3    H130828   0.191   5.511  20.747  0.1646 -0.3188 -1.7096
 2211TIP3    H230829   0.333   5.460  20.754  0.0255 -0.5268  0.3376
 2212TIP3   OH230830   6.506   1.063  18.990 -0.1229 -0.1680  0.1119
 2212TIP3    H130831   6.503   1.159  18.989 -1.0690 -0.1809  0.9174
 2212TIP3    H230832   6.598   1.043  19.009  0.3978  0.5476 -1.4717
 2213TIP3   OH230833   0.405   6.201  20.122  0.6861  0.4025  0.0327
 2213TIP3    H130834   0.344   6.132  20.095  0.3959 -0.2010  2.0789
 2213TIP3    H230835   0.463   6.159  20.185  1.9052  1.5096 -0.2970
 2214TIP3   OH230836   0.516   1.178  18.929  0.6655  0.2181 -1.0980
 2214TIP3    H130837   0.530   1.140  19.016  0.2269  1.8513 -0.2768
 2214TIP3    H230838   0.447   1.124  18.890 -0.6090  0.6828  0.4006
 2215TIP3   OH230839   3.587   2.054  18.696  0.0608 -0.0024  0.4836
 2215TIP3    H130840   3.589   2.149  18.687 -0.6224 -0.0499 -0.2489
 2215TIP3    H230841   3.604   2.021  18.608 -0.5026 -0.5533  0.5779
 2216TIP3   OH230842   1.998   6.434  20.616 -0.7346  0.1330  0.2744
 2216TIP3    H130843   1.904   6.447  20.632 -0.6658  0.1189  0.7070
 2216TIP3    H230844   2.002   6.394  20.529 -1.0240  1.8523 -0.5638
 2217TIP3   OH230845   3.999   3.412  20.227  0.2976  0.5995  0.1481
 2217TIP3    H130846   4.016   3.465  20.305 -2.3692 -0.7916  1.8215
 2217TIP3    H230847   4.005   3.321  20.258  1.2964 -0.0753 -1.8218
 2218TIP3   OH230848   6.245   5.854  20.510  0.3491 -0.2264  0.9766
 2218TIP3    H130849   6.174   5.886  20.453  1.0114  0.8816  0.7434
 2218TIP3    H230850   6.295   5.795  20.454 -0.2666 -0.8698  1.0864
 2219TIP3   OH230851   3.131   2.484  20.499  0.1949 -0.2163  0.0277
 2219TIP3    H130852   3.160   2.449  20.584 -1.2452 -0.6403  0.3641
 2219TIP3    H230853   3.036   2.485  20.504  0.1020  0.4478 -1.3275
 2220TIP3   OH230854   0.854   2.120  20.809  0.1657  0.5394 -0.3696
 2220TIP3    H130855   0.829   2.213  20.814  1.0783  0.7719  0.0594
 2220TIP3    H230856   0.929   2.119  20.750 -0.9155 -0.1814 -1.8136
 2221TIP3   OH230857   5.247   2.409  18.842  0.7499  0.1179 -0.0899
 2221TIP3    H130858   5.303   2.482  18.815  0.4912  0.1369 -0.5974
 2221TIP3    H230859   5.296   2.365  18.910  1.2392  0.3330 -0.2975
 2222TIP3   OH230860   6.194   2.551  20.736 -0.2834  0.3429  0.2052
 2222TIP3    H130861   6.255   2.624  20.727  1.5840 -1.1732  0.0185
 2222TIP3    H230862   6.115   2.580  20.691  0.6175  2.0059 -0.3812
 2223TIP3   OH230863   5.878   1.770  17.227 -0.3874  0.0360 -0.7543
 2223TIP3    H130864   5.961   1.816  17.214 -0.8624  0.5839 -2.0208
 2223TIP3    H230865   5.898   1.678  17.214  0.5476 -0.1931  1.6445
 2224TIP3   OH230866   1.886   5.182  18.719  0.1630 -0.9984  0.3768
 2224TIP3    H130867   1.861   5.104  18.670 -0.3198 -1.5152  1.4066
 2224TIP3    H230868   1.806   5.210  18.763  0.4976 -0.3349  0.5774
 2225TIP3   OH230869   1.195   4.695  18.150 -0.1223 -0.4268  0.0387
 2225TIP3    H130870   1.269   4.641  18.179 -0.1829 -0.6958 -0.2933
 2225TIP3    H230871   1.188   4.676  18.057 -0.7766 -0.6032  0.1215
 2226TIP3   OH230872   4.016   0.267  19.699 -0.1160  0.3001 -0.1380
 2226TIP3    H130873   4.018   0.201  19.769 -1.0448  0.4187  0.0108
 2226TIP3    H230874   3.927   0.261  19.663  0.2662  0.4305 -1.1325
 2227TIP3   OH230875   0.699   2.586  18.048  0.2421 -0.3674  0.3112
 2227TIP3    H130876   0.655   2.503  18.064  0.3674 -0.7468 -1.1943
 2227TIP3    H230877   0.741   2.575  17.963  1.1465  0.8729  0.5694
 2228TIP3   OH230878   5.395   2.370  19.648  0.3273 -0.2393 -0.0754
 2228TIP3    H130879   5.314   2.389  19.601  1.6375 -1.5749 -3.1280
 2228TIP3    H230880   5.456   2.439  19.622  1.5552 -1.8559 -1.8089
 2229TIP3   OH230881   0.459   5.121  20.455 -0.0056  0.7364 -0.8212
 2229TIP3    H130882   0.390   5.089  20.513  0.6821 -0.8016 -0.8120
 2229TIP3    H230883   0.416   5.185  20.398 -1.0556  1.0289  0.2684
 2230TIP3   OH230884   3.620   4.917  18.048 -0.6171 -0.4410 -0.2878
 2230TIP3    H130885   3.583   4.967  17.976 -0.0743 -2.7851 -2.3020
 2230TIP3    H230886   3.563   4.841  18.058 -0.1004 -0.6889  1.0953
 2231TIP3   OH230887   3.255   0.483  20.516  0.1927 -0.4501  0.3553
 2231TIP3    H130888   3.340   0.517  20.542  0.3297 -0.0139 -0.6290
 2231TIP3    H230889   3.265   0.388  20.519  0.3827 -0.4072  1.2776
 2232TIP3   OH230890   2.463   4.305  20.588  0.1173  0.1956  0.8054
 2232TIP3    H130891   2.441   4.398  20.593 -0.4632  0.0128  1.8942
 2232TIP3    H230892   2.512   4.288  20.668  0.8182 -0.2917  0.2798
 2233TIP3   OH230893   3.984   3.368  18.189  0.5081 -0.2107 -0.2270
 2233TIP3    H130894   4.019   3.286  18.154  1.0729  0.2432 -0.7493
 2233TIP3    H230895   3.934   3.405  18.116 -0.5546 -0.5414  0.3097
 2234TIP3   OH230896   1.836   2.287  19.633  0.4683  0.6147  0.2127
 2234TIP3    H130897   1.881   2.206  19.656  2.0991  1.5073  0.3595
 2234TIP3    H230898   1.853   2.299  19.540 -1.6851 -0.3263 -0.3448
 2235TIP3   OH230899   4.239   2.722  18.384 -0.1438  0.0044 -0.0227
 2235TIP3    H130900   4.158   2.769  18.367 -0.7235 -0.9963 -0.1080
 2235TIP3    H230901   4.224   2.635  18.348  0.4199 -0.6605  1.2813
 2236TIP3   OH230902   6.557   6.410  18.323 -0.4188  0.7221 -0.0510
 2236TIP3    H130903   6.622   6.479  18.312 -0.1197  0.6373  1.0027
 2236TIP3    H230904   6.607   6.329  18.314 -0.5124  0.6561  0.0228
 2237TIP3   OH230905   0.449   1.502  20.675  0.5230 -0.2542  0.0671
 2237TIP3    H130906   0.485   1.590  20.668  1.8976 -0.8768 -1.0726
 2237TIP3    H230907   0.454   1.482  20.769  1.0980  0.4999  0.2079
 2238TIP3   OH230908   3.974   1.559  18.133 -0.0653 -0.0817  0.4554
 2238TIP3    H130909   4.043   1.531  18.193  0.5349  0.9567  0.2824
 2238TIP3    H230910   4.021   1.595  18.058 -0.7903 -1.9057 -0.9500
 2239TIP3   OH230911   1.017   1.179  19.107 -0.0091  0.0789  0.3256
 2239TIP3    H130912   1.056   1.163  19.021  0.7181  1.8999  0.2765
 2239TIP3    H230913   0.938   1.231  19.088  0.4768  1.0015  0.7722
 2240TIP3   OH230914   4.231   5.897  17.597 -0.0583  0.0133  0.3074
 2240TIP3    H130915   4.309   5.842  17.603  0.3901  0.4758 -1.0723
 2240TIP3    H230916   4.158   5.835  17.596  0.4202 -0.5511 -0.7977
 2241TIP3   OH230917   3.300   0.706  21.006 -0.4106  0.1354  0.4394
 2241TIP3    H130918   3.226   0.767  21.009 -1.2749 -0.8955  2.0306
 2241TIP3    H230919   3.284   0.652  20.929 -0.7120  0.6367  0.1456
 2242TIP3   OH230920   1.655   1.446  18.714 -0.3558 -0.3966  0.0390
 2242TIP3    H130921   1.696   1.523  18.753 -1.7884  0.7119 -0.5585
 2242TIP3    H230922   1.667   1.377  18.779  2.5616 -0.2324 -0.1660
 2243TIP3   OH230923   5.251   1.828  20.622  0.2049  0.5474 -0.6426
 2243TIP3    H130924   5.185   1.769  20.657  1.0657  1.6449  3.4014
 2243TIP3    H230925   5.286   1.783  20.545 -1.2277 -2.7587  0.4643
 2244TIP3   OH230926   5.785   1.600  20.708  0.0119  0.4727 -0.2154
 2244TIP3    H130927   5.800   1.506  20.712 -0.3258  0.4292  3.2632
 2244TIP3    H230928   5.695   1.609  20.677  0.6283 -0.1998 -2.3254
 2245TIP3   OH230929   4.641   4.586  20.481  0.1767 -0.0466  0.2358
 2245TIP3    H130930   4.714   4.648  20.484 -0.8741  1.1821  1.6800
 2245TIP3    H230931   4.621   4.568  20.573 -0.3824 -1.5743 -0.1465
 2246TIP3   OH230932   1.736   5.391  18.472  0.2404  0.4300 -0.3280
 2246TIP3    H130933   1.681   5.315  18.453  0.2532  0.3091  0.1180
 2246TIP3    H230934   1.691   5.436  18.544  0.2336  0.8454 -0.5859
 2247TIP3   OH230935   4.502   2.517  20.706 -0.3527 -0.2929 -0.2162
 2247TIP3    H130936   4.564   2.452  20.672 -1.0109 -0.2149 -1.6132
 2247TIP3    H230937   4.516   2.516  20.801  2.7715  0.7191 -0.5534
 2248TIP3   OH230938   3.233   6.015  19.843 -0.1178  0.0258 -0.1611
 2248TIP3    H130939   3.161   6.052  19.895 -0.5169 -1.4671  0.4151
 2248TIP3    H230940   3.210   6.037  19.753  0.2077  2.0312  0.2098
 2249TIP3   OH230941   5.376   5.429  20.390  0.4643 -0.1324  0.1921
 2249TIP3    H130942   5.468   5.453  20.396  0.2466  0.7145  0.2900
 2249TIP3    H230943   5.367   5.388  20.303  1.6477 -3.5862  1.5414
 2250TIP3   OH230944   1.883   4.527  20.105  0.0022 -0.0003 -0.2597
 2250TIP3    H130945   1.880   4.557  20.196 -1.7988  0.1141 -0.3229
 2250TIP3    H230946   1.905   4.434  20.111  0.5920  0.1643  0.2387
 2251TIP3   OH230947   6.612   4.172  20.248  0.2424  0.0912 -0.9235
 2251TIP3    H130948   6.538   4.170  20.187 -0.8669 -2.9568  0.3271
 2251TIP3    H230949   6.579   4.222  20.323  0.5026  1.1481 -1.4904
 2252TIP3   OH230950   2.590   5.865  18.936  0.1221 -0.0550 -0.5999
 2252TIP3    H130951   2.518   5.927  18.940  0.0283 -0.1164 -1.2712
 2252TIP3    H230952   2.668   5.916  18.957 -0.1362 -0.0382  0.3643
 2253TIP3   OH230953   5.842   3.378  19.955  0.3526  0.1684 -0.3853
 2253TIP3    H130954   5.808   3.365  20.043 -0.5539 -0.5022 -0.8246
 2253TIP3    H230955   5.859   3.472  19.950  2.4110 -0.0258  1.1890
 2254TIP3   OH230956   6.371   2.777  20.674  0.0837 -0.1107 -0.4147
 2254TIP3    H130957   6.426   2.748  20.747 -1.1066  0.1972  0.6376
 2254TIP3    H230958   6.423   2.758  20.596  2.1696  1.1916  0.5518
 2255TIP3   OH230959   5.596   5.745  20.951 -0.3927 -0.2815 -0.2438
 2255TIP3    H130960   5.619   5.660  20.988  0.0522  0.6417  1.7541
 2255TIP3    H230961   5.679   5.782  20.920 -0.1936  0.3407  0.9792
 2256TIP3   OH230962   6.613   4.534  18.684  0.3591 -0.3871  0.0708
 2256TIP3    H130963   6.690   4.578  18.650  0.1143 -1.6017 -2.2581
 2256TIP3    H230964   6.541   4.567  18.630 -0.4749 -0.5989  1.0249
 2257TIP3   OH230965   2.211   0.812  20.774 -0.1956  0.2166 -0.3034
 2257TIP3    H130966   2.245   0.891  20.731  0.6870 -0.4569 -0.8695
 2257TIP3    H230967   2.273   0.743  20.750 -1.0422 -0.6883  0.0594
 2258TIP3   OH230968   0.029   6.284  18.894  0.2370  0.5597  0.4255
 2258TIP3    H130969   0.089   6.305  18.966 -0.6892  1.5261  0.9506
 2258TIP3    H230970   0.085   6.261  18.821  1.2223  0.3289  1.2374
 2259TIP3   OH230971   1.961   3.223  21.041  0.3842 -0.4628  0.2093
 2259TIP3    H130972   1.977   3.262  21.127 -0.5528 -0.6978  0.5024
 2259TIP3    H230973   1.955   3.298  20.981  0.1120 -0.2475  0.5066
 2260TIP3   OH230974   0.634   5.144  20.660  0.5539  0.0028  0.0998
 2260TIP3    H130975   0.589   5.104  20.735  1.6945  0.3298  0.9903
 2260TIP3    H230976   0.567   5.149  20.592  0.0384 -2.2983  0.3419
 2261TIP3   OH230977   2.668   0.213  20.513 -0.0813 -0.2460  0.0210
 2261TIP3    H130978   2.739   0.165  20.555  1.1529  2.2177  0.8993
 2261TIP3    H230979   2.702   0.301  20.500 -1.5419  0.0068 -3.3290
 2262TIP3   OH230980   5.287   5.907  18.950  0.2602  0.4918 -0.1680
 2262TIP3    H130981   5.227   5.942  19.017  0.4537 -0.2169  0.3850
 2262TIP3    H230982   5.240   5.832  18.913  0.1360  0.9099 -0.8643
 2263TIP3   OH230983   4.592   4.667  18.509  0.6089  0.3048 -0.6814
 2263TIP3    H130984   4.544   4.686  18.590 -2.6037  0.4052 -2.4300
 2263TIP3    H230985   4.596   4.572  18.505 -0.5780  0.2588 -1.0826
 2264TIP3   OH230986   4.542   1.578  18.969 -0.2186 -0.0746  0.6608
 2264TIP3    H130987   4.454   1.567  19.005  0.0200  0.0800  1.3041
 2264TIP3    H230988   4.597   1.521  19.022 -0.3300 -2.3823 -1.5068
 2265TIP3   OH230989   5.538   3.477  19.960 -0.2212 -0.5822  0.2883
 2265TIP3    H130990   5.582   3.496  20.043 -0.1062  0.5556 -0.0075
 2265TIP3    H230991   5.535   3.382  19.955 -1.4702 -0.7005  2.2541
 2266TIP3   OH230992   0.713   5.512  20.761  0.3371 -0.4777 -0.3419
 2266TIP3    H130993   0.807   5.523  20.775  0.2170 -0.5757  0.6440
 2266TIP3    H230994   0.674   5.592  20.796  0.1832  0.5653 -2.7474
 2267TIP3   OH230995   1.057   2.698  18.064 -0.3218  0.4465  0.2704
 2267TIP3    H130996   0.985   2.757  18.043  0.4903  1.8022  1.1547
 2267TIP3    H230997   1.093   2.732  18.146  0.7447 -0.7500  0.3303
 2268TIP3   OH230998   6.063   2.869  17.427  0.3788  0.1243 -0.4233
 2268TIP3    H130999   6.131   2.810  17.394  1.8402  1.7805 -0.5243
 2268TIP3    H231000   6.030   2.913  17.349  0.6369  0.8088 -0.1452
 2269TIP3   OH231001   3.665   1.045  17.209  0.0847  0.1590  0.1703
 2269TIP3    H131002   3.664   1.017  17.118  3.4798 -0.3463  0.1317
 2269TIP3    H231003   3.717   0.978  17.254  1.0816  1.9421  1.8312
 2270TIP3   OH231004   6.680   1.454  20.057  0.4155 -0.1359 -0.6637
 2270TIP3    H131005   6.718   1.527  20.105  0.7438  1.4265 -3.0960
 2270TIP3    H231006   6.590   1.481  20.041  0.7835  0.2344 -2.3404
 2271TIP3   OH231007   6.626   2.800  20.514  0.4643  0.1646 -0.0230
 2271TIP3    H131008   6.646   2.883  20.557  1.9371 -0.1000 -0.1357
 2271TIP3    H231009   6.696   2.742  20.541  1.3424 -0.0867 -2.5513
 2272TIP3   OH231010   2.624   3.916  18.107  0.2417 -0.1112  0.2792
 2272TIP3    H131011   2.574   3.839  18.079 -1.5624  1.2886 -0.4926
 2272TIP3    H231012   2.653   3.957  18.026 -0.7956  1.2663  0.5717
 2273TIP3   OH231013   4.777   2.775  18.823  1.1059  0.8634 -0.2554
 2273TIP3    H131014   4.699   2.826  18.799  0.5596 -0.1697 -0.7222
 2273TIP3    H231015   4.849   2.818  18.776  0.1826 -0.6371 -3.2399
 2274TIP3   OH231016   3.652   0.946  20.306 -0.6995 -0.5725  0.7327
 2274TIP3    H131017   3.668   0.943  20.212  0.0259 -0.6988  0.8565
 2274TIP3    H231018   3.668   1.038  20.330  0.8910 -0.8946  1.0236
 2275TIP3   OH231019   4.872   2.657  18.154 -1.1114  0.3461  0.4864
 2275TIP3    H131020   4.873   2.576  18.205  1.5047 -0.2753 -0.3813
 2275TIP3    H231021   4.838   2.631  18.068  0.9976 -0.2239 -0.2345
 2276TIP3   OH231022   5.966   2.478  19.376 -0.0179  0.0132 -0.0925
 2276TIP3    H131023   5.904   2.492  19.447  0.2957 -0.9452  0.3892
 2276TIP3    H231024   5.985   2.385  19.378 -0.6764 -0.2086 -2.0134
 2277TIP3   OH231025   3.966   2.764  20.669 -0.0021  0.1650  0.6652
 2277TIP3    H131026   3.981   2.679  20.711  1.0596 -0.0939 -0.1897
 2277TIP3    H231027   4.006   2.755  20.583 -0.0078  1.4877  0.5118
 2278TIP3   OH231028   6.158   4.372  18.706 -0.2466  0.0808 -0.0904
 2278TIP3    H131029   6.231   4.310  18.700 -0.8038 -0.8600  1.9437
 2278TIP3    H231030   6.133   4.370  18.798 -1.6529  1.7904 -0.3881
 2279TIP3   OH231031   3.729   6.436  19.284  0.5468 -0.8525  0.7678
 2279TIP3    H131032   3.709   6.357  19.234  0.3163 -0.3834  0.1081
 2279TIP3    H231033   3.822   6.451  19.269  0.3624 -0.4099  0.0297
 2280TIP3   OH231034   0.604   3.612  19.825  0.1886  0.2472 -0.1802
 2280TIP3    H131035   0.599   3.538  19.885  0.7738  0.4205  0.0929
 2280TIP3    H231036   0.681   3.593  19.770  1.4135  1.4721  1.0362
 2281TIP3   OH231037   3.200   6.335  20.295 -0.5542 -0.5971 -0.3903
 2281TIP3    H131038   3.286   6.294  20.306 -0.0647  0.8519  1.8315
 2281TIP3    H231039   3.205   6.377  20.209  2.1860  1.9962  0.8456
 2282TIP3   OH231040   5.604   5.824  20.609 -0.4337 -0.3458  0.3940
 2282TIP3    H131041   5.522   5.847  20.653 -0.9272  0.3062 -0.8008
 2282TIP3    H231042   5.617   5.894  20.545  2.9183  1.5404  2.8367
 2283TIP3   OH231043   5.881   5.865  19.322  0.0079  0.2377  0.1775
 2283TIP3    H131044   5.936   5.940  19.342 -0.8140  0.8524  0.1796
 2283TIP3    H231045   5.864   5.871  19.228  1.8023 -1.2480 -0.3162
 2284TIP3   OH231046   3.108   4.742  18.004  0.1133 -0.4620 -0.2494
 2284TIP3    H131047   3.056   4.729  17.925  0.4912 -2.9621 -0.1587
 2284TIP3    H231048   3.192   4.775  17.972  0.2590 -1.4404 -0.9017
 2285TIP3   OH231049   5.132   2.023  19.860 -0.4765 -0.1173 -0.3635
 2285TIP3    H131050   5.209   1.993  19.907 -0.2324  0.6976 -0.2257
 2285TIP3    H231051   5.067   1.954  19.874  0.3347 -0.9955 -0.7989
 2286TIP3   OH231052   2.814   2.889  17.505 -0.0262  0.2140  0.3223
 2286TIP3    H131053   2.825   2.975  17.465  2.5019 -0.3979 -0.5406
 2286TIP3    H231054   2.889   2.838  17.473 -1.1144 -2.1430  1.2518
 2287TIP3   OH231055   3.332   3.603  20.313 -0.1001  0.0032 -0.1555
 2287TIP3    H131056   3.394   3.535  20.337 -2.3950 -0.9485  4.0583
 2287TIP3    H231057   3.354   3.678  20.368 -1.4931  0.3100  0.0369
 2288TIP3   OH231058   4.824   6.303  19.041  0.1003  0.4602  0.3228
 2288TIP3    H131059   4.909   6.344  19.059 -0.6780  2.0924  0.4490
 2288TIP3    H231060   4.818   6.302  18.946  0.5419 -0.3237  0.2889
 2289TIP3   OH231061   4.847   2.225  19.628 -0.1699  0.4151  0.5035
 2289TIP3    H131062   4.926   2.244  19.678  1.3069  1.0188 -1.8917
 2289TIP3    H231063   4.878   2.175  19.552 -2.3609 -0.9017  0.3834
 2290TIP3   OH231064   0.013   2.114  19.742 -0.6876  0.0277 -0.0869
 2290TIP3    H131065   0.077   2.143  19.807  0.2750  0.3008 -1.1201
 2290TIP3    H231066  -0.063   2.087  19.793 -0.0773  0.5386  1.1245
 2291TIP3   OH231067   1.907   1.369  19.575 -0.0769 -0.1340  0.1424
 2291TIP3    H131068   1.826   1.414  19.553 -0.1550 -1.0540 -1.5838
 2291TIP3    H231069   1.941   1.337  19.492  0.7632 -1.9467  1.1211
 2292TIP3   OH231070   3.058   1.759  19.074  0.0354 -0.2571 -0.3601
 2292TIP3    H131071   3.085   1.667  19.064 -0.4007 -0.4045 -0.1948
 2292TIP3    H231072   3.036   1.787  18.986  0.1315 -0.3205 -0.4059
 2293TIP3   OH231073   1.219   2.766  20.880  0.1455 -0.1412 -0.2687
 2293TIP3    H131074   1.242   2.853  20.847  0.0844  0.2660  0.7453
 2293TIP3    H231075   1.291   2.742  20.938  0.4279 -1.0132 -0.9382
 2294TIP3   OH231076   4.850   3.052  19.298 -0.0378  0.4865  0.3650
 2294TIP3    H131077   4.855   2.962  19.328  0.5182 -0.0869 -1.2951
 2294TIP3    H231078   4.774   3.054  19.240 -0.6638  1.3576  1.1897
 2295TIP3   OH231079   4.182   3.463  18.319 -0.1867 -0.4522 -0.9124
 2295TIP3    H131080   4.096   3.436  18.286 -1.6981  1.8205  0.8649
 2295TIP3    H231081   4.187   3.427  18.407  0.9582 -1.0044 -1.1800
 2296TIP3   OH231082   5.341   2.265  17.943  0.1736  0.1208 -0.1036
 2296TIP3    H131083   5.273   2.310  17.994  0.3200  0.5172 -0.2475
 2296TIP3    H231084   5.385   2.336  17.896  0.9407 -0.0817  0.2855
 2297TIP3   OH231085   3.170   4.966  20.534  0.2371  0.3448 -0.0048
 2297TIP3    H131086   3.167   5.056  20.567  0.5448 -0.2811  1.8055
 2297TIP3    H231087   3.114   4.917  20.593  3.1014 -1.3694  1.5250
 2298TIP3   OH231088   2.188   2.905  20.604 -0.1703  0.7444  0.2691
 2298TIP3    H131089   2.241   2.945  20.673  0.2973  0.6726 -0.0458
 2298TIP3    H231090   2.238   2.919  20.524  0.5604 -1.4783  0.2933
 2299TIP3   OH231091   4.970   0.816  20.954  0.4014 -0.0723  0.8482
 2299TIP3    H131092   4.889   0.796  20.906  1.1870 -0.3815 -0.3747
 2299TIP3    H231093   4.967   0.911  20.967  0.7096  0.1963 -0.8368
 2300TIP3   OH231094   1.584   3.347  20.315 -0.0804 -0.1661 -0.9179
 2300TIP3    H131095   1.612   3.255  20.315 -0.2058 -0.2093 -0.1378
 2300TIP3    H231096   1.521   3.353  20.387  0.8617  0.8165 -0.1554
 2301TIP3   OH231097   4.974   2.858  18.644  0.5442 -0.1815  0.2318
 2301TIP3    H131098   4.963   2.953  18.646 -0.0376 -0.2563  2.0567
 2301TIP3    H231099   4.939   2.832  18.559 -1.2241  1.0186  0.5391
 2302TIP3   OH231100   3.055   2.462  19.723 -0.0388  0.3692 -0.2330
 2302TIP3    H131101   3.105   2.439  19.645  0.0711  1.7601 -0.6036
 2302TIP3    H231102   2.968   2.483  19.689 -1.1008 -2.4410  0.4445
 2303TIP3   OH231103   3.874   0.545  18.602  0.4696 -0.6637  0.1826
 2303TIP3    H131104   3.891   0.638  18.584  1.5653 -1.0429 -0.8802
 2303TIP3    H231105   3.920   0.499  18.532  0.1271 -2.0238  0.8334
 2304TIP3   OH231106   1.218   3.036  20.545  0.0132  0.5510 -0.0827
 2304TIP3    H131107   1.191   3.033  20.637  0.4335 -1.7488  0.0135
 2304TIP3    H231108   1.203   3.127  20.519 -0.6149  1.1298  2.0977
 2305TIP3   OH231109   2.447   0.878  19.546 -0.0649 -0.0196  0.1868
 2305TIP3    H131110   2.486   0.801  19.588 -0.3248  0.2505  0.9181
 2305TIP3    H231111   2.366   0.845  19.507 -0.0832 -0.1549  0.3388
 2306TIP3   OH231112   1.566   6.328  19.780 -0.0678  0.4581  0.3650
 2306TIP3    H131113   1.584   6.270  19.706  0.0657 -0.8839  1.4080
 2306TIP3    H231114   1.485   6.374  19.755  0.2204  0.3642 -0.7928
 2307TIP3   OH231115   5.626   6.184  19.518  0.7235  0.2350  0.0539
 2307TIP3    H131116   5.547   6.133  19.500  0.3004  0.6543  0.7021
 2307TIP3    H231117   5.613   6.267  19.471  1.0186  0.0934 -0.2808
 2308TIP3   OH231118   0.148   5.463  19.650  0.0923 -0.0061  0.3351
 2308TIP3    H131119   0.062   5.493  19.678  0.3377  0.9189  0.1097
 2308TIP3    H231120   0.191   5.541  19.616  1.3348 -0.2908  1.2074
 2309TIP3   OH231121   4.865   3.924  19.564  0.1055  0.7429 -0.2642
 2309TIP3    H131122   4.882   3.842  19.517  0.9363 -0.1261  1.4861
 2309TIP3    H231123   4.783   3.908  19.611 -0.2615  1.2935 -0.7058
 2310TIP3   OH231124   0.379   0.678  18.730  0.4440  0.2277  0.2600
 2310TIP3    H131125   0.290   0.644  18.740 -1.2911  3.5499 -2.0143
 2310TIP3    H231126   0.424   0.612  18.676 -1.9157  0.1280 -1.7896
 2311TIP3   OH231127   1.128   1.912  18.556 -0.0061  0.1433 -0.5622
 2311TIP3    H131128   1.199   1.852  18.578  1.0026  1.0256 -1.3287
 2311TIP3    H231129   1.072   1.913  18.634  1.7960  0.8214  0.7873
 2312TIP3   OH231130   2.025   1.950  17.692  0.4188 -0.2932  0.3921
 2312TIP3    H131131   2.033   1.900  17.610  0.7218  0.7544 -0.2497
 2312TIP3    H231132   1.936   1.984  17.691  0.1938 -0.8757  0.8542
 2313TIP3   OH231133   5.386   0.175  20.325 -0.5032 -0.0847 -0.3404
 2313TIP3    H131134   5.444   0.113  20.282  1.2121  0.5012  1.0256
 2313TIP3    H231135   5.373   0.140  20.413 -0.3334  0.9553  0.1183
 2314TIP3   OH231136   3.981   4.692  19.631  0.6079 -0.0826  0.7415
 2314TIP3    H131137   4.009   4.766  19.576  0.2003  0.0780  0.7437
 2314TIP3    H231138   4.008   4.614  19.582 -1.2764  0.0260 -0.5453
 2315TIP3   OH231139   0.626   1.914  17.875  0.1791 -0.2341 -0.0822
 2315TIP3    H131140   0.653   2.004  17.855  1.5207 -0.3669  0.9768
 2315TIP3    H231141   0.590   1.919  17.963 -0.7127 -0.5723 -0.4195
 2316TIP3   OH231142   4.645   4.543  18.923 -0.4189  0.6004  0.4877
 2316TIP3    H131143   4.696   4.554  19.004 -0.0071  0.1612  0.2884
 2316TIP3    H231144   4.709   4.515  18.858 -0.7730  0.8387  0.0316
 2317TIP3   OH231145   3.732   4.719  21.057  0.2772 -0.2561  0.9902
 2317TIP3    H131146   3.754   4.627  21.067  0.7108 -0.7416 -2.8497
 2317TIP3    H231147   3.814   4.761  21.033 -0.3427  0.6927  0.4776
 2318TIP3   OH231148   5.086   2.157  18.550  0.5541 -0.0189 -0.3984
 2318TIP3    H131149   5.150   2.168  18.620  1.3214 -1.6748 -0.7928
 2318TIP3    H231150   5.006   2.128  18.594 -0.1285  2.4097  0.1403
 2319TIP3   OH231151   5.617   3.144  18.736 -0.5101 -0.4086 -0.4764
 2319TIP3    H131152   5.613   3.127  18.830  0.8503 -1.2342 -0.5397
 2319TIP3    H231153   5.528   3.172  18.713 -1.2776 -1.6622  0.7859
 2320TIP3   OH231154   0.875   0.715  17.915 -0.1257 -0.4554  0.2915
 2320TIP3    H131155   0.922   0.774  17.857 -0.4506 -1.6529 -1.2465
 2320TIP3    H231156   0.794   0.761  17.936 -0.5137 -0.4674 -1.1378
 2321TIP3   OH231157   2.684   2.928  18.151  0.7221  0.3721 -1.0483
 2321TIP3    H131158   2.648   2.949  18.065  0.5960 -1.2085 -1.4211
 2321TIP3    H231159   2.651   2.840  18.170  1.1237  0.5067  0.4112
 2322TIP3   OH231160   0.253   3.366  19.949  0.0694  0.4730  0.1383
 2322TIP3    H131161   0.278   3.458  19.956  0.4543  0.7199 -3.0274
 2322TIP3    H231162   0.298   3.323  20.021  1.8878  2.3820  0.2230
 2323TIP3   OH231163   5.848   6.386  19.826  0.2243 -0.1053 -0.5878
 2323TIP3    H131164   5.762   6.346  19.837 -1.0177  2.4824  0.0585
 2323TIP3    H231165   5.847   6.460  19.888  2.5867  0.4891 -1.1804
 2324TIP3   OH231166   0.242   4.748  18.076  0.8681  0.0396  0.2095
 2324TIP3    H131167   0.308   4.791  18.023  1.6966 -0.5476  0.7317
 2324TIP3    H231168   0.215   4.672  18.024  0.0248  0.7107 -0.3443
 2325TIP3   OH231169   4.919   1.833  17.000 -0.1781  0.0314 -0.2250
 2325TIP3    H131170   4.888   1.893  17.067  2.5050  0.8449  0.3834
 2325TIP3    H231171   4.858   1.759  17.004 -0.8828  0.6629  2.1603
 2326TIP3   OH231172   3.649   0.993  19.111 -0.5237 -0.3416 -0.5362
 2326TIP3    H131173   3.637   0.926  19.044 -0.9713 -2.8236  1.8443
 2326TIP3    H231174   3.562   1.007  19.147 -0.0738 -0.2994  0.5921
 2327TIP3   OH231175   3.647   0.249  20.075  0.5732 -0.0943 -0.2968
 2327TIP3    H131176   3.553   0.241  20.056  0.1478  0.7691  1.3200
 2327TIP3    H231177   3.688   0.183  20.019 -1.2440 -2.4279  0.9936
 2328TIP3   OH231178   2.399   0.509  20.268  0.4490  0.4897  0.1255
 2328TIP3    H131179   2.476   0.492  20.322  0.4480 -0.3564 -0.1305
 2328TIP3    H231180   2.434   0.531  20.182  0.3964 -1.7364 -0.5103
 2329TIP3   OH231181   6.068   4.659   9.470 -0.3955  0.6424  0.3636
 2329TIP3    H131182   5.981   4.700   9.476 -1.7569 -1.9140 -0.3113
 2329TIP3    H231183   6.087   4.630   9.560  0.0432  1.6876  0.6185
 2330TIP3   OH231184   4.069   5.368  20.095 -0.2914  0.3569 -0.1949
 2330TIP3    H131185   4.020   5.447  20.076  1.3136  1.7247  0.9877
 2330TIP3    H231186   4.050   5.349  20.187 -0.6310 -0.6421 -0.4531
 2331TIP3   OH231187   6.435   1.015  19.846  0.5520 -0.1234 -0.3787
 2331TIP3    H131188   6.398   1.001  19.933 -1.0869  2.0284 -0.6472
 2331TIP3    H231189   6.461   1.107  19.845  0.2466 -0.0170 -2.2465
 2332TIP3   OH231190   0.826   3.238  18.770 -0.4232  0.3808 -0.2956
 2332TIP3    H131191   0.772   3.285  18.833  0.5320  0.5417  0.4349
 2332TIP3    H231192   0.778   3.157  18.752 -0.8883  0.5083  0.3485
 2333TIP3   OH231193   5.662   0.943  19.859 -0.1046 -0.2792  0.2086
 2333TIP3    H131194   5.621   0.904  19.937 -0.8964  0.8342  0.3888
 2333TIP3    H231195   5.662   0.873  19.794  0.7505 -1.2950  1.2670
 2334TIP3   OH231196   5.156   0.029  19.437  0.3209 -0.0575  0.4326
 2334TIP3    H131197   5.134   0.117  19.407  2.1131  0.0486 -0.6877
 2334TIP3    H231198   5.154   0.034  19.533  1.0308  1.3764  0.3871
 2335TIP3   OH231199   1.378   5.486  17.554 -0.8728 -0.2596 -0.9714
 2335TIP3    H131200   1.304   5.494  17.493 -1.6259  0.1187 -0.0301
 2335TIP3    H231201   1.342   5.440  17.630 -0.2013  0.1464 -0.3950
 2336TIP3   OH231202   2.969   3.172  19.249  0.2661  0.0300  0.6033
 2336TIP3    H131203   2.909   3.237  19.285  0.0766 -0.1050  0.5287
 2336TIP3    H231204   2.915   3.096  19.231  0.2431  0.3060 -0.5340
 2337TIP3   OH231205   4.450   5.498  21.005  0.3034  0.0860 -0.9929
 2337TIP3    H131206   4.456   5.579  21.056  0.5302 -0.7178  0.3229
 2337TIP3    H231207   4.457   5.526  20.914  0.8084  1.4932 -0.5509
 2338TIP3   OH231208   1.807   0.092  18.180  0.4284 -0.1306  0.6970
 2338TIP3    H131209   1.902   0.088  18.193  0.2370  0.1142  2.3255
 2338TIP3    H231210   1.785   0.010  18.135  1.5591  0.3650 -0.8135
 2339TIP3   OH231211   3.280   3.960  20.684 -0.4182  0.4551  0.7912
 2339TIP3    H131212   3.307   4.052  20.692 -1.5967  0.8112  0.8030
 2339TIP3    H231213   3.247   3.953  20.595 -0.3821  0.0481  0.8110
 2340TIP3   OH231214   3.886   0.640  19.496  0.2946  0.3029  0.1986
 2340TIP3    H131215   3.953   0.584  19.456  0.0994  0.8371 -0.9383
 2340TIP3    H231216   3.917   0.729  19.479 -0.6718  0.5590 -0.3097
 2341TIP3   OH231217   3.872   3.356  18.570  0.4423 -0.0915 -0.1882
 2341TIP3    H131218   3.916   3.367  18.654 -0.0140 -1.6467  0.2787
 2341TIP3    H231219   3.888   3.438  18.524  0.7395  0.7739  1.3909
 2342TIP3   OH231220   5.900   2.389  21.039  0.3301  0.0095 -0.1559
 2342TIP3    H131221   5.866   2.470  21.077  0.8369 -0.0641  0.4636
 2342TIP3    H231222   5.972   2.363  21.097  1.6150  0.2918 -1.5642
 2343TIP3   OH231223   4.805   0.882  20.241  0.6624 -0.5562 -0.4607
 2343TIP3    H131224   4.804   0.834  20.158  1.8318 -1.2597 -0.0964
 2343TIP3    H231225   4.893   0.921  20.244  1.3736 -2.1328  1.2900
 2344TIP3   OH231226   6.047   0.125  19.034 -0.0352 -0.0625 -0.4846
 2344TIP3    H131227   6.107   0.191  19.070  1.3592 -1.9942  0.9486
 2344TIP3    H231228   5.969   0.132  19.089  0.4087 -0.1105  0.1622
 2345TIP3   OH231229   3.306   3.121  19.924 -0.2640 -0.0147 -0.2069
 2345TIP3    H131230   3.341   3.077  19.846 -1.8764  0.3242 -1.1757
 2345TIP3    H231231   3.211   3.119  19.912 -0.7351 -1.6793  2.7124
 2346TIP3   OH231232   4.547   4.340  19.970 -0.0069  0.0185 -0.0343
 2346TIP3    H131233   4.477   4.400  19.941  0.3647 -0.4195 -1.9848
 2346TIP3    H231234   4.628   4.385  19.947  0.3826  0.2189  1.6017
 2347TIP3   OH231235   0.656   1.811  19.737 -0.3155  0.2723 -0.2866
 2347TIP3    H131236   0.638   1.810  19.831 -1.5893  1.0594 -0.4932
 2347TIP3    H231237   0.620   1.729  19.705 -1.2078  0.6424 -0.2813
 2348TIP3   OH231238   2.840   3.128  17.381  0.3290 -0.1966 -0.2423
 2348TIP3    H131239   2.765   3.170  17.424  0.0690 -1.0017  0.0993
 2348TIP3    H231240   2.881   3.199  17.332 -0.3924  0.3580 -0.0733
 2349TIP3   OH231241   1.006   5.532  20.775 -0.4362 -0.0751 -0.4456
 2349TIP3    H131242   1.026   5.583  20.697 -0.7815  2.8150  1.1917
 2349TIP3    H231243   1.046   5.581  20.847 -2.6491 -0.9070  1.5150
 2350TIP3   OH231244   3.582   2.383  18.108 -0.1183 -0.1960 -0.1236
 2350TIP3    H131245   3.640   2.309  18.127  0.0637 -0.2876 -1.0224
 2350TIP3    H231246   3.494   2.346  18.111 -0.2614  0.1675  2.3859
 2351TIP3   OH231247   4.248   3.447  17.874  0.2774 -0.5830 -0.5139
 2351TIP3    H131248   4.326   3.500  17.855  1.7279 -2.6817 -0.8075
 2351TIP3    H231249   4.205   3.438  17.789 -0.8171  1.2668 -0.2109
 2352TIP3   OH231250   5.860   5.568  18.987  0.8918 -0.6191  0.1188
 2352TIP3    H131251   5.804   5.522  19.049  0.8783  0.2894  0.7946
 2352TIP3    H231252   5.887   5.500  18.925  1.0717 -1.6008  1.2278
 2353TIP3   OH231253   6.147   5.343  19.647 -0.4593  0.2204  0.0512
 2353TIP3    H131254   6.129   5.435  19.628  0.2884  0.0829 -1.5497
 2353TIP3    H231255   6.232   5.327  19.606 -0.4666 -1.1289  0.5192
 2354TIP3   OH231256   4.420   3.235  21.097 -0.4124 -0.2170 -0.0131
 2354TIP3    H131257   4.506   3.272  21.076 -0.0645 -1.8385 -1.6851
 2354TIP3    H231258   4.431   3.141  21.084 -2.6447 -0.4016 -0.9335
 2355TIP3   OH231259   6.040   4.600  19.464 -0.7614 -0.3149 -0.5301
 2355TIP3    H131260   6.109   4.536  19.481 -1.7149 -1.1325  0.3567
 2355TIP3    H231261   6.042   4.611  19.369  1.6422  0.9117 -0.4070
 2356TIP3   OH231262   3.249   2.342  18.915 -0.1216 -0.0333  0.1426
 2356TIP3    H131263   3.299   2.326  18.835  0.9383  0.5424  0.6819
 2356TIP3    H231264   3.247   2.257  18.959  0.7995  0.0427  0.3463
 2357TIP3   OH231265   0.191   4.058  20.574 -0.0774 -0.1181 -0.1792
 2357TIP3    H131266   0.274   4.037  20.533 -0.4716 -1.1505 -0.4640
 2357TIP3    H231267   0.144   3.975  20.578 -1.0639  0.4373  0.0446
 2358TIP3   OH231268   1.896   0.187  18.485  0.3719 -0.0703 -0.4049
 2358TIP3    H131269   1.845   0.236  18.549  0.7444 -0.1420 -0.0475
 2358TIP3    H231270   1.832   0.141  18.432  0.0420  0.3373 -0.3621
 2359TIP3   OH231271   6.489   3.550  18.871 -0.0838 -0.2695 -0.2873
 2359TIP3    H131272   6.569   3.571  18.920  0.3910 -1.3990 -0.5611
 2359TIP3    H231273   6.454   3.636  18.845  0.3390  0.2961  0.9299
 2360TIP3   OH231274   0.419   6.408  20.882  0.6713  0.4250 -0.6281
 2360TIP3    H131275   0.407   6.456  20.800 -1.4998  0.1650 -0.5126
 2360TIP3    H231276   0.332   6.405  20.922  1.9912  2.6501  2.9217
 2361TIP3   OH231277   5.830   0.102  19.783  0.0042  0.3936  0.2549
 2361TIP3    H131278   5.844   0.033  19.848  0.3859  1.0371  0.8595
 2361TIP3    H231279   5.798   0.055  19.705 -1.9804 -0.2463  1.3721
 2362TIP3   OH231280   1.302   2.631  17.227  0.2406  0.0606 -0.1875
 2362TIP3    H131281   1.385   2.593  17.256 -0.4686  0.4614  2.6349
 2362TIP3    H231282   1.327   2.692  17.157  2.2353 -0.3351  0.1128
 2363TIP3   OH231283   3.230   5.706  18.550  0.1038  0.1529  0.0101
 2363TIP3    H131284   3.166   5.774  18.567 -2.4839 -2.1780  0.2466
 2363TIP3    H231285   3.305   5.729  18.606 -1.5899  1.5268  1.8433
 2364TIP3   OH231286   2.167   1.213  18.056 -0.0454 -0.1535 -0.5090
 2364TIP3    H131287   2.211   1.289  18.020  2.1148 -0.5567  1.0564
 2364TIP3    H231288   2.186   1.142  17.995  0.9180 -0.1600 -0.2189
 2365TIP3   OH231289   0.240   0.726  19.583  0.3782 -0.3634 -0.1876
 2365TIP3    H131290   0.205   0.648  19.625  1.6957 -0.3032  1.0863
 2365TIP3    H231291   0.330   0.703  19.560 -0.1302 -0.2393 -2.6429
 2366TIP3   OH231292   2.482   4.217  18.681 -0.1567 -0.0186  0.0526
 2366TIP3    H131293   2.395   4.191  18.711  0.0867 -2.2538 -0.9422
 2366TIP3    H231294   2.528   4.134  18.668  1.2042  0.9997 -2.1262
 2367TIP3   OH231295   5.658   2.560  19.200  0.0254  0.1915  0.0148
 2367TIP3    H131296   5.572   2.519  19.201  0.2946 -0.5095  2.5880
 2367TIP3    H231297   5.640   2.652  19.181 -1.2335 -0.0601 -0.1009
 2368TIP3   OH231298   6.102   4.332  20.830  0.2774  0.3921  0.2123
 2368TIP3    H131299   6.012   4.366  20.830  0.6091  1.5005 -2.5174
 2368TIP3    H231300   6.092   4.238  20.843 -1.1585  0.6578  1.2689
 2369TIP3   OH231301   2.030   1.825  19.966 -0.1300 -0.3381 -0.2232
 2369TIP3    H131302   2.100   1.854  19.908 -0.0022  0.9120  0.5263
 2369TIP3    H231303   2.030   1.729  19.958  0.4092 -0.2402 -1.6516
 2370TIP3   OH231304   5.193   4.068  19.080 -0.2464  0.1836 -0.1188
 2370TIP3    H131305   5.097   4.070  19.084 -0.2396  1.9014 -0.3591
 2370TIP3    H231306   5.222   4.117  19.156  0.5718 -3.0886  1.8742
 2371TIP3   OH231307   1.604   4.039  18.668 -0.2418  0.1987  0.2692
 2371TIP3    H131308   1.649   4.120  18.692  0.2337 -0.1673  0.6235
 2371TIP3    H231309   1.512   4.057  18.687 -0.0762  0.4816  0.8311
 2372TIP3   OH231310   4.250   5.728  19.030  0.0227 -0.5002  0.1408
 2372TIP3    H131311   4.163   5.687  19.026  0.5857 -1.8566  1.2333
 2372TIP3    H231312   4.240   5.797  19.096 -0.6684  0.5794 -1.0280
 2373TIP3   OH231313   0.079   0.990  19.706  0.6675  0.1319  0.6197
 2373TIP3    H131314   0.005   0.929  19.702 -1.3787  2.3035  2.3590
 2373TIP3    H231315   0.126   0.976  19.624 -0.6999 -2.4919  0.1772
 2374TIP3   OH231316   1.304   4.591  19.825 -0.1175 -0.0753  0.4749
 2374TIP3    H131317   1.229   4.540  19.795 -1.6200  2.4371 -0.3525
 2374TIP3    H231318   1.266   4.663  19.874  1.7733  1.0704  0.3653
 2375TIP3   OH231319   0.946   1.469  17.729  0.0120 -0.3199  0.2562
 2375TIP3    H131320   0.906   1.501  17.648  0.2297 -2.1020 -0.5807
 2375TIP3    H231321   0.878   1.482  17.795 -1.1720 -1.2517 -0.7302
 2376TIP3   OH231322   1.977   0.712  18.531  0.1858 -0.5418 -0.0192
 2376TIP3    H131323   2.030   0.790  18.544  0.1925 -0.5861  0.2097
 2376TIP3    H231324   2.018   0.645  18.585 -0.2271 -0.5202  0.3279
 2377TIP3   OH231325   3.133   5.598  21.253 -0.0224  0.2853  0.0549
 2377TIP3    H131326   3.079   5.612  21.176  0.9087  1.5272 -0.4115
 2377TIP3    H231327   3.071   5.587  21.325 -0.8929  1.1538 -0.5429
 2378TIP3   OH231328   5.550   3.025  20.177 -0.3021 -0.2041 -0.4610
 2378TIP3    H131329   5.585   2.940  20.150  2.1215  0.4487  0.3849
 2378TIP3    H231330   5.599   3.088  20.126 -0.1291  0.7864  0.8786
 2379TIP3   OH231331   3.113   0.340  18.456 -0.1712 -0.0189  0.3317
 2379TIP3    H131332   3.165   0.282  18.401 -1.2754 -1.0770  0.3495
 2379TIP3    H231333   3.066   0.396  18.395 -0.6020 -0.4875  0.2305
 2380TIP3   OH231334   4.226   4.094  19.242  0.5231  0.0135 -0.3561
 2380TIP3    H131335   4.157   4.079  19.177 -0.0172 -0.6379  0.3516
 2380TIP3    H231336   4.265   4.177  19.216 -1.3126  1.0039 -0.0899
 2381TIP3   OH231337   0.700   4.548  20.579 -0.8312  0.9871 -0.7161
 2381TIP3    H131338   0.656   4.481  20.631  0.0348  0.1939 -0.9844
 2381TIP3    H231339   0.653   4.549  20.496 -0.0276 -0.2440 -1.2047
 2382TIP3   OH231340   4.263   5.399  20.687 -0.4701  0.5019  0.0540
 2382TIP3    H131341   4.346   5.445  20.697  0.5518 -0.9493 -1.2724
 2382TIP3    H231342   4.248   5.359  20.773  0.5858  0.1916  0.1104
 2383TIP3   OH231343   3.890   5.619  19.022 -0.3673  0.0259  0.0779
 2383TIP3    H131344   3.837   5.546  19.053  0.8229 -0.6192  0.6553
 2383TIP3    H231345   3.906   5.672  19.100  0.1488  0.0049 -0.0099
 2384TIP3   OH231346   2.484   4.834  20.024 -0.7411  0.1085 -0.3770
 2384TIP3    H131347   2.526   4.753  20.051 -1.1618 -0.2789 -0.8575
 2384TIP3    H231348   2.539   4.903  20.061  0.1544 -0.3846 -0.7560
 2385TIP3   OH231349   2.333   5.738  17.862 -0.0067  0.4699 -0.6086
 2385TIP3    H131350   2.347   5.674  17.792  0.4755 -0.2573  0.1483
 2385TIP3    H231351   2.413   5.736  17.914 -0.3314  1.0649 -0.0684
 2386TIP3   OH231352   2.413   4.642  18.152  0.4845  0.5258  0.0175
 2386TIP3    H131353   2.350   4.663  18.084  1.0341 -1.4030 -1.1549
 2386TIP3    H231354   2.366   4.657  18.234 -1.0503  0.4361 -0.8144
 2387TIP3   OH231355   5.596   1.800  20.916  0.2612  0.0530  0.0657
 2387TIP3    H131356   5.690   1.784  20.926  0.1949 -1.1760 -0.9826
 2387TIP3    H231357   5.579   1.784  20.823 -1.2034 -0.9801  0.4772
 2388TIP3   OH231358   1.453   0.886  21.331  0.5451  0.0152  0.1061
 2388TIP3    H131359   1.538   0.925  21.310  0.0674  0.7989 -0.4333
 2388TIP3    H231360   1.472   0.793  21.344  1.3151 -0.0383 -1.1798
 2389TIP3   OH231361   2.719   2.168  17.763 -0.8265  0.3458 -0.1903
 2389TIP3    H131362   2.709   2.163  17.858 -1.1838 -0.9111 -0.2860
 2389TIP3    H231363   2.787   2.103  17.742 -0.4730  0.8845 -0.7601
 2390TIP3   OH231364   5.229   5.952  19.969 -0.0136  0.0945  0.3051
 2390TIP3    H131365   5.322   5.976  19.972  0.6535 -2.2404  0.9790
 2390TIP3    H231366   5.229   5.865  19.928 -1.5274 -1.3347  3.0387
 2391TIP3   OH231367   2.681   5.015  20.128  0.0901  0.4627 -0.0543
 2391TIP3    H131368   2.735   5.056  20.061 -0.2764  0.7575 -0.1683
 2391TIP3    H231369   2.697   5.067  20.207  1.0047 -0.2597  0.2534
 2392TIP3   OH231370   5.189   2.460  20.951 -0.0911 -0.0510 -0.4956
 2392TIP3    H131371   5.263   2.518  20.971 -0.4253  0.4802 -0.7599
 2392TIP3    H231372   5.182   2.463  20.856 -0.1049 -0.5486 -0.5136
 2393TIP3   OH231373   0.243   5.996  20.004 -0.3003  0.4146  0.2080
 2393TIP3    H131374   0.263   5.937  20.077  0.7586  0.2846 -0.1719
 2393TIP3    H231375   0.258   5.943  19.926  2.2631  1.6120 -0.1958
 2394TIP3   OH231376   4.978   5.504  17.347 -0.2049 -0.9382 -0.1084
 2394TIP3    H131377   4.942   5.564  17.282 -0.3813 -0.8739  0.0494
 2394TIP3    H231378   5.003   5.427  17.296 -0.2174 -0.8352 -0.2734
 2395TIP3   OH231379   5.923   5.944  17.892 -0.4499  0.2449  0.8574
 2395TIP3    H131380   6.006   5.988  17.870  0.2056 -0.2876  2.1423
 2395TIP3    H231381   5.856   6.011  17.878  0.1557  0.6098 -0.4430
 2396TIP3   OH231382   3.796   1.209  20.558  0.4170  0.5002  0.4428
 2396TIP3    H131383   3.847   1.279  20.518  2.3330 -1.6277 -1.0930
 2396TIP3    H231384   3.718   1.201  20.503  2.0476 -1.0291 -1.8154
 2397TIP3   OH231385   0.650   6.462  20.605  0.1838  0.1323  0.0696
 2397TIP3    H131386   0.741   6.441  20.584 -0.4407  0.9337 -4.3602
 2397TIP3    H231387   0.645   6.557  20.601 -1.0411  0.0504 -0.9110
 2398TIP3   OH231388   0.425   5.070  20.823  0.5286 -0.5439  0.0206
 2398TIP3    H131389   0.340   5.091  20.862  1.3633  1.4226  0.9196
 2398TIP3    H231390   0.480   5.043  20.897  1.1139 -0.3465 -0.3330
 2399TIP3   OH231391   5.251   5.510  21.113  0.1652 -0.6355 -0.1878
 2399TIP3    H131392   5.162   5.511  21.078 -0.6335  2.3953  1.5835
 2399TIP3    H231393   5.290   5.592  21.083  1.2781 -0.4758  1.5450
 2400TIP3   OH231394   6.348   6.349  20.119  0.2961  0.0047  0.3182
 2400TIP3    H131395   6.296   6.288  20.067  0.2378  0.6873 -0.4536
 2400TIP3    H231396   6.439   6.330  20.094  0.1948  1.5879 -1.5443
 2401TIP3   OH231397   1.399   0.842  19.047  0.0582  0.0160 -0.2983
 2401TIP3    H131398   1.402   0.846  18.951 -0.7660 -0.7042 -0.3716
 2401TIP3    H231399   1.490   0.849  19.075  0.1575  2.6057 -1.0036
 2402TIP3   OH231400   1.443   0.538  19.047  0.0603 -0.0784  0.0517
 2402TIP3    H131401   1.402   0.623  19.031  1.6028  0.4230 -1.5537
 2402TIP3    H231402   1.449   0.532  19.143 -1.9671  0.6437  0.2774
 2403TIP3   OH231403   6.513   4.860  18.108 -0.0193 -0.5057 -0.6873
 2403TIP3    H131404   6.592   4.830  18.154  0.1919  0.4441 -0.4192
 2403TIP3    H231405   6.545   4.925  18.046 -0.5204 -0.5653 -1.0065
 2404TIP3   OH231406   5.635   3.080  18.995  0.4394  0.5506  0.2714
 2404TIP3    H131407   5.717   3.033  18.979  0.9656  1.7955 -0.8282
 2404TIP3    H231408   5.662   3.167  19.022 -0.5279  0.3240  2.1611
 2405TIP3   OH231409   5.687   2.629  18.877 -0.2009  0.4912 -0.8859
 2405TIP3    H131410   5.665   2.677  18.797 -0.5912  1.4174 -0.2488
 2405TIP3    H231411   5.654   2.685  18.948  3.8173  1.8758  0.1952
 2406TIP3   OH231412   3.309   5.740  20.789  0.2797 -0.0342 -0.4350
 2406TIP3    H131413   3.356   5.775  20.864 -0.6116  1.1066 -0.3847
 2406TIP3    H231414   3.353   5.778  20.713  0.2957 -0.0586 -0.4381
 2407TIP3   OH231415   5.110   2.704  19.501  0.5738  0.3713  0.1925
 2407TIP3    H131416   5.197   2.715  19.539  0.2173  0.2200  1.0730
 2407TIP3    H231417   5.067   2.640  19.557 -0.0973  0.4209 -0.2524
 2408TIP3   OH231418   0.044   3.197  18.129  0.4219 -0.0811 -0.4478
 2408TIP3    H131419   0.087   3.141  18.064 -0.0230 -0.4036 -0.4704
 2408TIP3    H231420   0.012   3.272  18.079  0.8876  0.1289 -0.4428
 2409TIP3   OH231421   0.741   1.652  20.147  0.3028  0.2004  0.3468
 2409TIP3    H131422   0.702   1.566  20.129  0.0086  0.6285 -1.1720
 2409TIP3    H231423   0.731   1.701  20.066  0.9802  1.4959  1.0088
 2410TIP3   OH231424   4.596   4.212  21.252  0.0082 -0.0881 -0.2348
 2410TIP3    H131425   4.662   4.263  21.299  1.7245  0.1177 -2.6653
 2410TIP3    H231426   4.618   4.121  21.271  0.5468 -0.0050 -0.4288
 2411TIP3   OH231427   0.221   5.571  17.324 -0.0350  0.4949 -0.3469
 2411TIP3    H131428   0.274   5.492  17.341  0.7274  0.8784 -0.8653
 2411TIP3    H231429   0.285   5.639  17.307 -0.6946  0.8155 -1.7119
 2412TIP3   OH231430   6.655   3.016  19.786 -0.2311  0.3142 -0.8286
 2412TIP3    H131431   6.687   2.926  19.776  1.8214  1.0598 -1.7598
 2412TIP3    H231432   6.639   3.026  19.880  1.2060 -0.5392 -0.4551
 2413TIP3   OH231433   0.104   1.483  18.710  0.0188  0.1492  0.5726
 2413TIP3    H131434   0.011   1.501  18.725 -0.1293 -1.1955  1.3835
 2413TIP3    H231435   0.109   1.458  18.618 -0.3860  0.3843  0.4828
 2414TIP3   OH231436   1.991   1.936  19.424  0.4901 -0.3933 -0.3982
 2414TIP3    H131437   2.044   1.857  19.415  1.8805  0.4997 -0.4118
 2414TIP3    H231438   1.917   1.910  19.478  1.9348 -1.2724  1.2730
 2415TIP3   OH231439   0.122   4.836  19.063 -0.3624  0.2778 -0.6199
 2415TIP3    H131440   0.080   4.834  19.149  1.5565 -0.5429  0.3512
 2415TIP3    H231441   0.063   4.786  19.007 -0.9790 -0.3479  0.5429
 2416TIP3   OH231442   0.326   5.050  17.913  0.2393  0.1118  0.4874
 2416TIP3    H131443   0.417   5.056  17.942  0.0354 -0.3469  1.2460
 2416TIP3    H231444   0.293   5.139  17.920  0.4339  0.1545  0.8724
 2417TIP3   OH231445   0.300   2.252  18.648 -0.0494  0.3277  0.0719
 2417TIP3    H131446   0.316   2.322  18.711  1.9107 -0.1983  0.2192
 2417TIP3    H231447   0.356   2.274  18.573  1.1735 -1.3979  0.4186
 2418TIP3   OH231448   3.174   3.715  20.097  0.0040 -0.2748 -0.6275
 2418TIP3    H131449   3.235   3.705  20.170 -0.1544  1.8891 -0.1273
 2418TIP3    H231450   3.228   3.711  20.019  0.5746  0.0635 -0.2551
 2419TIP3   OH231451   4.120   3.956  19.788 -0.0206 -0.5252 -0.2487
 2419TIP3    H131452   4.176   3.997  19.721  0.3590  0.0861  0.4177
 2419TIP3    H231453   4.076   4.030  19.831  1.9096 -0.5864  2.0806
 2420TIP3   OH231454   5.523   4.009  19.815 -0.0056  0.1168  0.0656
 2420TIP3    H131455   5.446   3.957  19.794 -0.2223  0.9657 -1.3657
 2420TIP3    H231456   5.495   4.067  19.887 -1.0468  1.1191 -1.1037
 2421TIP3   OH231457   0.627   3.357  19.643 -0.0201  0.0736 -0.0408
 2421TIP3    H131458   0.695   3.379  19.580  1.8285 -1.6763  1.2236
 2421TIP3    H231459   0.546   3.360  19.592  1.0464  1.5420 -1.7645
 2422TIP3   OH231460   0.641   0.943  20.280  0.0675 -0.2741 -0.3305
 2422TIP3    H131461   0.557   0.989  20.285 -0.5191 -1.3702  0.1722
 2422TIP3    H231462   0.671   0.939  20.371 -0.2561 -1.5320 -0.2678
 2423TIP3   OH231463   4.873   4.731  19.528  0.2828 -0.6146 -0.1086
 2423TIP3    H131464   4.813   4.777  19.469  1.4914  1.8172  0.4507
 2423TIP3    H231465   4.818   4.698  19.598 -0.4489  1.6754  0.4650
 2424TIP3   OH231466   2.679   5.800  21.136  0.5024  0.1053  0.1859
 2424TIP3    H131467   2.669   5.891  21.110  2.1769  0.0760 -0.7374
 2424TIP3    H231468   2.591   5.764  21.135  0.1166  0.8834 -2.7001
 2425TIP3   OH231469   4.185   3.158  19.561  0.0894  0.4991 -0.2230
 2425TIP3    H131470   4.249   3.170  19.632 -0.4999  0.9990  0.2296
 2425TIP3    H231471   4.238   3.161  19.481  0.9519 -1.4470  0.2272
 2426TIP3   OH231472   4.146   2.286  17.641  0.0969 -0.4298 -0.9583
 2426TIP3    H131473   4.190   2.369  17.627  0.4404 -0.3052  0.6668
 2426TIP3    H231474   4.109   2.264  17.556  1.6046  0.4373 -1.8864
 2427TIP3   OH231475   0.273   5.006  21.127  0.2539 -0.1947  0.0507
 2427TIP3    H131476   0.237   5.048  21.049 -2.6839 -1.8120  0.3896
 2427TIP3    H231477   0.290   4.916  21.099 -2.8429 -1.4174  1.6282
 2428TIP3   OH231478   5.295   2.745  20.572 -0.4197 -0.6871 -0.3058
 2428TIP3    H131479   5.269   2.821  20.624  1.1536 -0.3017 -0.0529
 2428TIP3    H231480   5.249   2.672  20.612  1.8163 -0.6488  2.6254
 2429TIP3   OH231481   1.828   0.397  21.488 -0.3307  0.0124 -0.2221
 2429TIP3    H131482   1.881   0.454  21.432 -1.2201  0.0171 -1.1045
 2429TIP3    H231483   1.796   0.455  21.557 -1.7040  0.7788 -1.4348
 2430TIP3   OH231484   1.777   3.955  18.412 -0.0759  0.0896  0.5392
 2430TIP3    H131485   1.810   4.040  18.442  0.8369 -0.3269  0.7368
 2430TIP3    H231486   1.855   3.906  18.387 -0.6632 -0.3357 -0.5367
 2431TIP3   OH231487   6.658   0.720  19.684 -0.1061 -0.0486  0.3906
 2431TIP3    H131488   6.644   0.627  19.707 -1.0573  0.4389  1.9976
 2431TIP3    H231489   6.731   0.719  19.623  1.0188 -1.7426  1.6718
 2432TIP3   OH231490   4.656   0.037  19.617 -0.1076 -0.5437  0.1875
 2432TIP3    H131491   4.617  -0.036  19.665 -1.2319 -0.2108 -0.1847
 2432TIP3    H231492   4.702   0.088  19.684  0.1058 -1.2129  0.5575
 2433TIP3   OH231493   5.771   1.372  19.826 -0.5492 -0.3646  0.7577
 2433TIP3    H131494   5.825   1.446  19.855 -0.8257 -0.0456  0.4701
 2433TIP3    H231495   5.786   1.304  19.892 -0.3192 -0.0392  1.0440
 2434TIP3   OH231496   0.406   5.310  19.644 -0.2585 -0.2235  0.0922
 2434TIP3    H131497   0.324   5.348  19.675 -0.3048 -0.2439 -0.0059
 2434TIP3    H231498   0.402   5.320  19.549  0.2695  0.6244  0.1493
 2435TIP3   OH231499   3.137   3.767  19.744 -0.1988 -0.0097  0.1899
 2435TIP3    H131500   3.188   3.690  19.769 -0.4540 -0.4712 -0.6740
 2435TIP3    H231501   3.176   3.795  19.661 -0.7164  0.2261  0.0269
 2436TIP3   OH231502   3.297   5.146  18.681 -0.7311 -0.2875 -0.1310
 2436TIP3    H131503   3.350   5.146  18.760 -1.1386  0.1077  0.1457
 2436TIP3    H231504   3.271   5.237  18.669  0.0271 -0.1900 -1.2030
 2437TIP3   OH231505   6.415   0.944  18.759 -0.1727 -0.2524  0.2058
 2437TIP3    H131506   6.385   1.017  18.704  0.2382  1.3531  1.9878
 2437TIP3    H231507   6.435   0.985  18.843  0.7276 -2.3544  1.0720
 2438TIP3   OH231508   3.729   1.553  17.700  1.1111 -0.1921 -0.3900
 2438TIP3    H131509   3.693   1.477  17.654  1.8047 -1.4510  1.0564
 2438TIP3    H231510   3.747   1.616  17.630 -1.4510 -0.4763 -1.4252
 2439TIP3   OH231511   3.678   4.542  19.551 -0.5788  0.1598  0.0927
 2439TIP3    H131512   3.631   4.476  19.600 -1.7652  0.1351 -1.0300
 2439TIP3    H231513   3.770   4.520  19.563 -0.9379 -1.8286 -0.4177
 2440TIP3   OH231514   4.076   3.010  18.669  0.4214  0.1218 -0.6629
 2440TIP3    H131515   4.072   2.917  18.649  0.1236  0.0136 -0.0907
 2440TIP3    H231516   4.139   3.017  18.741 -0.8424  0.1577  0.4709
 2441TIP3   OH231517   5.461   6.276  20.511 -0.0494 -0.5921 -0.2956
 2441TIP3    H131518   5.469   6.214  20.584  0.4641  1.1228  1.1889
 2441TIP3    H231519   5.387   6.243  20.459  0.4028 -2.5879  0.2365
 2442TIP3   OH231520   1.663   2.739  18.116  0.3885  0.2667 -0.4756
 2442TIP3    H131521   1.757   2.733  18.128  0.2448 -0.2277  0.5782
 2442TIP3    H231522   1.631   2.651  18.136 -0.3280  0.5307 -0.4236
 2443TIP3   OH231523   0.594   5.735  19.963 -0.4893  0.0112  0.0815
 2443TIP3    H131524   0.610   5.652  20.008 -0.0572 -0.9219 -1.6937
 2443TIP3    H231525   0.666   5.742  19.900 -1.9963  0.3883 -1.6661
 2444TIP3   OH231526   0.761   4.352  19.309  0.5367 -0.6038  0.4699
 2444TIP3    H131527   0.691   4.292  19.282  0.6764 -0.6355  0.1703
 2444TIP3    H231528   0.830   4.339  19.243  0.4109  0.1746  0.1841
 2445TIP3   OH231529   1.065   3.491  19.683 -0.2678  0.1981  0.9774
 2445TIP3    H131530   1.077   3.399  19.659  0.5706  0.3647  0.7256
 2445TIP3    H231531   1.125   3.539  19.625 -2.2345  1.1116 -0.4048
 2446TIP3   OH231532   4.875   1.037  20.596 -0.2831  0.0547  0.2914
 2446TIP3    H131533   4.835   1.081  20.521 -0.7832  0.3789  0.7394
 2446TIP3    H231534   4.953   0.994  20.560 -0.2215  0.6531 -0.3008
 2447TIP3   OH231535   5.763   3.291  20.214  0.8018 -0.1693  0.3168
 2447TIP3    H131536   5.853   3.260  20.211  1.0849  0.4407  1.5790
 2447TIP3    H231537   5.751   3.322  20.304 -1.3920 -2.3491  0.8851
 2448TIP3   OH231538   0.320   0.321  18.734  0.3814  0.5305 -0.4655
 2448TIP3    H131539   0.397   0.332  18.679  0.0457  2.0538 -0.6702
 2448TIP3    H231540   0.355   0.318  18.823  1.0726 -3.3406 -0.6561
 2449TIP3   OH231541   3.511   2.489  17.229 -0.4382 -0.4310 -0.3943
 2449TIP3    H131542   3.469   2.564  17.272 -2.1013 -1.1072 -0.7497
 2449TIP3    H231543   3.466   2.480  17.145  0.2601 -1.3575 -0.6976
 2450TIP3   OH231544   2.864   3.936  20.717 -0.1545  0.1750  0.6186
 2450TIP3    H131545   2.830   3.847  20.710  1.7158 -0.6337  1.1386
 2450TIP3    H231546   2.884   3.961  20.627  1.4007 -0.8413  0.6382
 2451TIP3   OH231547   6.612   1.224  19.697 -0.0315  0.0769 -0.4390
 2451TIP3    H131548   6.666   1.152  19.730 -0.6560 -1.0539 -1.7669
 2451TIP3    H231549   6.576   1.191  19.615 -0.8960  1.6658 -0.7399
 2452TIP3   OH231550   1.846   1.044  20.121  0.8275 -0.1999 -0.0891
 2452TIP3    H131551   1.928   0.995  20.124 -0.1844 -1.9876 -0.2672
 2452TIP3    H231552   1.796   1.002  20.051 -0.6599  0.1572  0.7290
 2453TIP3   OH231553   5.518   2.863  17.802 -0.2927 -0.1344  0.3132
 2453TIP3    H131554   5.522   2.941  17.747 -3.5376 -0.9106 -1.3491
 2453TIP3    H231555   5.525   2.790  17.740 -1.7237 -1.0723  1.1896
 2454TIP3   OH231556   5.104   6.326  20.697  0.2584  0.6433 -0.3322
 2454TIP3    H131557   5.180   6.337  20.754  0.6709  0.9189 -0.9229
 2454TIP3    H231558   5.029   6.342  20.754  0.4629 -2.2497  0.9373
 2455TIP3   OH231559   5.399   2.340  19.936 -0.3120  0.0098  0.0833
 2455TIP3    H131560   5.479   2.383  19.966  1.0943 -2.9852  0.9541
 2455TIP3    H231561   5.396   2.356  19.842  0.1625  1.8544  0.3450
 2456TIP3   OH231562   5.697   5.127  20.928  0.0567 -0.2247  0.3396
 2456TIP3    H131563   5.689   5.211  20.883 -0.1726 -0.7668 -0.6594
 2456TIP3    H231564   5.742   5.070  20.866  0.7983 -0.6699  1.2580
 2457TIP3   OH231565   4.466   3.427  19.528 -0.1549  0.0701  0.1189
 2457TIP3    H131566   4.513   3.497  19.483 -0.6289 -0.4553 -1.2597
 2457TIP3    H231567   4.502   3.346  19.492  0.0094 -0.4060  1.2930
 2458TIP3   OH231568   6.146   1.448  19.939  0.0717  0.0819  0.1340
 2458TIP3    H131569   6.198   1.415  19.866 -0.8913 -1.5728  0.1315
 2458TIP3    H231570   6.082   1.507  19.898 -0.1463 -0.4528 -0.3085
 2459TIP3   OH231571   4.582   2.475  20.957 -0.2490  0.2761  0.5349
 2459TIP3    H131572   4.592   2.381  20.942 -0.9984  0.4462 -1.3891
 2459TIP3    H231573   4.672   2.508  20.959 -0.0015 -0.2156 -0.9775
 2460TIP3   OH231574   3.414   0.401  20.249  0.3818  0.3782 -0.5394
 2460TIP3    H131575   3.341   0.461  20.265  1.8657  2.0393  0.3597
 2460TIP3    H231576   3.492   0.457  20.250  1.6586 -1.2423 -2.0245
 2461TIP3   OH231577   2.647   2.210  19.465  0.5131  0.1641 -0.0275
 2461TIP3    H131578   2.662   2.304  19.453  0.0986  0.0385 -1.7844
 2461TIP3    H231579   2.713   2.168  19.410  2.0600 -0.6826  2.2984
 2462TIP3   OH231580   3.347   2.318  20.456 -0.1419 -0.8199 -0.4659
 2462TIP3    H131581   3.287   2.273  20.515 -1.3686  1.6559  0.3114
 2462TIP3    H231582   3.431   2.320  20.503 -0.7443 -0.1033  0.6047
 2463TIP3   OH231583   0.009   3.875  19.249 -0.0833 -0.2858  0.8114
 2463TIP3    H131584   0.024   3.961  19.287  0.7856 -0.3286  0.5847
 2463TIP3    H231585  -0.060   3.836  19.303  1.4124 -0.5145  2.6526
 2464TIP3   OH231586   3.819   2.972  18.763  0.9378  0.2000 -0.8237
 2464TIP3    H131587   3.908   2.994  18.734  1.0353 -1.0445 -1.5490
 2464TIP3    H231588   3.821   2.877  18.776  0.3238  0.4495  1.3811
 2465TIP3   OH231589   6.344   4.991  19.518  0.4398  0.1796 -0.0679
 2465TIP3    H131590   6.304   5.048  19.583 -0.0354  0.6756 -0.7819
 2465TIP3    H231591   6.278   4.924  19.501  0.8031 -0.3024  0.4053
 2466TIP3   OH231592   3.874   2.478  18.898  0.0271 -0.0820 -0.3004
 2466TIP3    H131593   3.911   2.499  18.812  0.2147 -1.3853 -0.5626
 2466TIP3    H231594   3.891   2.384  18.909 -1.3068 -0.2554  0.5144
 2467TIP3   OH231595   1.687   5.623  19.424 -0.1915 -0.4183 -0.2088
 2467TIP3    H131596   1.676   5.611  19.330 -1.5107  1.6736 -0.3925
 2467TIP3    H231597   1.619   5.569  19.464  0.3943 -1.3376 -0.4242
 2468TIP3   OH231598   0.870   3.362  21.121 -0.1068  0.7391 -0.1082
 2468TIP3    H131599   0.928   3.412  21.063  0.4721  1.2888  0.8985
 2468TIP3    H231600   0.930   3.313  21.178 -0.6643 -1.0659 -0.9976
 2469TIP3   OH231601   0.482   6.283  19.048  0.4513 -0.2218  0.0369
 2469TIP3    H131602   0.511   6.353  18.990 -0.0866  0.6001  0.7331
 2469TIP3    H231603   0.457   6.328  19.129  0.1060 -1.2216  0.4992
 2470TIP3   OH231604   6.080   5.255  21.116  0.2009 -0.2540 -0.0904
 2470TIP3    H131605   6.032   5.173  21.110 -1.6398  0.8189 -0.7383
 2470TIP3    H231606   6.033   5.305  21.183  2.1693 -0.2331  1.3796
 2471TIP3   OH231607   0.406   3.439  18.263 -0.3103 -0.1391  0.7841
 2471TIP3    H131608   0.451   3.517  18.229  0.9124 -0.4331  1.6580
 2471TIP3    H231609   0.387   3.386  18.186 -0.0278  0.4496  0.3057
 2472TIP3   OH231610   3.109   5.357  17.342  0.1486 -0.3607 -0.3242
 2472TIP3    H131611   3.069   5.280  17.382  0.0048  1.1322  2.6670
 2472TIP3    H231612   3.199   5.330  17.322  0.1242 -1.2819  0.7489
 2473TIP3   OH231613   6.650   0.514  19.872  0.2308 -0.0146  0.4523
 2473TIP3    H131614   6.744   0.521  19.886 -0.0760  1.5619  2.1358
 2473TIP3    H231615   6.628   0.425  19.901  0.8952  0.4013  2.3782
 2474TIP3   OH231616   2.429   6.536  18.923  0.1111 -0.5274  0.1542
 2474TIP3    H131617   2.445   6.628  18.940  1.0675 -0.1994 -2.1251
 2474TIP3    H231618   2.334   6.529  18.914 -0.1770 -0.2360  2.4764
 2475TIP3   OH231619   2.386   4.195  19.450 -0.1066  0.0155  0.1869
 2475TIP3    H131620   2.438   4.178  19.371  0.2580  0.5388  0.3083
 2475TIP3    H231621   2.297   4.170  19.426 -0.2659  1.4595 -0.8545
 2476TIP3   OH231622   1.460   1.022  19.569 -0.2447  0.2052 -0.2734
 2476TIP3    H131623   1.389   1.084  19.576 -0.4770 -0.0807 -0.0540
 2476TIP3    H231624   1.447   0.962  19.643 -0.0436 -0.1182 -0.4959
 2477TIP3   OH231625   3.943   1.501  19.311  0.2747 -0.6340 -0.4300
 2477TIP3    H131626   3.942   1.478  19.218 -0.5076 -1.0006 -0.3409
 2477TIP3    H231627   3.856   1.538  19.327  0.4127 -0.5578  0.1513
 2478TIP3   OH231628   5.022   4.576  20.865 -0.3343  0.2736 -0.3957
 2478TIP3    H131629   4.985   4.526  20.793  0.1227  0.3865 -0.7137
 2478TIP3    H231630   4.974   4.659  20.863  0.9435  1.0327 -1.7789
 2479TIP3   OH231631   1.943   3.315  19.521  0.1432 -0.1014 -0.0022
 2479TIP3    H131632   2.002   3.274  19.585  0.9184 -1.1377 -1.3197
 2479TIP3    H231633   1.894   3.242  19.484 -0.6211  0.5391 -0.2802
 2480TIP3   OH231634   2.590   0.690  19.676  0.0383  0.0302 -0.8962
 2480TIP3    H131635   2.670   0.723  19.718 -0.2025 -0.7797  0.2391
 2480TIP3    H231636   2.622   0.635  19.605  0.4795  0.3043 -0.9170
 2481TIP3   OH231637   3.175   6.533  19.348 -0.0342 -0.0109  0.2548
 2481TIP3    H131638   3.192   6.598  19.416 -1.8591  0.0709  0.7065
 2481TIP3    H231639   3.197   6.577  19.266 -0.1925  0.7884  0.6343
 2482TIP3   OH231640   6.335   2.120  19.120 -0.0901 -0.7290  0.3827
 2482TIP3    H131641   6.289   2.111  19.036 -0.0319 -1.2532  0.4057
 2482TIP3    H231642   6.425   2.094  19.101  0.7875  2.3183 -0.1779
 2483TIP3   OH231643   0.284   3.779  19.287  0.3681  0.6794 -0.6571
 2483TIP3    H131644   0.307   3.855  19.339  1.6291  1.2967 -2.0455
 2483TIP3    H231645   0.189   3.787  19.273  0.3297  1.4688  0.0136
 2484TIP3   OH231646   3.763   3.545  20.123  0.2086  0.2440 -0.3473
 2484TIP3    H131647   3.799   3.633  20.135 -0.1540  0.2361  0.9887
 2484TIP3    H231648   3.834   3.487  20.152  0.4003  0.0928 -1.1037
 2485TIP3   OH231649   1.370   3.458  17.891  0.3110 -0.4186  0.0297
 2485TIP3    H131650   1.342   3.432  17.803 -0.4639 -1.6026  0.5993
 2485TIP3    H231651   1.454   3.502  17.877 -1.1001  1.9632 -1.5863
 2486TIP3   OH231652   3.674   2.548  19.975  0.3540 -0.1812 -0.1039
 2486TIP3    H131653   3.725   2.558  20.055 -1.9492  0.7263  1.3723
 2486TIP3    H231654   3.725   2.489  19.920  2.4435 -0.1065  1.6410
 2487TIP3   OH231655   1.092   4.129  19.762 -0.4832  0.4465  0.6415
 2487TIP3    H131656   1.000   4.103  19.767 -0.3152 -0.2012  0.4245
 2487TIP3    H231657   1.089   4.224  19.752 -1.1129  0.4954  1.1736
 2488TIP3   OH231658   0.111   0.055  19.657 -0.4886  0.3487 -0.1011
 2488TIP3    H131659   0.088   0.093  19.572  0.7691 -1.0597 -1.1316
 2488TIP3    H231660   0.027   0.043  19.701 -1.1630  1.2372 -1.0844
 2489TIP3   OH231661   5.441   0.297  18.601 -0.0281  0.5181  0.3809
 2489TIP3    H131662   5.488   0.372  18.639  1.8297  0.3411 -1.3468
 2489TIP3    H231663   5.423   0.325  18.511  0.6065 -1.0511 -0.2614
 2490TIP3   OH231664   2.283   3.579  20.252 -0.0501 -0.4568  0.3892
 2490TIP3    H131665   2.253   3.670  20.261 -0.3409 -0.3453 -1.3550
 2490TIP3    H231666   2.378   3.587  20.236 -0.1171 -0.4304 -0.0135
 2491TIP3   OH231667   0.898   4.244  20.794  0.0862  0.2395  0.0989
 2491TIP3    H131668   0.957   4.289  20.854 -0.6681 -1.2290  2.0398
 2491TIP3    H231669   0.947   4.169  20.763 -0.3786 -0.4285  0.9346
 2492TIP3   OH231670   1.718   6.625  19.892 -0.0422  0.0788 -0.0474
 2492TIP3    H131671   1.685   6.609  19.981 -0.0587 -1.2190 -0.2710
 2492TIP3    H231672   1.639   6.640  19.840 -0.1169 -0.3729 -0.0699
 2493TIP3   OH231673   0.704   6.148  20.896  0.5107 -0.1048  0.2251
 2493TIP3    H131674   0.615   6.114  20.904  0.7500 -0.5752  1.0111
 2493TIP3    H231675   0.699   6.237  20.931  0.1103  0.3245 -0.8596
 2494TIP3   OH231676   4.904   5.198  19.388  0.4223 -0.3457  0.0421
 2494TIP3    H131677   4.826   5.201  19.443  1.5132 -2.2706  1.8439
 2494TIP3    H231678   4.876   5.148  19.311 -0.6414  0.7898 -0.3419
 2495TIP3   OH231679   2.118   0.550  18.726  0.2401  0.4013  0.1052
 2495TIP3    H131680   2.213   0.542  18.719  0.4109  1.5711  0.7375
 2495TIP3    H231681   2.101   0.562  18.820 -0.3457  1.8917 -0.1524
 2496TIP3   OH231682   6.401   1.462  19.051 -0.1733  0.0416  0.4497
 2496TIP3    H131683   6.416   1.387  19.108  0.7453 -0.6344 -0.6150
 2496TIP3    H231684   6.354   1.425  18.975  0.9659  0.3577 -0.4397
 2497TIP3   OH231685   3.889   1.320  18.554  0.3192  0.3059  0.4209
 2497TIP3    H131686   3.918   1.230  18.547 -1.4309 -0.2891  0.3805
 2497TIP3    H231687   3.964   1.372  18.525  0.7574 -1.2056 -1.3023
 2498TIP3   OH231688   4.828   5.464  20.375 -0.0686 -0.2979 -0.1229
 2498TIP3    H131689   4.860   5.376  20.357  0.9081  0.3097 -1.4583
 2498TIP3    H231690   4.906   5.516  20.392 -0.7103  0.0032  2.3788
 2499TIP3   OH231691   1.827   1.625  19.749 -0.8178  0.4351 -0.4961
 2499TIP3    H131692   1.825   1.535  19.780 -0.7108  0.7965  0.6060
 2499TIP3    H231693   1.819   1.678  19.828  0.2334  1.4013 -1.0072
 2500TIP3   OH231694   2.833   2.123  19.666  0.0426 -0.5118  0.0917
 2500TIP3    H131695   2.755   2.155  19.619  1.0647 -0.6878 -1.8080
 2500TIP3    H231696   2.852   2.192  19.729  0.3178  1.2119 -1.7646
 2501TIP3   OH231697   2.587   2.131  20.098 -0.3002 -0.1217 -0.1121
 2501TIP3    H131698   2.504   2.172  20.076  0.1522  0.3366 -0.9933
 2501TIP3    H231699   2.589   2.050  20.047  0.3595  0.5083 -1.1088
 2502TIP3   OH231700   0.705   2.015  20.617  0.0104  0.1026 -0.4401
 2502TIP3    H131701   0.772   1.989  20.554  0.8269  0.6772  0.1767
 2502TIP3    H231702   0.754   2.050  20.691 -1.0016  1.3551 -0.3358
 2503TIP3   OH231703   5.233   6.170  18.041 -0.0989 -0.3443 -0.2125
 2503TIP3    H131704   5.328   6.170  18.031 -0.0850  0.8333 -0.1542
 2503TIP3    H231705   5.213   6.087  18.085  0.8249 -0.9186 -0.8557
 2504TIP3   OH231706   3.492   5.631  19.141  0.0402 -0.0615  0.3736
 2504TIP3    H131707   3.527   5.652  19.228 -1.0148  1.4593  0.4806
 2504TIP3    H231708   3.485   5.536  19.140 -0.0402 -0.1051  2.0087
 2505TIP3   OH231709   5.568   1.490  18.097  0.0559  0.1056  0.4087
 2505TIP3    H131710   5.474   1.488  18.114  0.2453  1.5253  1.9010
 2505TIP3    H231711   5.578   1.448  18.012 -1.9836  0.3838 -0.0196
 2506TIP3   OH231712   2.276   3.976  21.119  0.0923 -0.2599 -0.5870
 2506TIP3    H131713   2.349   4.037  21.114  0.2163 -0.3322  0.2755
 2506TIP3    H231714   2.251   3.961  21.028 -0.5555  1.8099 -0.7877
 2507TIP3   OH231715   3.900   1.496  20.501  0.2371  0.0059 -0.0736
 2507TIP3    H131716   3.923   1.581  20.462  0.8038 -0.2961 -0.3955
 2507TIP3    H231717   3.944   1.496  20.586  1.2862 -0.4829 -0.5992
 2508TIP3   OH231718   2.690   2.445  19.309  0.4372 -0.4053  0.2365
 2508TIP3    H131719   2.651   2.528  19.335  1.1878 -0.4797  1.6899
 2508TIP3    H231720   2.782   2.465  19.295  0.2224 -0.5515 -1.6205
 2509TIP3   OH231721   5.713   0.688  19.693 -0.1990 -0.1177 -0.0187
 2509TIP3    H131722   5.768   0.697  19.615 -0.6121  1.3107 -0.1746
 2509TIP3    H231723   5.660   0.610  19.676  0.8909 -0.7975 -0.4089
 2510TIP3   OH231724   6.452   4.194  19.425  0.1747  0.5738  0.1374
 2510TIP3    H131725   6.433   4.100  19.423 -0.2220  0.6538  0.0805
 2510TIP3    H231726   6.466   4.218  19.334 -2.4897  1.1144 -0.2215
 2511TIP3   OH231727   3.227   4.473  19.118 -0.4505 -0.1577  0.0184
 2511TIP3    H131728   3.280   4.551  19.130 -0.4364 -0.0889 -0.4862
 2511TIP3    H231729   3.215   4.466  19.024 -0.9179 -0.4521  0.0965
 2512TIP3   OH231730   2.736   2.947  20.679 -0.3410 -0.1274  0.1133
 2512TIP3    H131731   2.827   2.925  20.663 -1.1971 -3.6469 -0.8251
 2512TIP3    H231732   2.730   2.956  20.774  1.0375  0.6487  0.1476
 2513TIP3   OH231733   3.912   4.012  18.563 -0.1672 -0.0738 -0.2552
 2513TIP3    H131734   3.823   4.024  18.529  0.0454  1.0670 -0.4518
 2513TIP3    H231735   3.901   3.953  18.637 -1.1015  0.0972 -0.2367
 2514TIP3   OH231736   5.145   2.383  19.533  0.0064 -0.3008 -0.2664
 2514TIP3    H131737   5.079   2.426  19.478  1.0599  1.1228 -0.4416
 2514TIP3    H231738   5.112   2.393  19.622  1.2352  2.8693 -0.0549
 2515TIP3   OH231739   0.345   1.459  17.757  0.6921  0.3949 -0.1162
 2515TIP3    H131740   0.258   1.473  17.722  0.2857 -2.1269 -0.2444
 2515TIP3    H231741   0.401   1.449  17.680  0.4299 -1.5626 -0.0837
 2516TIP3   OH231742   4.843   4.383  17.441  0.2148 -0.0560 -0.7412
 2516TIP3    H131743   4.777   4.408  17.376 -0.9273  0.0509  0.4350
 2516TIP3    H231744   4.811   4.301  17.477  0.3545  0.3575  0.3464
 2517TIP3   OH231745   4.694   5.064  18.898 -0.6062  0.2342 -0.0528
 2517TIP3    H131746   4.783   5.033  18.878 -0.1821  1.4643 -0.1410
 2517TIP3    H231747   4.668   5.114  18.821 -1.8016 -0.9604 -0.4534
 2518TIP3   OH231748   3.661   0.501  19.399 -0.4126 -0.1295  0.7608
 2518TIP3    H131749   3.740   0.540  19.438 -0.9471 -0.3172  2.0712
 2518TIP3    H231750   3.655   0.541  19.312  0.6341  0.5488  0.9855
 2519TIP3   OH231751   4.163   5.048  18.549 -0.0678  0.0556 -0.5655
 2519TIP3    H131752   4.244   5.043  18.599  0.3900  2.5496 -0.9392
 2519TIP3    H231753   4.179   4.995  18.472  0.3533 -1.2994  0.4157
 2520TIP3   OH231754   6.130   0.197  18.665  0.4176 -0.2993  0.1497
 2520TIP3    H131755   6.045   0.237  18.685 -0.3694 -1.1552 -1.2769
 2520TIP3    H231756   6.132   0.117  18.717  0.2122 -0.4293 -0.0399
 2521TIP3   OH231757   2.001   1.862  19.021  0.2491  0.2089  0.1921
 2521TIP3    H131758   2.004   1.927  19.091 -0.0112  0.1867  0.2275
 2521TIP3    H231759   2.081   1.811  19.031 -0.0294 -0.1205  0.7947
 2522TIP3   OH231760   4.240   3.590  19.999  0.5386  0.2763  0.1582
 2522TIP3    H131761   4.326   3.594  20.040  0.8900  0.0047 -0.5388
 2522TIP3    H231762   4.200   3.674  20.019  0.1577 -0.3234  2.1943
 2523TIP3   OH231763   6.485   2.293  17.505 -0.4805 -0.1774  0.2166
 2523TIP3    H131764   6.494   2.313  17.598 -2.2710 -2.1675  0.9075
 2523TIP3    H231765   6.535   2.212  17.494 -2.7868 -1.7167  0.2544
 2524TIP3   OH231766   4.567   3.045  17.740  0.4332 -0.4823 -0.2226
 2524TIP3    H131767   4.649   3.010  17.705 -0.5128 -1.3516 -1.6583
 2524TIP3    H231768   4.568   3.138  17.715  0.7298 -0.6089 -0.7000
 2525TIP3   OH231769   4.322   3.676  20.523  0.3074  0.1283  0.2844
 2525TIP3    H131770   4.342   3.708  20.611  2.5323  2.5673 -0.9771
 2525TIP3    H231771   4.384   3.604  20.509 -0.6844 -0.8952  0.9909
 2526TIP3   OH231772   6.439   6.171  18.873  0.5548 -0.2209  0.4224
 2526TIP3    H131773   6.519   6.219  18.894  0.5778  0.2628 -0.7310
 2526TIP3    H231774   6.462   6.117  18.798 -0.0878 -0.3844  0.3343
 2527TIP3   OH231775   1.824   5.289  20.625 -0.3709  0.1266 -0.6755
 2527TIP3    H131776   1.867   5.233  20.689 -0.7953  0.4239 -0.1267
 2527TIP3    H231777   1.778   5.355  20.677  0.2344  1.0702 -1.3131
 2528TIP3   OH231778   0.057   3.308  17.852  0.3412  0.3574  0.0173
 2528TIP3    H131779  -0.003   3.290  17.779 -1.2491  0.6983  1.1972
 2528TIP3    H231780   0.107   3.227  17.862 -0.9162 -0.4595 -0.0810
 2529TIP3   OH231781   1.067   0.411  19.731  0.4938  0.7663  0.2122
 2529TIP3    H131782   1.156   0.440  19.750  0.8072  0.4489 -0.7384
 2529TIP3    H231783   1.078   0.332  19.678 -0.3495 -0.0134  1.1440
 2530TIP3   OH231784   4.423   4.593  20.291 -0.0902 -0.3671 -0.8177
 2530TIP3    H131785   4.472   4.599  20.373 -2.5684 -1.1354  0.8121
 2530TIP3    H231786   4.472   4.529  20.239  0.9197 -0.7022  0.4940
 2531TIP3   OH231787   4.005   4.524  18.266  0.3449  1.3367  0.1425
 2531TIP3    H131788   4.033   4.435  18.286 -0.4564  1.0556  0.0564
 2531TIP3    H231789   3.913   4.515  18.242  0.6556  1.9738 -1.3996
 2532TIP3   OH231790   0.034   5.507  20.983  0.2008  0.2187  0.3298
 2532TIP3    H131791  -0.056   5.478  20.966  0.5402  0.2419 -1.8433
 2532TIP3    H231792   0.066   5.447  21.049 -1.0776 -0.4691  0.3701
 2533TIP3   OH231793   2.451   4.199  19.093 -0.3321 -0.5479  0.6479
 2533TIP3    H131794   2.510   4.156  19.031 -3.0271 -0.6071 -2.0933
 2533TIP3    H231795   2.504   4.268  19.133  1.3966  0.0092 -2.3353
 2534TIP3   OH231796   6.331   3.982  19.848 -0.1864  0.7395  0.0621
 2534TIP3    H131797   6.256   4.021  19.804 -1.6190 -0.8256  0.9926
 2534TIP3    H231798   6.387   3.949  19.778 -0.9357  0.9288 -0.6342
 2535TIP3   OH231799   0.682   4.351  18.742 -0.0475 -0.3006 -0.1661
 2535TIP3    H131800   0.740   4.278  18.723 -0.3583 -0.5860 -0.0200
 2535TIP3    H231801   0.616   4.348  18.673  0.7718  0.7414 -1.0317
 2536TIP3   OH231802   6.609   0.481  20.235  0.8387 -0.9723  0.2055
 2536TIP3    H131803   6.562   0.402  20.261  1.6008 -1.0641  1.3695
 2536TIP3    H231804   6.695   0.450  20.208  0.7718 -0.6436 -0.4108
 2537TIP3   OH231805   4.377   5.493  18.337 -0.1926 -0.1985  0.4888
 2537TIP3    H131806   4.320   5.421  18.364  1.0894 -1.3548  0.2118
 2537TIP3    H231807   4.403   5.535  18.419 -1.2727  0.2306  0.6295
 2538TIP3   OH231808   5.540   6.326  21.116 -0.1333  0.2844  0.3519
 2538TIP3    H131809   5.462   6.381  21.128 -0.4630 -0.2932  0.8919
 2538TIP3    H231810   5.551   6.281  21.200 -1.8575 -3.0582 -1.0216
 2539TIP3   OH231811   2.608   3.681  18.372  0.3464  0.0454  0.6224
 2539TIP3    H131812   2.649   3.664  18.287 -0.7088  0.5577 -0.0147
 2539TIP3    H231813   2.554   3.604  18.388 -0.8675  0.7156 -0.0702
 2540TIP3   OH231814   5.135   3.911  21.072 -0.0855 -0.1334  0.1637
 2540TIP3    H131815   5.207   3.852  21.089  1.0385  0.8871 -0.8384
 2540TIP3    H231816   5.064   3.855  21.039 -0.2096 -1.2972  2.2914
 2541TIP3   OH231817   1.146   1.137  19.989 -0.5655 -0.5387 -0.2707
 2541TIP3    H131818   1.237   1.111  20.000 -0.4911  0.8452  4.2857
 2541TIP3    H231819   1.096   1.058  20.010 -0.4449 -0.7388 -0.7195
 2542TIP3   OH231820   5.203   3.982  18.310  0.0997 -0.0766  0.2098
 2542TIP3    H131821   5.261   3.952  18.240  0.9333  0.3422  0.7095
 2542TIP3    H231822   5.261   4.021  18.375 -0.8255  1.5195  0.1358
 2543TIP3   OH231823   5.441   3.352  20.225 -0.3655 -0.1300  0.3737
 2543TIP3    H131824   5.527   3.314  20.207 -0.0818  1.5785 -2.5678
 2543TIP3    H231825   5.382   3.307  20.165 -0.7262  1.3091 -0.4130
 2544TIP3   OH231826   0.894   3.547  18.688  0.2385 -0.0499 -0.8250
 2544TIP3    H131827   0.948   3.539  18.767  1.0576  2.8465 -0.9779
 2544TIP3    H231828   0.954   3.523  18.617  1.8558  3.9445 -1.0760
 2545TIP3   OH231829   0.860   4.835  19.429  0.1362  0.0656  0.0650
 2545TIP3    H131830   0.876   4.815  19.337  1.5521  0.3876  0.2169
 2545TIP3    H231831   0.942   4.874  19.460 -0.7567  1.2271  1.1131
 2546TIP3   OH231832   6.657   2.068  17.485  0.0764  0.0159 -0.1295
 2546TIP3    H131833   6.663   2.059  17.581  1.4702 -0.2392 -0.2143
 2546TIP3    H231834   6.654   1.978  17.453  1.6399  0.0178 -0.3896
 2547TIP3   OH231835   2.772   4.390  20.584  0.2403 -0.0549  0.1723
 2547TIP3    H131836   2.778   4.296  20.599  2.1891 -0.0773 -0.3543
 2547TIP3    H231837   2.679   4.411  20.592 -0.1415 -1.8995  0.9522
 2548TIP3   OH231838   3.672   6.118  18.309  0.3148  0.3686 -0.1798
 2548TIP3    H131839   3.684   6.030  18.344 -1.1214  0.2994  0.2163
 2548TIP3    H231840   3.690   6.109  18.215 -1.0237 -0.6381 -0.3700
 2549TIP3   OH231841   4.893   1.642  18.201 -0.2489  0.0980  0.4059
 2549TIP3    H131842   4.947   1.563  18.195 -2.3776 -1.3803 -0.2194
 2549TIP3    H231843   4.956   1.714  18.195  1.5207 -1.5122 -2.0373
 2550TIP3   OH231844   3.729   4.014  18.257 -0.7014  0.4610  0.2160
 2550TIP3    H131845   3.739   3.973  18.172 -0.2163  0.5918  0.2038
 2550TIP3    H231846   3.748   3.945  18.320  0.5905  0.7628  0.1904
 2551TIP3   OH231847   5.370   6.557  18.815  0.1605 -0.2443 -0.0139
 2551TIP3    H131848   5.424   6.631  18.787  0.1067 -0.2713 -0.1925
 2551TIP3    H231849   5.326   6.528  18.735 -0.3856 -0.0102  0.1959
 2552TIP3   OH231850   3.677   3.063  19.036 -0.6861 -0.0511  0.4901
 2552TIP3    H131851   3.733   3.026  19.105 -2.0844 -1.6637  0.8280
 2552TIP3    H231852   3.730   3.055  18.957  0.3656  0.4125  1.1236
 2553TIP3   OH231853   1.225   0.548  18.719 -0.0768 -0.4111 -0.6928
 2553TIP3    H131854   1.186   0.478  18.666 -0.5048 -0.9580  0.3203
 2553TIP3    H231855   1.319   0.541  18.703 -0.2308 -0.2455 -1.7517
 2554TIP3   OH231856   3.464   5.377  21.073  0.2524 -0.1997  0.2535
 2554TIP3    H131857   3.413   5.310  21.027  2.1102 -1.4144 -0.1386
 2554TIP3    H231858   3.423   5.381  21.160 -0.0974 -1.6499  0.1937
 2555TIP3   OH231859   0.481   4.546  21.163  0.2870  0.1414 -0.0484
 2555TIP3    H131860   0.468   4.592  21.246  1.6881 -0.5900  0.6042
 2555TIP3    H231861   0.461   4.454  21.183 -0.1405  0.0790 -0.7285
 2556TIP3   OH231862   1.016   4.726  19.836  0.5286 -0.5734 -0.0548
 2556TIP3    H131863   1.030   4.810  19.792 -2.1960 -0.3830 -0.7677
 2556TIP3    H231864   1.021   4.661  19.766 -2.2204 -0.4287 -0.4983
 2557TIP3   OH231865   2.081   2.185  18.005 -0.3797 -0.1255 -0.4433
 2557TIP3    H131866   2.079   2.173  17.910  1.1065 -0.0308 -0.5077
 2557TIP3    H231867   1.989   2.191  18.030 -0.7815  0.5581 -1.9616
 2558TIP3   OH231868   3.622   0.311  18.357  0.1801  0.1542 -0.2894
 2558TIP3    H131869   3.680   0.301  18.433 -0.4222 -1.1019  0.0444
 2558TIP3    H231870   3.606   0.221  18.328 -1.6393  0.4496 -0.3238
 2559TIP3   OH231871   3.858   3.558  18.940 -0.2026 -0.0619  0.0348
 2559TIP3    H131872   3.865   3.515  19.026  0.6985 -1.3261 -0.6304
 2559TIP3    H231873   3.791   3.507  18.894 -1.0055  0.8914  0.1276
 2560TIP3   OH231874   5.726   0.678  20.636 -0.5023  0.0673 -0.0856
 2560TIP3    H131875   5.785   0.753  20.641 -0.1403 -0.2827  1.2412
 2560TIP3    H231876   5.698   0.675  20.544  1.1419  0.5454 -0.6281
 2561TIP3   OH231877   0.419   3.984  20.009  0.0496  0.0250 -0.0807
 2561TIP3    H131878   0.342   4.040  19.998 -0.1304 -0.2055  0.0055
 2561TIP3    H231879   0.389   3.914  20.067  0.1349 -0.4275 -0.5829
 2562TIP3   OH231880   3.380   0.188  19.968  0.3236  0.1682 -0.1500
 2562TIP3    H131881   3.378   0.122  20.037  0.2168 -0.5700 -0.8404
 2562TIP3    H231882   3.315   0.158  19.905  0.4880  0.7847 -0.6227
 2563TIP3   OH231883   6.171   4.060  21.160 -0.2874 -0.3750  0.1566
 2563TIP3    H131884   6.130   3.975  21.178  0.3600 -0.7131  0.0603
 2563TIP3    H231885   6.263   4.040  21.144 -0.2750  0.2475 -0.6670
 2564TIP3   OH231886   1.347   1.520  18.895 -0.1842 -0.0629 -0.1302
 2564TIP3    H131887   1.394   1.505  18.977 -1.3588 -0.0075  0.5745
 2564TIP3    H231888   1.324   1.432  18.864 -2.4098 -0.0477  1.2327
 2565TIP3   OH231889   3.021   2.896  20.349 -0.0579 -0.4221 -0.0806
 2565TIP3    H131890   2.991   2.810  20.322 -0.1240 -0.5052  0.2487
 2565TIP3    H231891   3.106   2.879  20.391  0.6483 -0.1474 -1.3518
 2566TIP3   OH231892   0.132   4.859  17.791  0.2142 -0.0794  0.4533
 2566TIP3    H131893   0.208   4.903  17.828  0.0211  1.5511 -0.9731
 2566TIP3    H231894   0.058   4.917  17.810 -0.4054 -0.7979  0.3262
 2567TIP3   OH231895   4.284   3.329  20.051  0.2436 -0.2033 -0.7735
 2567TIP3    H131896   4.254   3.409  20.009 -0.7489  0.2808  0.8029
 2567TIP3    H231897   4.271   3.343  20.144  0.9590 -1.8367 -0.3807
 2568TIP3   OH231898   2.303   5.996  20.288 -0.1592 -0.6622  0.3217
 2568TIP3    H131899   2.240   5.928  20.265  0.0115 -1.5420  2.2604
 2568TIP3    H231900   2.347   6.017  20.206 -1.8853 -1.1570 -0.7580
 2569TIP3   OH231901   3.137   5.785  17.805 -0.1935  0.0747 -0.3344
 2569TIP3    H131902   3.118   5.746  17.720 -0.1283 -2.2448  0.6596
 2569TIP3    H231903   3.099   5.873  17.799 -2.0023 -0.7277 -2.0352
 2570TIP3   OH231904   1.327   1.055  18.285 -0.0697  0.6932 -0.0187
 2570TIP3    H131905   1.260   1.032  18.350 -0.1041  0.5927 -0.0882
 2570TIP3    H231906   1.336   0.976  18.232 -1.2508  1.3088 -1.1940
 2571TIP3   OH231907   0.671   5.037  19.489 -0.2003 -0.2689 -0.4230
 2571TIP3    H131908   0.673   5.105  19.422  0.6867 -0.3841 -0.5283
 2571TIP3    H231909   0.751   4.987  19.475 -0.0907 -0.4033  0.6124
 2572TIP3   OH231910   6.668   0.243  17.842  0.1194  0.2352  0.1374
 2572TIP3    H131911   6.611   0.188  17.896  0.2818 -0.2835 -0.2063
 2572TIP3    H231912   6.626   0.329  17.842 -0.3103  0.0286  0.4195
 2573TIP3   OH231913   2.943   2.278  19.321 -0.1329 -0.7874  0.3990
 2573TIP3    H131914   2.929   2.307  19.231 -1.3502 -1.9134  0.1954
 2573TIP3    H231915   2.988   2.351  19.363 -0.7611  0.3100 -0.7607
 2574TIP3   OH231916   4.294   1.200  17.837 -0.4770 -0.4456  0.2297
 2574TIP3    H131917   4.375   1.242  17.809 -0.8879  0.7176  0.6921
 2574TIP3    H231918   4.272   1.139  17.766  0.4371 -0.2749 -0.2100
 2575TIP3   OH231919   0.464   5.955  19.527 -0.1678  0.1571 -0.5625
 2575TIP3    H131920   0.432   5.969  19.616  1.6437 -0.4659  0.2304
 2575TIP3    H231921   0.464   5.860  19.517  1.6998  0.1053 -0.3855
 2576TIP3   OH231922   1.152   6.450  18.223 -0.2387  0.6736 -0.0564
 2576TIP3    H131923   1.060   6.477  18.218 -0.3450  0.2547 -0.4516
 2576TIP3    H231924   1.182   6.453  18.132  0.1830  0.9484  0.0880
 2577TIP3   OH231925   3.132   5.502  19.130  0.3865 -0.1777  0.4937
 2577TIP3    H131926   3.156   5.525  19.041  2.2377  0.2082  1.0501
 2577TIP3    H231927   3.097   5.413  19.123  1.3179 -0.4837 -0.5076
 2578TIP3   OH231928   5.869   3.262  21.361 -0.1223  0.1572  0.6711
 2578TIP3    H131929   5.938   3.238  21.298 -0.7083 -0.1130  0.1235
 2578TIP3    H231930   5.914   3.316  21.426  0.4145  0.8111 -0.2112
 2579TIP3   OH231931   6.401   6.625  18.571  0.0635  0.0463 -0.2846
 2579TIP3    H131932   6.389   6.647  18.663 -0.5220  2.2407 -0.8437
 2579TIP3    H231933   6.482   6.574  18.569 -0.2181 -0.5400  1.4855
 2580TIP3   OH231934   3.292   2.323  19.578  0.1252  0.7646 -0.2174
 2580TIP3    H131935   3.264   2.305  19.488 -0.2504  3.5703 -0.7448
 2580TIP3    H231936   3.387   2.313  19.576  0.1009  0.5972 -0.8494
 2581TIP3   OH231937   2.191   0.937  18.501  0.3312  0.0014  0.4462
 2581TIP3    H131938   2.249   0.900  18.568  2.2612  1.7388 -0.1568
 2581TIP3    H231939   2.222   1.027  18.490 -1.2742  0.3986 -1.3341
 2582TIP3   OH231940   5.190   5.908  18.148 -0.8719  0.3405 -0.1680
 2582TIP3    H131941   5.102   5.890  18.183 -0.2903 -0.2866  1.0410
 2582TIP3    H231942   5.232   5.822  18.145  0.0709  0.7699  0.3622
 2583TIP3   OH231943   3.454   0.587  19.092 -0.3234  0.3540 -0.1330
 2583TIP3    H131944   3.433   0.661  19.035 -0.8203  0.2353 -0.1036
 2583TIP3    H231945   3.510   0.624  19.160 -0.3330  0.6429 -0.2821
 2584TIP3   OH231946   1.761   5.962  18.571  0.3313 -0.3502 -0.2449
 2584TIP3    H131947   1.729   5.988  18.484  2.2533  0.7360 -0.6732
 2584TIP3    H231948   1.820   6.032  18.597  0.9825 -1.4126  1.2745
 2585TIP3   OH231949   2.970   2.809  17.924  0.1498  0.2456 -0.3157
 2585TIP3    H131950   2.996   2.792  17.834  1.3011 -1.1523  0.2373
 2585TIP3    H231951   2.880   2.778  17.930  0.8451 -1.9623 -0.4118
 2586TIP3   OH231952   2.019   3.396  20.532  0.3781 -0.2766 -0.0338
 2586TIP3    H131953   1.997   3.457  20.461 -0.0649  0.5695  0.8011
 2586TIP3    H231954   2.074   3.330  20.490 -1.8011 -1.1556 -1.7013
 2587TIP3   OH231955   1.548   2.237  17.275  0.3310 -0.3701 -0.1401
 2587TIP3    H131956   1.611   2.186  17.224  1.7432  0.5984  0.6061
 2587TIP3    H231957   1.514   2.175  17.340  0.4957 -0.9008 -0.5510
 2588TIP3   OH231958   0.500   0.874  19.492  0.5047  0.0519  0.3216
 2588TIP3    H131959   0.437   0.853  19.424 -0.8356  0.1382  1.4802
 2588TIP3    H231960   0.572   0.918  19.447 -0.4548  0.3216 -0.9801
 2589TIP3   OH231961   3.913   5.432  18.614  0.5302  0.5663  0.4591
 2589TIP3    H131962   3.955   5.503  18.564 -1.2402  1.0998 -0.3431
 2589TIP3    H231963   3.902   5.361  18.550 -0.5471  0.7593  0.4083
 2590TIP3   OH231964   2.750   0.558  18.528  0.5083 -0.4754 -0.5918
 2590TIP3    H131965   2.702   0.478  18.507 -1.7929  0.6997 -0.2029
 2590TIP3    H231966   2.743   0.612  18.449 -1.7168  0.9847  0.5006
 2591TIP3   OH231967   1.318   4.919  17.916 -0.0690  0.1870 -0.2145
 2591TIP3    H131968   1.318   5.015  17.923 -0.2341  0.2532 -0.9762
 2591TIP3    H231969   1.245   4.900  17.857  0.9659 -0.2879 -1.3768
 2592TIP3   OH231970   5.267   4.711  20.969 -0.2288 -0.3080 -0.7429
 2592TIP3    H131971   5.185   4.674  20.937 -1.6981  1.2147  1.0490
 2592TIP3    H231972   5.285   4.784  20.909  0.9980 -1.8866 -2.3880
 2593TIP3   OH231973   2.697   4.846  20.519  0.1361 -0.4205 -0.1605
 2593TIP3    H131974   2.625   4.905  20.543 -1.0221 -1.3371 -1.2483
 2593TIP3    H231975   2.654   4.775  20.472  1.6523 -1.5352  0.1000
 2594TIP3   OH231976   5.127   3.520  18.211 -0.2165  0.2113 -0.1128
 2594TIP3    H131977   5.107   3.612  18.230  2.5450  0.6289  1.3733
 2594TIP3    H231978   5.068   3.471  18.268  0.0783  1.1673  1.0538
 2595TIP3   OH231979   4.867   0.083  18.364 -0.5802 -0.5408  0.1404
 2595TIP3    H131980   4.829  -0.005  18.372  0.9138 -1.3912 -1.4348
 2595TIP3    H231981   4.801   0.141  18.403 -3.7690 -1.8137 -2.8424
 2596TIP3   OH231982   6.320   5.164  20.162 -0.2574 -0.2726  0.2531
 2596TIP3    H131983   6.410   5.189  20.142  0.9505 -3.1267  1.5840
 2596TIP3    H231984   6.306   5.084  20.112 -1.6163 -0.5222  0.9845
 2597TIP3   OH231985   4.113   4.112  21.307  0.3172  0.1307 -0.1044
 2597TIP3    H131986   4.122   4.024  21.271 -0.1358  0.8452 -2.0802
 2597TIP3    H231987   4.203   4.145  21.314  0.4586 -0.3169  0.2226
 2598TIP3   OH231988   4.131   1.707  18.346 -0.6859 -0.4866  0.1117
 2598TIP3    H131989   4.220   1.727  18.317 -0.7263  1.4091  1.1206
 2598TIP3    H231990   4.076   1.768  18.296 -1.2390 -0.5784  0.6029
 2599TIP3   OH231991   4.347   3.855  17.631 -0.2240  0.6353 -0.1308
 2599TIP3    H131992   4.342   3.761  17.614 -1.9886  0.1557  2.4814
 2599TIP3    H231993   4.409   3.863  17.703 -1.7947  1.1821  1.2013
 2600TIP3   OH231994   3.904   4.035  20.497  0.1201  0.1615  0.4417
 2600TIP3    H131995   3.992   4.062  20.526  0.7252 -0.7788 -0.4513
 2600TIP3    H231996   3.914   4.019  20.403 -0.8070 -0.7423  0.4846
 2601TIP3   OH231997   3.463   3.510  19.263 -0.2110 -0.5165 -0.1483
 2601TIP3    H131998   3.500   3.424  19.242 -0.2805 -0.3376 -1.0448
 2601TIP3    H231999   3.531   3.572  19.235  0.1011 -0.2897  1.0578
 2602TIP3   OH232000   0.440   4.090  18.765  0.0701 -0.5741 -0.2172
 2602TIP3    H132001   0.516   4.100  18.822 -0.7728 -0.0381  0.8333
 2602TIP3    H232002   0.364   4.096  18.823 -0.8884  1.5509 -1.5496
 2603TIP3   OH232003   3.865   0.443  19.972  0.7710 -0.2840 -0.0316
 2603TIP3    H132004   3.784   0.401  20.002  0.0472  0.9061 -0.2213
 2603TIP3    H232005   3.846   0.469  19.881  1.1226  0.5661  0.1210
 2604TIP3   OH232006   1.479   2.241  20.526 -0.4744  0.1423  0.2034
 2604TIP3    H132007   1.383   2.233  20.520 -0.8328  2.6218  1.3422
 2604TIP3    H232008   1.507   2.261  20.437 -1.1081 -0.0281 -0.0407
 2605TIP3   OH232009   6.078   0.326  20.725  0.0387  0.3940  0.1089
 2605TIP3    H132010   6.046   0.391  20.662 -2.8193 -0.4080  0.6071
 2605TIP3    H232011   6.006   0.314  20.787  1.6752 -0.9517  1.8830
 2606TIP3   OH232012   3.230   1.232  18.486  0.0983  0.1005  0.4093
 2606TIP3    H132013   3.291   1.181  18.433 -1.3126 -0.5292 -0.6903
 2606TIP3    H232014   3.210   1.309  18.432  3.4120  2.8283  2.6833
 2607TIP3   OH232015   5.405   6.016  19.564 -0.6212  0.0912  0.3309
 2607TIP3    H132016   5.330   5.976  19.521 -0.6702 -2.2434  2.3859
 2607TIP3    H232017   5.447   5.945  19.613  2.4221  1.4824  0.0300
 2608TIP3   OH232018   1.114   6.582  19.228 -0.6401  0.3942  0.1711
 2608TIP3    H132019   1.029   6.623  19.212  0.1038  2.3847  0.9846
 2608TIP3    H232020   1.168   6.652  19.265  1.3084 -0.8549 -0.1412
 2609TIP3   OH232021   0.467   0.019  20.757 -0.5246 -0.4847 -0.3134
 2609TIP3    H132022   0.429  -0.020  20.679  1.8149 -0.6587 -1.4548
 2609TIP3    H232023   0.394   0.064  20.800 -2.0508 -1.1534 -2.0892
 2610TIP3   OH232024   2.032   4.287  19.232  0.2617 -0.5091 -0.2697
 2610TIP3    H132025   1.952   4.289  19.179  1.4909  0.8626 -2.2273
 2610TIP3    H232026   2.016   4.350  19.302 -0.4010 -0.2866 -0.6090
 2611TIP3   OH232027   3.618   3.384  18.503  0.1232  0.3392 -0.6095
 2611TIP3    H132028   3.583   3.304  18.540 -2.0526  1.6645  0.3558
 2611TIP3    H232029   3.707   3.391  18.539 -1.1024  0.4233  2.6295
 2612TIP3   OH232030   5.971   3.511  20.404 -0.0728 -0.0018  0.0570
 2612TIP3    H132031   5.888   3.555  20.389  0.4001  0.8560 -0.1174
 2612TIP3    H232032   6.006   3.495  20.316  0.8241  1.3892  0.1230
 2613TIP3   OH232033   6.201   3.103  18.730 -0.0505  0.0017 -0.1592
 2613TIP3    H132034   6.226   3.160  18.802  1.4230  0.2257 -0.8321
 2613TIP3    H232035   6.178   3.020  18.773 -1.8046  0.9104  0.7794
 2614TIP3   OH232036   2.331   4.735  20.951  0.0077 -0.0785 -0.1999
 2614TIP3    H132037   2.373   4.741  20.865 -0.5836 -1.0355 -0.5633
 2614TIP3    H232038   2.389   4.785  21.009  0.1909  0.9535 -1.2265
 2615TIP3   OH232039   2.090   4.611  19.511  0.5316  0.1829 -0.1757
 2615TIP3    H132040   2.171   4.640  19.553  0.5795 -0.6052  0.3035
 2615TIP3    H232041   2.046   4.692  19.485  1.4033  0.6262 -0.3153
 2616TIP3   OH232042   5.090   1.689  19.367  0.0823 -0.0097 -0.0885
 2616TIP3    H132043   5.138   1.671  19.287 -1.2923 -0.1557 -0.9111
 2616TIP3    H232044   5.023   1.621  19.371 -0.5880  0.6713  0.5841
 2617TIP3   OH232045   3.046   5.890  20.670  0.0385  0.6313 -0.4351
 2617TIP3    H132046   3.017   5.876  20.580 -0.8813  0.4986 -0.1257
 2617TIP3    H232047   3.054   5.802  20.707 -0.3780  0.7044 -0.1529
 2618TIP3   OH232048   3.916   5.809  20.648  0.3147 -0.3514  0.2203
 2618TIP3    H132049   3.976   5.794  20.576 -2.1636 -1.7132 -1.7094
 2618TIP3    H232050   3.922   5.903  20.665 -0.0982  0.3247 -2.8424
 2619TIP3   OH232051   3.908   2.158  18.624  0.4156  0.0547  0.1812
 2619TIP3    H132052   3.925   2.119  18.710 -0.8425  1.2498  1.0042
 2619TIP3    H232053   3.837   2.105  18.588  0.2912  0.1571  0.2793
 2620TIP3   OH232054   5.880   0.773  20.124 -0.9032 -0.0114 -0.4075
 2620TIP3    H132055   5.888   0.696  20.068  3.1222 -0.0107 -0.1036
 2620TIP3    H232056   5.928   0.842  20.077  0.4274  0.6707  1.8132
 2621TIP3   OH232057   0.441   1.142  18.446 -0.2132 -0.0717 -0.2811
 2621TIP3    H132058   0.477   1.185  18.524  1.6929 -2.0532  0.0120
 2621TIP3    H232059   0.408   1.058  18.478  3.7978 -2.5562 -1.9687
 2622TIP3   OH232060   2.352   3.275  21.352 -0.2197  0.8503  0.1521
 2622TIP3    H132061   2.258   3.270  21.370 -0.3866  0.4282 -0.8174
 2622TIP3    H232062   2.362   3.355  21.300 -0.4292 -0.4955 -2.0299
 2623TIP3   OH232063   1.932   1.290  18.365 -0.0337  0.2650 -0.1637
 2623TIP3    H132064   1.926   1.386  18.367 -0.0024  0.2704 -0.3496
 2623TIP3    H232065   1.927   1.267  18.272  1.8161  0.2074 -0.2828
 2624TIP3   OH232066   1.617   0.544  20.717  0.7115 -0.1370 -0.2368
 2624TIP3    H132067   1.624   0.639  20.715 -0.2374 -0.0565  0.0133
 2624TIP3    H232068   1.542   0.523  20.662 -0.8827 -0.5121  1.9061
 2625TIP3   OH232069   5.317   1.321  19.897  0.2281  0.4729 -0.1022
 2625TIP3    H132070   5.316   1.280  19.984  2.0509 -1.7342 -1.0061
 2625TIP3    H232071   5.397   1.373  19.896 -0.0296  0.8712 -0.3208
 2626TIP3   OH232072   0.181   5.706  18.276  0.3107 -0.1633  0.4372
 2626TIP3    H132073   0.152   5.686  18.365 -0.9663  1.9484  0.5497
 2626TIP3    H232074   0.132   5.645  18.221 -0.6936  0.0961  1.0128
 2627TIP3   OH232075   4.862   1.926  18.388  0.0772 -0.7560  0.5260
 2627TIP3    H132076   4.841   1.999  18.447  2.1455  2.0221 -1.8340
 2627TIP3    H232077   4.799   1.936  18.316 -1.2060 -2.9452  1.2549
 2628TIP3   OH232078   1.636   4.253  19.566  0.1537  0.5256  0.1668
 2628TIP3    H132079   1.563   4.275  19.623 -0.2499  1.6651 -0.7537
 2628TIP3    H232080   1.714   4.265  19.621 -0.3309 -0.7199  1.1525
 2629TIP3   OH232081   4.700   3.728  18.091  0.0541  0.1936 -0.1353
 2629TIP3    H132082   4.742   3.814  18.081 -0.9608  0.7353  0.1622
 2629TIP3    H232083   4.697   3.693  18.002 -1.1236  1.2518 -0.5383
 2630TIP3   OH232084   1.106   3.609  19.969 -0.1496  0.5436  0.1520
 2630TIP3    H132085   1.080   3.531  19.920 -0.9439  1.0753 -0.2873
 2630TIP3    H232086   1.155   3.662  19.906  1.0254  0.0854  0.6502
 2631TIP3   OH232087   1.155   2.171  18.077 -0.1800 -0.2455  0.6450
 2631TIP3    H132088   1.091   2.228  18.036  0.1142  1.3023  2.2152
 2631TIP3    H232089   1.116   2.084  18.073 -1.5876  0.3850  0.0322
 2632TIP3   OH232090   3.435   6.316  19.186  0.6734  0.3087  0.8877
 2632TIP3    H132091   3.344   6.327  19.158  1.1833 -0.7724 -1.4762
 2632TIP3    H232092   3.433   6.330  19.281 -2.0836 -0.3891  1.0293
 2633TIP3   OH232093   2.716   2.924  18.599 -0.0726  0.1997 -0.1416
 2633TIP3    H132094   2.691   3.009  18.561 -0.2433 -0.0116 -0.5046
 2633TIP3    H232095   2.633   2.879  18.613 -0.0364  0.3860  0.7668
 2634TIP3   OH232096   4.414   1.830  19.967 -0.2095 -0.1400  0.0567
 2634TIP3    H132097   4.390   1.744  20.001 -2.1184  0.5346  0.5291
 2634TIP3    H232098   4.503   1.845  20.000  0.0419 -1.7976  0.1880
 2635TIP3   OH232099   0.359   5.797  18.106 -0.0843 -0.5321  0.1324
 2635TIP3    H132100   0.322   5.723  18.058  2.3190 -1.1741 -0.8953
 2635TIP3    H232101   0.312   5.798  18.189 -0.6911 -2.7656 -0.1208
 2636TIP3   OH232102   1.776   2.365  18.415  0.0923  0.0152 -0.0585
 2636TIP3    H132103   1.867   2.379  18.444 -0.0647  0.8158  0.0831
 2636TIP3    H232104   1.740   2.303  18.478  0.7258 -0.8063 -0.4921
 2637TIP3   OH232105   0.183   5.748  20.914  0.1718 -0.2008 -0.1272
 2637TIP3    H132106   0.152   5.665  20.951  0.9036 -0.4665 -0.0836
 2637TIP3    H232107   0.270   5.727  20.879 -0.8802 -0.2568 -2.9813
 2638TIP3   OH232108   2.926   4.855  20.660 -0.3543 -0.1755  0.2943
 2638TIP3    H132109   2.850   4.811  20.622 -2.6374  2.0073  2.0589
 2638TIP3    H232110   2.926   4.827  20.751  0.7327  0.1855  0.4173
 2639TIP3   OH232111   0.924   6.599  21.141 -0.3221  0.0621  0.5045
 2639TIP3    H132112   0.846   6.590  21.196 -0.8464  0.6873 -0.1119
 2639TIP3    H232113   0.923   6.691  21.113  0.4196 -0.0246  0.1690
 2640TIP3   OH232114   4.060   0.384  18.462 -0.1280  0.0594 -0.7945
 2640TIP3    H132115   4.127   0.404  18.528 -0.8425 -0.6356  0.1703
 2640TIP3    H232116   4.108   0.346  18.389  0.5527 -0.3249 -0.1590
 2641TIP3   OH232117   6.361   1.314  20.318 -0.0782 -0.3925 -0.4487
 2641TIP3    H132118   6.444   1.268  20.305  1.1951  1.8277 -0.6426
 2641TIP3    H232119   6.316   1.308  20.233  0.7985  0.0610 -0.9558
 2642TIP3   OH232120   4.481   1.692  17.278 -0.3391  0.0084 -0.4920
 2642TIP3    H132121   4.531   1.742  17.213 -0.4016 -0.3642 -0.8284
 2642TIP3    H232122   4.523   1.714  17.362 -0.0014  0.1743 -0.7030
 2643TIP3   OH232123   3.710   5.412  19.060  0.5590 -0.1581  0.2610
 2643TIP3    H132124   3.645   5.421  19.129  0.1676  0.3452 -0.1584
 2643TIP3    H232125   3.682   5.336  19.010 -0.5337  0.8708 -0.7576
 2644TIP3   OH232126   3.472   6.158  19.753 -0.1473  0.3999  0.5316
 2644TIP3    H132127   3.427   6.224  19.700 -2.1729 -0.8616  0.5695
 2644TIP3    H232128   3.402   6.115  19.802  1.2115 -1.2090  1.1599
 2645TIP3   OH232129   6.669   1.801  18.398  0.1903  0.4145  0.2588
 2645TIP3    H132130   6.584   1.813  18.355 -0.5660 -2.0139  0.9312
 2645TIP3    H232131   6.717   1.742  18.341  1.5577  1.8956 -0.1946
 2646TIP3   OH232132   2.017   3.096  18.048  0.2641 -0.6700 -0.1445
 2646TIP3    H132133   1.947   3.034  18.030 -1.2148  1.1085 -0.8347
 2646TIP3    H232134   2.066   3.101  17.966  0.7578 -1.3521  0.1032
 2647TIP3   OH232135   5.552   4.247  18.967  0.1636 -0.6533 -0.2692
 2647TIP3    H132136   5.472   4.284  18.930  0.0194 -1.2522 -0.5665
 2647TIP3    H232137   5.546   4.153  18.951  0.5041 -0.8256  0.5080
 2648TIP3   OH232138   6.525   2.129  17.988  0.4455 -0.2103  0.1851
 2648TIP3    H132139   6.570   2.150  18.070 -1.1932  0.6325  0.9027
 2648TIP3    H232140   6.437   2.103  18.015 -0.2186  0.3883 -1.3268
 2649TIP3   OH232141   5.094   5.870  19.242 -0.0216  0.0590 -0.2596
 2649TIP3    H132142   5.162   5.808  19.216  0.0621 -0.5168  1.2472
 2649TIP3    H232143   5.043   5.824  19.309 -1.0235  0.9963 -0.3553
 2650TIP3   OH232144   1.721   4.607  18.897  0.1800 -0.3167  0.3971
 2650TIP3    H132145   1.632   4.628  18.870 -0.4500 -1.4254  1.4841
 2650TIP3    H232146   1.775   4.627  18.820 -0.9440  0.6800 -0.1729
 2651TIP3   OH232147   3.674   0.806  18.377 -0.1993  0.2684 -0.0570
 2651TIP3    H132148   3.677   0.721  18.334 -0.8068  0.0108  0.3985
 2651TIP3    H232149   3.706   0.868  18.311  0.1484 -0.2957 -0.4218
 2652TIP3   OH232150   1.075   5.944  18.038 -0.5184 -0.2470  0.5896
 2652TIP3    H132151   1.059   5.958  18.132  0.9666  1.1443  0.6775
 2652TIP3    H232152   1.139   5.873  18.035 -0.1279  0.0945  0.6781
 2653TIP3   OH232153   0.493   2.500  19.736 -1.0695 -0.7126 -0.1033
 2653TIP3    H132154   0.559   2.558  19.698  0.3655 -0.5009  2.4508
 2653TIP3    H232155   0.411   2.550  19.730  0.1842  1.9501  2.4105
 2654TIP3   OH232156   3.916   2.561  20.169 -0.5645  0.1046  0.1515
 2654TIP3    H132157   3.959   2.513  20.098  2.0712  0.5044  1.3561
 2654TIP3    H232158   3.939   2.652  20.153 -0.9738  0.3418  0.8899
 2655TIP3   OH232159   4.670   3.200  19.876 -0.4397  0.2999  0.4198
 2655TIP3    H132160   4.757   3.190  19.914  0.3146  1.1759 -0.9878
 2655TIP3    H232161   4.628   3.267  19.930  0.0670  0.4754  0.6039
 2656TIP3   OH232162   4.634   3.016  19.121 -0.0356 -0.4066  0.2452
 2656TIP3    H132163   4.555   2.975  19.085 -1.2085  1.4455  0.5581
 2656TIP3    H232164   4.691   3.030  19.046 -0.3366 -1.0734 -0.1083
 2657TIP3   OH232165   2.101   4.908  17.901  0.6264  0.3325  0.3437
 2657TIP3    H132166   2.022   4.957  17.923  0.7116  0.7769 -0.2992
 2657TIP3    H232167   2.160   4.974  17.864  0.5979 -0.3213 -0.9171
 2658TIP3   OH232168   0.341   4.918  18.623  0.5565  0.3581  0.8957
 2658TIP3    H132169   0.394   4.841  18.600 -0.2547 -0.0759  0.4460
 2658TIP3    H232170   0.386   4.991  18.580  0.7709 -0.0085  0.4873
 2659TIP3   OH232171   5.649   3.975  18.539  0.3135 -0.0678 -0.0404
 2659TIP3    H132172   5.685   3.887  18.550 -1.1101 -0.4985  1.6894
 2659TIP3    H232173   5.725   4.033  18.543  1.1126 -1.1097  0.5473
 2660TIP3   OH232174   3.842   0.511  20.654  0.4154  1.0034 -0.1332
 2660TIP3    H132175   3.885   0.426  20.659 -1.5180 -0.0081  0.4916
 2660TIP3    H232176   3.790   0.516  20.735 -2.5357  0.9971 -1.8743
 2661TIP3   OH232177   6.655   6.122  17.823 -0.3904 -0.2236  0.1578
 2661TIP3    H132178   6.673   6.029  17.838  0.6749 -0.6117 -2.8368
 2661TIP3    H232179   6.623   6.126  17.733 -2.3200  2.1376  0.8359
 2662TIP3   OH232180   3.203   2.800  20.597  0.3896 -0.0763  0.0286
 2662TIP3    H132181   3.231   2.718  20.554  2.0137  0.4098  0.0957
 2662TIP3    H232182   3.280   2.856  20.595 -0.4171  1.1229  0.8483
 2663TIP3   OH232183   0.088   0.286  19.458 -0.0405  0.3048  0.1439
 2663TIP3    H132184   0.156   0.298  19.393  0.4972 -0.9316  0.4407
 2663TIP3    H232185   0.012   0.332  19.423  1.4093  3.3573  0.6837
 2664TIP3   OH232186   4.328   6.184  19.441 -0.1390 -0.3548 -0.3804
 2664TIP3    H132187   4.350   6.278  19.438  0.4471 -0.5025 -0.7956
 2664TIP3    H232188   4.248   6.177  19.390  0.5126 -0.2628 -1.4525
 2665TIP3   OH232189   4.860   4.419  19.107 -0.2551  0.1049 -0.2546
 2665TIP3    H132190   4.911   4.428  19.188  0.7185 -1.2004 -0.6814
 2665TIP3    H232191   4.892   4.490  19.051  1.3203 -0.8207 -0.5981
 2666TIP3   OH232192   0.962   3.219  18.518 -0.7570 -0.4508 -0.2731
 2666TIP3    H132193   1.039   3.169  18.547 -0.1363  0.1696 -0.8023
 2666TIP3    H232194   0.907   3.226  18.595  0.2975  0.1429  0.4573
 2667TIP3   OH232195   2.382   3.168  18.954 -0.0419 -0.4285 -0.1014
 2667TIP3    H132196   2.308   3.123  18.913  0.5608 -0.8018 -0.8025
 2667TIP3    H232197   2.453   3.104  18.953  0.5138  0.1709 -0.1299
 2668TIP3   OH232198   2.098   2.376  19.938  0.4039  0.5919  0.6658
 2668TIP3    H132199   2.125   2.399  19.849 -0.4861 -3.3523 -0.8345
 2668TIP3    H232200   2.015   2.423  19.951  0.6970  1.4527 -0.4479
 2669TIP3   OH232201   5.225   2.927  19.273  0.1384  0.3440 -0.2035
 2669TIP3    H132202   5.173   2.847  19.273  0.2870  0.1873  2.0606
 2669TIP3    H232203   5.301   2.906  19.327  1.2574  1.3761 -1.3127
 2670TIP3   OH232204   5.807   5.158  17.920 -0.3575  0.6898 -0.1824
 2670TIP3    H132205   5.861   5.220  17.969  0.0559 -1.0828  1.7356
 2670TIP3    H232206   5.760   5.109  17.987 -1.9417  0.0146 -1.7061
 2671TIP3   OH232207   2.975   1.701  18.045 -0.2541  0.1146 -0.5078
 2671TIP3    H132208   3.063   1.686  18.078 -0.1090  1.4841 -0.2010
 2671TIP3    H232209   2.949   1.785  18.083 -0.7630  0.9225 -2.4971
 2672TIP3   OH232210   3.124   3.519  19.325  0.2402  0.1107  0.5897
 2672TIP3    H132211   3.140   3.446  19.266  0.0194  1.1916 -0.8526
 2672TIP3    H232212   3.156   3.488  19.410 -2.1675 -2.6314  0.6485
 2673TIP3   OH232213   3.884   3.503  17.901  0.2282 -0.7344 -0.3726
 2673TIP3    H132214   3.824   3.431  17.881  0.1351 -0.7497 -0.0518
 2673TIP3    H232215   3.844   3.580  17.861 -0.1043 -0.7101 -0.0013
 2674TIP3   OH232216   1.958   6.238  19.794  0.1359 -0.5765  0.0297
 2674TIP3    H132217   1.981   6.317  19.842  0.2760  0.8630 -2.2958
 2674TIP3    H232218   2.000   6.248  19.709  1.2532 -3.7673  0.0567
 2675TIP3   OH232219   1.336   1.356  19.833  0.0977 -0.5554  0.2472
 2675TIP3    H132220   1.273   1.408  19.882 -0.0176 -0.7900  0.3481
 2675TIP3    H232221   1.284   1.316  19.763  0.6626  1.7221 -1.6267
 2676TIP3   OH232222   5.602   2.791  19.099 -0.2627 -0.3603  0.1165
 2676TIP3    H132223   5.534   2.842  19.052  0.8077  0.2736 -0.8024
 2676TIP3    H232224   5.679   2.847  19.095  0.6151 -1.5509  0.1687
 2677TIP3   OH232225   3.402   1.417  17.512  0.1635  0.9704 -0.4165
 2677TIP3    H132226   3.375   1.395  17.601  1.1298 -0.4468 -0.4324
 2677TIP3    H232227   3.488   1.376  17.502  0.0987  1.1269 -1.9839
 2678TIP3   OH232228   3.705   1.572  17.994  0.0170  0.1862  0.5599
 2678TIP3    H132229   3.786   1.579  18.044  1.2377 -1.0615 -1.1023
 2678TIP3    H232230   3.734   1.569  17.903 -1.9583  0.2320 -0.1128
 2679TIP3   OH232231   2.817   6.471  21.251  0.1614 -0.2437 -0.7756
 2679TIP3    H132232   2.772   6.556  21.251 -0.7764 -0.7326 -0.8514
 2679TIP3    H232233   2.799   6.435  21.338  1.4083  0.0623 -0.3671
 2680TIP3   OH232234   2.819   5.808  20.013  0.2790 -0.1329  0.6136
 2680TIP3    H132235   2.754   5.847  19.954  0.6579  3.2583  2.1584
 2680TIP3    H232236   2.767   5.778  20.088  0.2506  0.6217  0.9094
 2681TIP3   OH232237   1.712   3.806  17.573  0.2101 -0.4624 -0.1677
 2681TIP3    H132238   1.713   3.793  17.478  1.2824 -0.9269 -0.1074
 2681TIP3    H232239   1.619   3.802  17.596 -0.4843  3.4351 -1.6421
 2682TIP3   OH232240   0.094   2.756  18.514  0.9623 -0.0991  0.0180
 2682TIP3    H132241   0.074   2.668  18.543 -0.0680 -0.1814 -0.8519
 2682TIP3    H232242   0.057   2.813  18.581  2.1660 -0.3247  0.8879
 2683TIP3   OH232243   5.164   4.591  19.101  0.3530  0.0188 -0.4105
 2683TIP3    H132244   5.222   4.566  19.174 -0.3262  1.7837  0.8050
 2683TIP3    H232245   5.079   4.608  19.142 -0.5639 -0.7313 -1.9054
 2684TIP3   OH232246   1.001   1.314  18.475  0.2880  0.6328 -0.7653
 2684TIP3    H132247   1.036   1.332  18.563 -3.2662  0.7610  0.7757
 2684TIP3    H232248   0.994   1.218  18.472  0.5862  0.6168 -1.0151
 2685TIP3   OH232249   5.485   5.962  17.849 -0.0467  0.0718  0.2218
 2685TIP3    H132250   5.519   5.935  17.764  1.9937  2.1061  0.2992
 2685TIP3    H232251   5.561   5.997  17.896 -1.6041  1.5131  1.8335
 2686TIP3   OH232252   4.245   6.011  19.926  0.6487 -0.0269  0.0402
 2686TIP3    H132253   4.335   5.993  19.898  1.0151  1.3521  0.2389
 2686TIP3    H232254   4.231   6.103  19.904 -0.6373 -0.1510  0.2396
 2687TIP3   OH232255   1.321   5.498  20.624 -0.0131 -0.0021 -0.0650
 2687TIP3    H132256   1.357   5.522  20.539 -1.6347  2.1801 -0.2192
 2687TIP3    H232257   1.366   5.554  20.687 -0.3216 -0.1091  0.2553
 2688TIP3   OH232258   5.243   4.068  20.497  0.1831  0.5552  0.1108
 2688TIP3    H132259   5.252   4.009  20.572 -1.5341 -0.2205 -0.2230
 2688TIP3    H232260   5.291   4.025  20.426  3.0427  1.9927  1.0448
 2689TIP3   OH232261   3.656   5.162  18.944 -0.2658  0.3756  0.3363
 2689TIP3    H132262   3.621   5.119  18.866 -0.6752  0.9203  0.2145
 2689TIP3    H232263   3.638   5.101  19.016  0.5343 -0.3437 -0.0481
 2690TIP3   OH232264   2.484   1.738  20.816 -0.6417 -0.2879 -0.4840
 2690TIP3    H132265   2.445   1.820  20.787 -2.4648 -1.7431 -2.4122
 2690TIP3    H232266   2.577   1.758  20.825 -1.0915  2.0771 -0.4879
 2691TIP3   OH232267   1.392   6.364  20.444 -0.0114 -0.4888  0.1732
 2691TIP3    H132268   1.309   6.410  20.444  0.4254  0.3579  1.5126
 2691TIP3    H232269   1.417   6.358  20.536  1.3820 -0.7787 -0.1866
 2692TIP3   OH232270   4.148   4.184  20.542 -0.4810  0.4376 -0.4735
 2692TIP3    H132271   4.235   4.174  20.580 -1.0201  1.4249  1.0875
 2692TIP3    H232272   4.146   4.274  20.509 -1.4546  1.0212  1.0582
 2693TIP3   OH232273   1.565   3.491  21.184 -0.0300 -0.4355 -0.3841
 2693TIP3    H132274   1.474   3.499  21.156 -0.5646 -0.5199  1.2610
 2693TIP3    H232275   1.609   3.564  21.139 -1.2614  0.6853  0.1443
 2694TIP3   OH232276   1.781   3.118  19.420 -0.1962 -0.2916 -0.1338
 2694TIP3    H132277   1.834   3.045  19.452  0.2351 -0.1360 -0.4808
 2694TIP3    H232278   1.733   3.081  19.346 -1.3286 -0.7008  0.7684
 2695TIP3   OH232279   4.977   5.715  19.437 -0.3419 -0.2132 -0.3181
 2695TIP3    H132280   4.889   5.750  19.422 -0.6363 -1.4779 -1.8209
 2695TIP3    H232281   4.975   5.627  19.398  1.1026 -0.9361  1.1126
 2696TIP3   OH232282   6.669   5.793  20.684 -0.1117 -0.0280  0.3779
 2696TIP3    H132283   6.725   5.791  20.761 -0.9622  0.6867  1.0348
 2696TIP3    H232284   6.584   5.824  20.716 -0.0233  1.9678 -1.1276
 2697TIP3   OH232285   2.881   1.958  17.579  0.6717  0.1804  0.4766
 2697TIP3    H132286   2.895   1.998  17.493 -0.2728 -1.5678 -0.5282
 2697TIP3    H232287   2.916   1.869  17.570  3.2068  0.8091  2.8082
 2698TIP3   OH232288   0.518   6.186  18.678  0.6415 -0.9700 -0.0394
 2698TIP3    H132289   0.471   6.113  18.718 -0.0705  0.1441  1.2353
 2698TIP3    H232290   0.455   6.258  18.678  1.2110 -0.4259 -1.5848
 2699TIP3   OH232291   0.317   0.772  20.659  0.4741 -0.0724  0.6779
 2699TIP3    H132292   0.264   0.849  20.637  1.3062  0.1991 -0.4505
 2699TIP3    H232293   0.279   0.701  20.606 -0.4445 -0.5291  1.8918
 2700TIP3   OH232294   3.947   3.156  20.314  0.2108  0.2193  0.0257
 2700TIP3    H132295   3.971   3.077  20.265  2.6131  0.0195  1.3823
 2700TIP3    H232296   3.933   3.125  20.404 -1.2393  1.0188  0.1139
 2701TIP3   OH232297   6.066   6.311  19.656 -0.6764 -0.7715  0.4095
 2701TIP3    H132298   6.041   6.279  19.570 -0.7347 -0.9915  0.5055
 2701TIP3    H232299   5.988   6.356  19.688 -0.2090  0.5058 -0.2118
 2702TIP3   OH232300   1.286   2.300  17.614 -0.3927  0.1145  0.0612
 2702TIP3    H132301   1.263   2.229  17.673 -0.0423  0.8373  1.0943
 2702TIP3    H232302   1.375   2.279  17.585  0.5711  1.1907  2.0637
 2703TIP3   OH232303   5.701   4.016  19.581  0.2447 -0.0794  0.1618
 2703TIP3    H132304   5.654   4.006  19.663 -1.9464  0.2456 -0.9814
 2703TIP3    H232305   5.638   3.993  19.513  1.6885  0.5293 -1.4842
 2704TIP3   OH232306   4.139   1.477  19.532 -0.0572 -0.6022  0.0026
 2704TIP3    H132307   4.133   1.567  19.563 -0.1579 -0.3341 -0.7636
 2704TIP3    H232308   4.065   1.467  19.473  0.2813 -1.0032 -0.3651
 2705TIP3   OH232309   5.877   4.173  18.543  0.2916 -0.4707 -0.0109
 2705TIP3    H132310   5.791   4.213  18.531  0.7342  0.8533  0.9842
 2705TIP3    H232311   5.927   4.202  18.466  0.4630  0.5422  0.4634
 2706TIP3   OH232312   6.122   5.076  18.935 -0.2265  0.1886 -0.1304
 2706TIP3    H132313   6.075   5.157  18.954 -1.2407 -0.7824  1.8895
 2706TIP3    H232314   6.053   5.009  18.932  0.9167 -1.3177  3.0418
 2707TIP3   OH232315   4.983   3.009  21.043  0.3660  0.4097 -0.1045
 2707TIP3    H132316   4.943   3.081  21.092  0.1136 -0.8055  1.5892
 2707TIP3    H232317   4.917   2.939  21.047  1.5455 -0.7193  0.3993
 2708TIP3   OH232318   3.082   4.016  19.558  0.0315 -0.1507  0.5213
 2708TIP3    H132319   3.023   4.059  19.620  1.2281  0.8961  0.9815
 2708TIP3    H232320   3.060   4.055  19.473  0.0890  0.2732  0.6990
 2709TIP3   OH232321   6.565   5.257  20.046  0.2954 -0.1017 -0.0213
 2709TIP3    H132322   6.619   5.279  20.122  0.1967  0.5135 -0.1162
 2709TIP3    H232323   6.542   5.342  20.009 -2.6189 -0.1672  1.3187
 2710TIP3   OH232324   0.790   1.375  20.410  0.6999  0.6684 -0.1298
 2710TIP3    H132325   0.785   1.436  20.336 -0.3006 -1.3039 -1.8130
 2710TIP3    H232326   0.873   1.329  20.397  0.5470  0.3572 -0.0261
 2711TIP3   OH232327   5.050   4.362  18.451  0.1416  0.1302  0.5609
 2711TIP3    H132328   5.135   4.329  18.422  0.8776  1.6768  0.8488
 2711TIP3    H232329   4.992   4.286  18.446  1.1873 -0.6149 -1.0231
 2712TIP3   OH232330   1.679   5.990  19.025  0.2232  0.3238  0.4875
 2712TIP3    H132331   1.625   5.957  18.953  2.0552  1.4462 -1.5295
 2712TIP3    H232332   1.634   5.960  19.104 -0.5141 -3.2577 -1.0745
 2713TIP3   OH232333   4.697   5.533  20.122  0.2301  0.9959 -0.1575
 2713TIP3    H132334   4.715   5.553  20.214 -0.6767 -1.2750  0.5731
 2713TIP3    H232335   4.761   5.465  20.098 -1.1446 -0.2811 -0.3844
 2714TIP3   OH232336   6.439   0.212  20.057 -0.3163 -0.1263  0.4095
 2714TIP3    H132337   6.437   0.192  20.151 -0.2866 -1.7645  0.0879
 2714TIP3    H232338   6.523   0.179  20.028  0.2870  1.6524  0.0403
 2715TIP3   OH232339   3.552   0.202  19.169 -0.1274 -0.1510 -0.4841
 2715TIP3    H132340   3.546   0.113  19.134 -1.2654 -0.1058 -0.4541
 2715TIP3    H232341   3.643   0.211  19.198 -0.0431 -1.3702 -0.3254
 2716TIP3   OH232342   5.753   2.653  18.150 -0.0947  0.0020  0.2298
 2716TIP3    H132343   5.820   2.722  18.151 -0.3026  0.3312 -2.2003
 2716TIP3    H232344   5.672   2.698  18.174  0.3000 -0.1331  1.9200
 2717TIP3   OH232345   6.248   3.768  19.993 -0.2748 -0.2001  0.1840
 2717TIP3    H132346   6.264   3.852  19.949 -1.9048  0.2384  0.3415
 2717TIP3    H232347   6.278   3.702  19.930  0.3609  0.4859 -0.2519
 2718TIP3   OH232348   5.479   2.166  18.171 -0.0600 -0.0906  0.0038
 2718TIP3    H132349   5.453   2.214  18.092  3.4035 -1.2989 -2.1461
 2718TIP3    H232350   5.551   2.217  18.208  0.0213 -0.8289  0.9060
 2719TIP3   OH232351   1.494   1.257  18.321 -0.4004 -0.1086 -0.2716
 2719TIP3    H132352   1.421   1.198  18.303 -1.9565  1.8409 -0.6904
 2719TIP3    H232353   1.517   1.294  18.236  0.0884  0.4002  0.0754
 2720TIP3   OH232354   6.153   0.750  19.850 -0.0975  0.0234  0.2631
 2720TIP3    H132355   6.101   0.718  19.777 -0.2176 -0.5408  0.5917
 2720TIP3    H232356   6.209   0.677  19.874 -0.5634 -0.0470  1.1893
 2721TIP3   OH232357   3.397   5.379  20.036  0.4328 -0.0644 -0.0796
 2721TIP3    H132358   3.404   5.305  20.096  0.4997  0.7134  0.9004
 2721TIP3    H232359   3.310   5.416  20.052  1.1088  1.2257  0.8787
 2722TIP3   OH232360   0.259   0.176  19.220  0.3189 -0.2392 -0.3159
 2722TIP3    H132361   0.300   0.120  19.154 -1.2530 -1.2327 -0.5169
 2722TIP3    H232362   0.255   0.262  19.179  0.5875 -0.5404 -0.9974
 2723TIP3   OH232363   4.126   1.628  17.924 -0.2664  0.5637 -0.4039
 2723TIP3    H132364   4.208   1.585  17.946 -0.4773  1.4826  2.5617
 2723TIP3    H232365   4.097   1.585  17.843  3.2850  0.5339 -1.8296
 2724TIP3   OH232366   1.199   5.227  19.491  0.5968  0.5797  0.1047
 2724TIP3    H132367   1.244   5.150  19.528  0.3295  0.6489  0.5876
 2724TIP3    H232368   1.253   5.254  19.417  0.7605 -0.0000  0.0096
 2725TIP3   OH232369   0.341   0.382  20.711  0.1311  0.2710  0.2021
 2725TIP3    H132370   0.308   0.317  20.773  0.4056 -0.5616 -0.5178
 2725TIP3    H232371   0.278   0.454  20.716  0.6189  0.6436  2.1253
 2726TIP3   OH232372   5.977   4.575  19.192 -0.2377 -0.1021 -0.3252
 2726TIP3    H132373   6.041   4.567  19.121  1.2628 -1.0805  1.0737
 2726TIP3    H232374   5.924   4.495  19.185  0.0491 -0.3039 -0.2203
 2727TIP3   OH232375   3.152   0.543  20.118  0.0751 -0.4225  0.2021
 2727TIP3    H132376   3.135   0.551  20.212 -0.0869 -0.9832  0.2263
 2727TIP3    H232377   3.234   0.591  20.104 -1.1248  1.7495  0.1944
 2728TIP3   OH232378   0.015   2.544  18.690  0.4855  0.0265 -0.2591
 2728TIP3    H132379   0.024   2.501  18.775  1.6504 -0.0723 -0.4105
 2728TIP3    H232380  -0.034   2.482  18.636  0.2171 -0.1442  0.1802
 2729TIP3   OH232381   5.040   0.806  19.567 -0.3110  0.2220  0.2090
 2729TIP3    H132382   5.134   0.785  19.567  0.1533  1.9424  2.2778
 2729TIP3    H232383   5.000   0.738  19.620 -0.0832 -0.0034  0.0953
 2730TIP3   OH232384   3.341   0.112  18.894  0.1015 -0.5076 -0.0092
 2730TIP3    H132385   3.344   0.186  18.833 -1.6192 -0.0325  0.4516
 2730TIP3    H232386   3.410   0.053  18.862 -0.6717 -0.2361 -2.3635
 2731TIP3   OH232387   1.216   1.588  19.984 -0.3118  0.8771 -0.1265
 2731TIP3    H132388   1.148   1.540  20.031  1.3891 -1.2240  0.3363
 2731TIP3    H232389   1.262   1.637  20.053 -0.8878  1.7480 -0.3444
 2732TIP3   OH232390   3.654   2.631  18.028 -0.3444  0.3755  0.1391
 2732TIP3    H132391   3.740   2.624  17.985 -0.6946 -0.3038 -0.4718
 2732TIP3    H232392   3.641   2.545  18.068 -1.6781 -0.2647 -1.5863
 2733TIP3   OH232393   6.529   6.349  18.077 -0.2916  0.3067  0.1309
 2733TIP3    H132394   6.506   6.360  18.170  0.2838  2.1666  0.1053
 2733TIP3    H232395   6.513   6.435  18.039  1.5958  0.2092 -1.0075
 2734TIP3   OH232396   2.002   4.605  21.156  0.1552 -0.2983  0.4827
 2734TIP3    H132397   1.958   4.678  21.112  0.4889 -0.7962 -0.7088
 2734TIP3    H232398   2.093   4.611  21.128 -0.0474 -1.9025 -0.6874
 2735TIP3   OH232399   3.744   1.668  18.773  0.3267 -0.1998 -0.2598
 2735TIP3    H132400   3.787   1.703  18.694 -0.9940 -0.0582 -0.9408
 2735TIP3    H232401   3.703   1.587  18.744  1.8614 -1.4351  0.8933
 2736TIP3   OH232402   4.716   6.385  18.250  0.2734 -0.4945  0.3226
 2736TIP3    H132403   4.678   6.431  18.175  0.8007 -0.9039 -0.2116
 2736TIP3    H232404   4.809   6.378  18.229  0.4459 -0.5159  1.0751
 2737TIP3   OH232405   2.642   1.143  18.711  0.1872 -0.5731 -0.5839
 2737TIP3    H132406   2.563   1.168  18.759  0.1322  1.2311 -1.5089
 2737TIP3    H232407   2.710   1.137  18.778  0.0823  1.7403 -0.1902
 2738TIP3   OH232408   1.040   4.845  20.273  0.2044  0.6471 -0.4275
 2738TIP3    H132409   0.960   4.826  20.321  0.2902  1.2142 -0.0358
 2738TIP3    H232410   1.087   4.907  20.330  1.9891 -1.3860  0.4352
 2739TIP3   OH232411   6.435   3.863  20.193 -0.0970 -0.1662  0.0455
 2739TIP3    H132412   6.370   3.857  20.123  0.6802  0.4621 -0.7504
 2739TIP3    H232413   6.509   3.812  20.162  0.6140  0.8653 -0.0154
 2740TIP3   OH232414   1.386   6.236  20.714 -0.2662 -0.0927  0.0467
 2740TIP3    H132415   1.345   6.307  20.763 -0.6752  0.4164 -1.0010
 2740TIP3    H232416   1.312   6.180  20.688 -0.0195 -0.5273  0.2783
 2741TIP3   OH232417   2.831   2.105  18.030  0.1038  0.6725  0.3085
 2741TIP3    H132418   2.845   2.075  18.120  0.1253 -0.5719 -0.0953
 2741TIP3    H232419   2.891   2.052  17.977 -0.7271  0.5869 -0.5698
 2742TIP3   OH232420   6.087   3.938  20.498 -0.1655  0.1968  0.8095
 2742TIP3    H132421   6.027   3.935  20.423 -0.3597 -0.0408  0.9705
 2742TIP3    H232422   6.157   3.997  20.470  0.1727 -0.5027  0.1325
 2743TIP3   OH232423   3.880   0.202  20.911  0.1263 -0.1077  0.5372
 2743TIP3    H132424   3.934   0.262  20.859 -1.5004  1.0711  0.1274
 2743TIP3    H232425   3.939   0.169  20.978  1.8531 -0.3564 -1.0143
 2744TIP3   OH232426   2.314   0.154  18.683  0.2236 -0.4830  0.1895
 2744TIP3    H132427   2.330   0.117  18.596 -1.6582  0.7068 -0.7261
 2744TIP3    H232428   2.240   0.104  18.717 -1.0410  1.0227 -0.2267
 2745TIP3   OH232429   4.831   5.809  20.108  0.1815  0.1237 -0.3398
 2745TIP3    H132430   4.897   5.754  20.066 -0.3048  1.1853 -2.6595
 2745TIP3    H232431   4.757   5.751  20.123  1.3025 -0.9124  1.6543
 2746TIP3   OH232432   6.212   6.434  18.108  0.3166 -0.6273 -0.3622
 2746TIP3    H132433   6.119   6.412  18.115  0.6444 -2.8035 -1.6454
 2746TIP3    H232434   6.214   6.517  18.061 -0.9700 -0.2842  0.1479
 2747TIP3   OH232435   4.535   1.936  18.649  0.2400 -0.1736 -0.3181
 2747TIP3    H132436   4.591   1.886  18.709 -2.2370 -1.1614  1.3341
 2747TIP3    H232437   4.590   1.952  18.573  2.9235 -0.6049  1.3884
 2748TIP3   OH232438   1.653   3.240  18.314  0.4500  0.1683  1.3177
 2748TIP3    H132439   1.723   3.251  18.250 -0.4504 -1.7807 -0.1064
 2748TIP3    H232440   1.605   3.323  18.311  0.1542 -0.0195 -0.9475
 2749TIP3   OH232441   2.240   1.840  20.234  0.2197  0.3290  0.1914
 2749TIP3    H132442   2.314   1.892  20.206  1.4801 -1.1106  0.7067
 2749TIP3    H232443   2.255   1.753  20.195 -1.4237  0.1257 -0.0616
 2750TIP3   OH232444   2.544   5.896  18.413  0.5782  0.3102 -0.3586
 2750TIP3    H132445   2.515   5.813  18.375  1.2568 -0.8436  1.4929
 2750TIP3    H232446   2.484   5.911  18.486  0.0266  1.8551 -1.0821
 2751TIP3   OH232447   1.610   4.323  18.796 -0.3554 -0.1047  0.0810
 2751TIP3    H132448   1.684   4.382  18.780 -0.8142  0.5289  0.2858
 2751TIP3    H232449   1.639   4.268  18.869 -0.7054  1.2587  1.3035
 2752TIP3   OH232450   0.251   0.609  19.937  0.1381  0.0193  0.0114
 2752TIP3    H132451   0.198   0.684  19.909  0.6897  1.2295  1.9696
 2752TIP3    H232452   0.341   0.643  19.939  0.5015 -0.9253  0.1973
 2753TIP3   OH232453   2.419   5.021  19.216 -0.0402 -0.0890 -0.0072
 2753TIP3    H132454   2.454   4.932  19.223  0.9656  0.2850 -0.1707
 2753TIP3    H232455   2.366   5.032  19.295  1.0714 -0.3094  0.7915
 2754TIP3   OH232456   6.468   6.546  19.563 -0.1956 -0.7308  0.1481
 2754TIP3    H132457   6.394   6.499  19.524  0.6762 -1.5933 -0.5237
 2754TIP3    H232458   6.515   6.583  19.488  0.4339 -0.7753  0.5111
 2755TIP3   OH232459   2.032   3.153  19.750 -0.4355 -0.1157  0.4233
 2755TIP3    H132460   1.979   3.115  19.821 -1.0890 -0.5689 -0.2929
 2755TIP3    H232461   2.072   3.078  19.707 -0.8443  0.0733 -0.3069
 2756TIP3   OH232462   3.717   4.280  20.115  0.2148  0.1632 -0.7473
 2756TIP3    H132463   3.750   4.196  20.085  0.3013 -0.0173 -0.1553
 2756TIP3    H232464   3.793   4.323  20.155 -0.3589 -0.5243  1.2195
 2757TIP3   OH232465   5.392   2.944  18.946 -0.0591 -0.1467  0.4694
 2757TIP3    H132466   5.473   2.994  18.957  0.1004  0.1210 -1.6155
 2757TIP3    H232467   5.355   2.975  18.864 -0.7597 -2.3522 -0.1252
 2758TIP3   OH232468   0.772   0.867  18.278  0.2500 -0.0950 -0.3226
 2758TIP3    H132469   0.699   0.838  18.223  1.6947 -0.5639 -2.0587
 2758TIP3    H232470   0.837   0.901  18.217  2.4391 -1.7565  0.9287
 2759TIP3   OH232471   5.047   0.073  20.444  0.3827  0.8478  0.4473
 2759TIP3    H132472   5.063   0.071  20.539  0.4999  0.5645  0.4244
 2759TIP3    H232473   5.008   0.158  20.428 -3.1557 -0.4432  1.3334
 2760TIP3   OH232474   5.379   1.355  18.712  0.3824  0.4770 -0.6582
 2760TIP3    H132475   5.360   1.400  18.794  0.1755 -0.4131 -0.2153
 2760TIP3    H232476   5.346   1.267  18.724  1.9378 -0.1935 -1.0517
 2761TIP3   OH232477   2.600   5.188  20.394 -0.2366 -0.5574  0.1507
 2761TIP3    H132478   2.584   5.137  20.474 -0.1653  0.5068  0.8714
 2761TIP3    H232479   2.667   5.252  20.419 -0.7110  0.2458 -0.5546
 2762TIP3   OH232480   2.563   6.663  19.302  0.1569  0.5444  0.7446
 2762TIP3    H132481   2.478   6.674  19.344  0.1676  0.0174  0.9054
 2762TIP3    H232482   2.609   6.746  19.318 -0.8240  1.3855 -0.5076
 2763TIP3   OH232483   5.399   2.779  20.012 -0.2703 -0.0521 -0.0670
 2763TIP3    H132484   5.385   2.721  20.086  0.7225 -1.9341 -1.2608
 2763TIP3    H232485   5.494   2.777  19.998 -0.4033  0.5498 -1.1404
 2764TIP3   OH232486   5.962   5.123  18.486 -0.4813  0.0559 -0.0322
 2764TIP3    H132487   5.971   5.037  18.445 -2.7743  0.3334 -1.3009
 2764TIP3    H232488   5.906   5.173  18.426 -1.0450  1.6915  1.7304
 2765TIP3   OH232489   0.513   1.410  20.967 -0.4779  0.6677 -0.3734
 2765TIP3    H132490   0.573   1.446  21.032  1.4073 -1.9790 -0.4912
 2765TIP3    H232491   0.500   1.319  20.993 -2.8310  0.5821 -1.5537
 2766TIP3   OH232492   0.633   2.467  18.576  0.5987 -0.1706 -0.2725
 2766TIP3    H132493   0.699   2.516  18.527  0.1106  1.4439  0.6283
 2766TIP3    H232494   0.560   2.527  18.585 -1.2290 -2.0586 -1.6207
 2767TIP3   OH232495   6.119   3.828  19.427  0.0634 -0.3011 -0.5641
 2767TIP3    H132496   6.083   3.845  19.514  1.2575  1.9122 -0.4088
 2767TIP3    H232497   6.050   3.854  19.367  0.2591  1.0511 -0.2480
 2768TIP3   OH232498   5.316   1.146  20.475  0.5394 -0.1775 -0.2733
 2768TIP3    H132499   5.311   1.056  20.508  3.0659 -0.6096 -0.8332
 2768TIP3    H232500   5.345   1.137  20.384 -1.5527  1.1692 -1.1444
 2769TIP3   OH232501   2.702   2.338  18.048 -0.1074 -0.1360  0.1281
 2769TIP3    H132502   2.762   2.399  18.007 -0.1640  0.0703  0.3493
 2769TIP3    H232503   2.743   2.252  18.037  0.2759  0.0164  0.3687
 2770TIP3   OH232504   5.401   3.631  19.424 -0.4613 -0.2731  0.1110
 2770TIP3    H132505   5.424   3.724  19.425 -0.1129 -0.3422 -0.4897
 2770TIP3    H232506   5.313   3.628  19.385 -0.7389 -0.1521  0.7134
 2771TIP3   OH232507   3.479   4.415  19.709 -0.2336  0.4272  0.1179
 2771TIP3    H132508   3.397   4.380  19.743 -0.2532  0.8083  0.4698
 2771TIP3    H232509   3.540   4.408  19.783 -0.4572  1.8911  0.4735
 2772TIP3   OH232510   4.789   1.669  20.814  0.9421  0.5304 -0.1707
 2772TIP3    H132511   4.874   1.646  20.851 -0.0603 -2.1160  0.6775
 2772TIP3    H232512   4.733   1.684  20.890 -0.2576 -1.5032 -0.5896
 2773TIP3   OH232513   2.004   2.717  18.334 -0.2522 -0.5264 -0.2622
 2773TIP3    H132514   1.963   2.712  18.247  1.2150 -1.2066 -0.9444
 2773TIP3    H232515   2.025   2.810  18.344  0.8452 -0.6327 -1.2839
 2774TIP3   OH232516   2.304   2.215  20.025  0.4805 -0.4279 -0.2403
 2774TIP3    H132517   2.234   2.273  19.997  0.7870  0.0902  0.0639
 2774TIP3    H232518   2.292   2.207  20.120 -1.1115 -2.8868 -0.5290
 2775TIP3   OH232519   2.407   6.271  20.327 -0.1659 -0.0147 -0.3132
 2775TIP3    H132520   2.380   6.180  20.340  1.0417 -0.5322 -1.2630
 2775TIP3    H232521   2.431   6.301  20.415 -1.4859 -0.2850  0.1654
 2776TIP3   OH232522   5.566   2.681  17.588  0.4329  0.1507 -0.2348
 2776TIP3    H132523   5.505   2.719  17.525  1.5721  0.7314 -1.0195
 2776TIP3    H232524   5.649   2.725  17.571  0.9819 -0.3143  1.0970
 2777TIP3   OH232525   5.868   2.914  20.790  0.4679  0.0445  0.3857
 2777TIP3    H132526   5.851   2.826  20.822  0.4911 -0.5419 -1.1053
 2777TIP3    H232527   5.963   2.920  20.783  0.7123  1.3490  3.4499
 2778TIP3   OH232528   5.352   5.687  20.841  0.3691 -0.1476  0.4268
 2778TIP3    H132529   5.334   5.735  20.760  0.3949 -1.5308 -0.4393
 2778TIP3    H232530   5.424   5.735  20.882  0.7599  0.2561 -0.6820
 2779TIP3   OH232531   1.843   4.405  21.145  0.2179  0.4438 -0.4158
 2779TIP3    H132532   1.889   4.324  21.121  0.5326  0.3365  0.4957
 2779TIP3    H232533   1.913   4.470  21.155 -0.0555  0.9028 -1.3847
 2780TIP3   OH232534   3.457   1.720  18.631 -0.0065  0.2014  0.4136
 2780TIP3    H132535   3.518   1.794  18.637  0.8821 -0.5085  0.1966
 2780TIP3    H232536   3.478   1.678  18.548 -0.1865 -0.5778  0.7577
 2781TIP3   OH232537   0.561   0.103  20.141  0.3912  0.0654 -0.3276
 2781TIP3    H132538   0.591   0.191  20.118 -0.9660  1.1524  1.7511
 2781TIP3    H232539   0.537   0.109  20.234 -0.1829 -2.3929 -0.2342
 2782TIP3   OH232540   4.357   0.664  17.776  0.5242  0.0390  0.4628
 2782TIP3    H132541   4.403   0.612  17.842  1.0701  0.7637  0.6687
 2782TIP3    H232542   4.423   0.725  17.743 -0.5563  1.8859  1.5847
 2783TIP3   OH232543   1.537   5.746  18.477  0.0309 -0.2734  0.0366
 2783TIP3    H132544   1.485   5.814  18.435  1.0668  0.6758  0.2487
 2783TIP3    H232545   1.593   5.793  18.538  0.5805 -1.3466  0.3821
 2784TIP3   OH232546   6.680   5.244  18.735 -0.1610 -0.3876 -0.0007
 2784TIP3    H132547   6.589   5.271  18.721  0.3375  0.6908 -1.3524
 2784TIP3    H232548   6.708   5.297  18.810 -0.6825 -0.8636  0.5465
 2785TIP3   OH232549   4.705   6.020  20.959 -0.4550 -0.6934  0.0279
 2785TIP3    H132550   4.630   6.012  20.901  0.2800 -0.4243 -0.9808
 2785TIP3    H232551   4.708   6.113  20.981 -0.1833 -0.6356 -0.2531
 2786TIP3   OH232552   3.335   0.078  20.509  0.4968  0.8950  0.2346
 2786TIP3    H132553   3.394   0.112  20.576  1.4708  1.0866 -0.6922
 2786TIP3    H232554   3.279   0.016  20.556  1.9908  0.0650  0.9940
 2787TIP3   OH232555   1.956   2.276  19.053  0.0870  0.2158 -0.2085
 2787TIP3    H132556   1.958   2.186  19.084  1.5458 -0.6242 -2.4417
 2787TIP3    H232557   1.980   2.329  19.129  0.4542 -1.3880  0.8371
 2788TIP3   OH232558   6.672   4.416  19.439  0.1413 -0.2764  0.7084
 2788TIP3    H132559   6.669   4.510  19.456  3.7849  0.3156 -0.9495
 2788TIP3    H232560   6.731   4.382  19.506  1.6638 -0.6968 -0.7851
 2789TIP3   OH232561   3.080   2.297  20.285  0.3423 -0.1115  0.3269
 2789TIP3    H132562   3.091   2.358  20.358 -2.0363  0.2132  0.4940
 2789TIP3    H232563   3.026   2.345  20.222 -0.7136 -1.6467 -0.0020
 2790TIP3   OH232564   1.179   3.225  19.773 -0.5092 -0.2330  0.5447
 2790TIP3    H132565   1.272   3.215  19.796 -1.4024 -0.7216  4.8483
 2790TIP3    H232566   1.156   3.142  19.731  0.4612 -1.3165  2.0308
 2791TIP3   OH232567   4.192   1.112  18.372  0.3376  0.2256  0.4917
 2791TIP3    H132568   4.265   1.088  18.429  0.7545  1.7995  0.6880
 2791TIP3    H232569   4.115   1.108  18.429  0.9487  3.4203  1.7827
 2792TIP3   OH232570   0.940   3.804  19.726  0.2325 -0.4583 -0.0722
 2792TIP3    H132571   1.018   3.749  19.725  1.0090  0.6033 -0.4435
 2792TIP3    H232572   0.869   3.747  19.698  0.3229 -2.2007  2.9153
 2793TIP3   OH232573   0.004   0.597  20.581  0.3066  0.5437 -0.1933
 2793TIP3    H132574   0.062   0.601  20.657 -0.1034  3.2953  0.0717
 2793TIP3    H232575  -0.012   0.503  20.568  2.6022 -0.1474  1.3738
 2794TIP3   OH232576   0.768   5.784  19.201  0.2745  0.0530 -0.3862
 2794TIP3    H132577   0.707   5.784  19.275  0.6889  0.3038 -0.0456
 2794TIP3    H232578   0.756   5.869  19.160  1.1498  0.5315  0.3112
 2795TIP3   OH232579   3.699   3.162  21.009  0.0264  0.0938  0.1578
 2795TIP3    H132580   3.688   3.167  20.914 -0.9571  0.1341  0.2633
 2795TIP3    H232581   3.698   3.068  21.028  1.7781  0.0088 -0.0232
 2796TIP3   OH232582   1.087   2.850  17.504 -0.4826 -0.5671 -0.2030
 2796TIP3    H132583   1.127   2.937  17.506 -0.7702 -0.4440  0.2955
 2796TIP3    H232584   1.041   2.842  17.587  0.6593 -1.7464  0.3425
 2797TIP3   OH232585   1.645   1.567  20.243 -0.7780  0.1283  0.2544
 2797TIP3    H132586   1.589   1.495  20.273  1.7996 -2.0273  0.2374
 2797TIP3    H232587   1.684   1.602  20.323 -0.8686  0.5190  0.1299
 2798TIP3   OH232588   3.405   6.642  20.945  0.0658  0.1931 -0.0642
 2798TIP3    H132589   3.460   6.564  20.958  0.0128 -0.2331 -2.0640
 2798TIP3    H232590   3.316   6.608  20.945 -0.0365  0.4580  0.3498
 2799TIP3   OH232591   3.630   4.406  17.523 -0.1055 -0.2037 -0.0309
 2799TIP3    H132592   3.660   4.362  17.602 -1.3009  0.7769  1.0035
 2799TIP3    H232593   3.566   4.345  17.484 -0.5825 -0.0714  0.5384
 2800TIP3   OH232594   1.990   3.540  20.258 -0.5804  0.0585  0.4638
 2800TIP3    H132595   1.960   3.547  20.167 -1.8863 -2.1333  0.6593
 2800TIP3    H232596   2.085   3.546  20.252 -0.7108  1.7840 -0.8106
 2801TIP3   OH232597   4.980   1.822  18.623 -0.1646 -0.3479 -0.1135
 2801TIP3    H132598   5.064   1.811  18.579  0.0958  2.4251 -0.4516
 2801TIP3    H232599   4.920   1.849  18.554 -0.5109  0.9472  0.6618
 2802TIP3   OH232600   5.240   0.213  17.674  0.2623 -0.0868 -0.5949
 2802TIP3    H132601   5.203   0.162  17.602 -1.1712  0.8063 -0.5220
 2802TIP3    H232602   5.284   0.286  17.631 -0.7604  0.5540 -0.5931
 2803TIP3   OH232603   1.508   5.208  20.908  0.3680  0.1012  0.0334
 2803TIP3    H132604   1.534   5.282  20.852  1.9144 -0.4521 -0.0368
 2803TIP3    H232605   1.415   5.195  20.889 -0.5731  3.3529  1.5972
 2804TIP3   OH232606   2.925   0.612  18.750 -0.8387  0.7440  0.5065
 2804TIP3    H132607   2.938   0.519  18.766 -0.3787  0.9501  1.4051
 2804TIP3    H232608   2.860   0.616  18.680  1.7236 -0.2894 -2.0943
 2805TIP3   OH232609   3.554   4.340  19.297  0.1848 -0.2258  0.1224
 2805TIP3    H132610   3.478   4.302  19.253  0.5080  0.9797 -1.5873
 2805TIP3    H232611   3.620   4.270  19.294  0.1766 -0.1999 -1.3055
 2806TIP3   OH232612   4.572   6.225  20.654  0.3402  0.2818  0.3543
 2806TIP3    H132613   4.531   6.146  20.689 -1.2773  1.1364  0.4769
 2806TIP3    H232614   4.513   6.254  20.585 -0.2627  2.5751  1.7524
 2807TIP3   OH232615   4.071   4.898  19.460  0.4321 -0.1569 -0.2084
 2807TIP3    H132616   4.071   4.908  19.365  0.2673  0.7208 -0.1187
 2807TIP3    H232617   4.075   4.987  19.494  0.3992 -0.4593  0.6103
 2808TIP3   OH232618   6.057   2.622  19.832  0.3491 -0.1213  0.3698
 2808TIP3    H132619   6.089   2.534  19.853  0.4003 -0.1835  0.0423
 2808TIP3    H232620   6.135   2.676  19.832  0.7815 -0.5944 -2.1676
 2809TIP3   OH232621   2.181   6.168  21.172  0.0820 -0.4809 -0.4564
 2809TIP3    H132622   2.215   6.106  21.236 -0.3410 -2.0737 -1.7052
 2809TIP3    H232623   2.100   6.202  21.211 -0.1335 -1.3734 -0.1226
 2810TIP3   OH232624   0.608   1.735  20.637  0.7290 -0.1091 -0.4801
 2810TIP3    H132625   0.604   1.828  20.658  1.0107 -0.1563 -0.2072
 2810TIP3    H232626   0.593   1.731  20.542 -1.6432  0.0122 -0.1672
 2811TIP3   OH232627   2.501   4.121  21.099 -0.0399  0.2970 -0.5364
 2811TIP3    H132628   2.591   4.128  21.066  0.5744  0.3869  1.0903
 2811TIP3    H232629   2.470   4.212  21.102  0.0332  0.3199 -0.4889
 2812TIP3   OH232630   1.987   6.110  20.563  0.6642  0.2134 -0.3307
 2812TIP3    H132631   2.010   6.093  20.471 -0.7058 -2.9416 -0.2277
 2812TIP3    H232632   2.036   6.043  20.612 -0.9413 -0.1285  0.8803
 2813TIP3   OH232633   3.152   1.429  17.720 -0.2124 -0.0128 -0.4517
 2813TIP3    H132634   3.204   1.395  17.792  0.5825  1.1611 -0.4517
 2813TIP3    H232635   3.151   1.359  17.655  0.8680 -0.2695 -0.1983
 2814TIP3   OH232636   3.038   4.238  20.644 -0.0135  0.1488  0.4497
 2814TIP3    H132637   3.100   4.307  20.619 -0.8217  0.9198  0.5325
 2814TIP3    H232638   3.044   4.232  20.739  0.9159 -0.7374  0.3541
 2815TIP3   OH232639   1.739   2.073  17.423 -0.1693 -0.0242  0.4501
 2815TIP3    H132640   1.794   2.043  17.350 -1.4852  1.7651 -1.3876
 2815TIP3    H232641   1.682   1.998  17.442 -0.8981 -0.0319 -1.5191
 2816TIP3   OH232642   6.359   0.647  19.547  0.5558 -1.0647  0.6093
 2816TIP3    H132643   6.453   0.631  19.534  0.6838  0.7817 -1.0648
 2816TIP3    H232644   6.355   0.719  19.609  0.2357 -1.2502  0.8063
 2817TIP3   OH232645   4.414   0.528  20.467  0.3380  0.1976  0.4434
 2817TIP3    H132646   4.390   0.563  20.553 -1.8238  0.4726 -0.2271
 2817TIP3    H232647   4.473   0.594  20.430 -1.3793  1.7622  0.3785
 2818TIP3   OH232648   4.932   6.466  19.286 -0.3032 -0.0273  0.2473
 2818TIP3    H132649   5.027   6.470  19.295 -0.4810  0.8257  2.2779
 2818TIP3    H232650   4.901   6.422  19.366 -1.7100  1.5507  0.6415
 2819TIP3   OH232651   5.283   0.864  18.416 -0.2699  0.0956  0.7728
 2819TIP3    H132652   5.344   0.917  18.468  0.1266  2.0453 -1.4804
 2819TIP3    H232653   5.337   0.791  18.385  0.2506  0.4235  0.8751
 2820TIP3   OH232654   3.554   6.121  19.450  0.4549 -0.0388 -0.5914
 2820TIP3    H132655   3.532   6.039  19.405  1.0092 -0.0837 -0.7861
 2820TIP3    H232656   3.615   6.095  19.518  0.5354  0.1988 -0.5729
 2821TIP3   OH232657   2.707   4.230  19.388 -0.3008 -0.3722  0.8871
 2821TIP3    H132658   2.742   4.283  19.459 -0.2327  0.9787 -0.1236
 2821TIP3    H232659   2.656   4.291  19.334 -1.7781 -1.7117  0.6986
 2822TIP3   OH232660   4.479   4.295  17.884 -0.7440  0.0273 -0.1614
 2822TIP3    H132661   4.539   4.225  17.858  0.5461  0.5818  1.1577
 2822TIP3    H232662   4.497   4.366  17.823 -1.2313 -0.3741 -0.7806
 2823TIP3   OH232663   5.947   5.767  20.054 -0.3483  0.1320  0.0024
 2823TIP3    H132664   5.924   5.761  20.147  0.7627 -0.3500  0.2646
 2823TIP3    H232665   5.969   5.859  20.041 -3.0022  0.7785 -0.4316
 2824TIP3   OH232666   4.032   5.367  17.571  0.5844 -0.7180 -0.0662
 2824TIP3    H132667   4.064   5.277  17.572  0.3545 -0.8163 -1.0286
 2824TIP3    H232668   4.097   5.416  17.621  1.2885 -1.2292 -0.4738
 2825TIP3   OH232669   2.264   3.952  18.120  0.1579 -0.4577  1.1845
 2825TIP3    H132670   2.318   4.027  18.098  2.0745 -1.8057  1.0030
 2825TIP3    H232671   2.179   3.972  18.082  0.9235  1.1130  0.1567
 2826TIP3   OH232672   2.981   5.258  19.056  0.7894  0.4084  0.0961
 2826TIP3    H132673   2.980   5.229  19.147  1.2552 -0.5551 -0.1906
 2826TIP3    H232674   2.999   5.178  19.006 -1.8518  0.4321 -1.0455
 2827TIP3   OH232675   1.337   0.208  18.756  0.2389 -0.2816 -0.3471
 2827TIP3    H132676   1.342   0.114  18.775  0.7241 -0.1986 -0.0333
 2827TIP3    H232677   1.366   0.250  18.837 -0.2463  0.1495 -0.3886
 2828TIP3   OH232678   3.281   0.169  20.254 -0.3709  0.0125 -0.1011
 2828TIP3    H132679   3.333   0.248  20.238  0.1895 -0.4781 -0.8026
 2828TIP3    H232680   3.296   0.149  20.346  1.8489 -0.8893 -0.5754
 2829TIP3   OH232681   3.660   1.946  19.617 -0.6935  0.3203 -0.8378
 2829TIP3    H132682   3.645   2.031  19.576 -0.2190  0.7844 -0.0744
 2829TIP3    H232683   3.736   1.959  19.673 -0.7148 -0.5650 -0.5767
 2830TIP3   OH232684   5.817   1.985  17.377 -0.1024 -0.2631  0.1806
 2830TIP3    H132685   5.752   2.032  17.324 -0.0080 -1.4439 -1.0450
 2830TIP3    H232686   5.847   1.914  17.320  3.8031  1.4067 -0.1683
 2831TIP3   OH232687   1.486   1.113  20.820 -0.1419 -0.2039 -0.2532
 2831TIP3    H132688   1.526   1.047  20.764 -1.0731  0.2633 -1.5058
 2831TIP3    H232689   1.392   1.110  20.799 -0.4242  0.4264  0.8125
 2832TIP3   OH232690   1.412   4.165  19.918  0.5423 -0.3478 -0.3798
 2832TIP3    H132691   1.454   4.088  19.957  1.8340  0.0588 -0.9444
 2832TIP3    H232692   1.406   4.144  19.825 -1.2661 -0.7261 -0.2260
 2833TIP3   OH232693   1.909   3.507  19.301 -0.0860  0.4275 -0.7418
 2833TIP3    H132694   1.921   3.602  19.309  1.0646  0.1786  1.1638
 2833TIP3    H232695   1.868   3.482  19.384 -1.6743 -0.5924 -1.7885
 2834TIP3   OH232696   6.186   2.673  18.547  0.3036  0.3998 -0.1484
 2834TIP3    H132697   6.128   2.650  18.475  0.5028  2.5561 -1.0730
 2834TIP3    H232698   6.213   2.589  18.584  0.3251 -0.7937 -2.6774
 2835TIP3   OH232699   6.419   2.249  20.767  0.3475  0.7311 -0.0209
 2835TIP3    H132700   6.426   2.265  20.673  0.3722  3.3405  0.3604
 2835TIP3    H232701   6.389   2.332  20.803  1.6919  0.2236  2.4588
 2836TIP3   OH232702   2.963   5.804  19.713 -0.1696  0.6505 -0.2244
 2836TIP3    H132703   2.908   5.875  19.680 -0.0912  0.0291 -1.8322
 2836TIP3    H232704   3.052   5.839  19.711  0.0444  0.1342 -2.3412
 2837TIP3   OH232705   5.723   3.660  21.140 -0.0071 -0.5493 -0.3137
 2837TIP3    H132706   5.725   3.682  21.047 -0.4235 -1.7794 -0.6250
 2837TIP3    H232707   5.749   3.569  21.144 -1.6405 -1.0199  0.5885
 2838TIP3   OH232708   6.601   0.352  19.121 -0.0489  0.2649  0.3246
 2838TIP3    H132709   6.561   0.356  19.207  0.2049  1.5748  0.4048
 2838TIP3    H232710   6.678   0.408  19.128  0.2647 -0.0275 -0.6088
 2839TIP3   OH232711   0.977   0.983  19.298 -0.0328  0.0829 -0.0168
 2839TIP3    H132712   1.008   1.067  19.267 -0.0366  0.8474  1.9039
 2839TIP3    H232713   1.056   0.930  19.308  0.1028  0.2670 -0.1140
 2840TIP3   OH232714   2.483   4.748  21.207  0.3597 -0.1771  0.9571
 2840TIP3    H132715   2.446   4.727  21.293 -1.9637 -0.3468 -0.0202
 2840TIP3    H232716   2.557   4.688  21.199 -1.7963 -3.0833  1.2324
 2841TIP3   OH232717   5.221   2.288  17.278 -0.1964  0.1205  0.2480
 2841TIP3    H132718   5.127   2.300  17.292 -0.1027  0.7106  0.3980
 2841TIP3    H232719   5.262   2.329  17.354  0.1770 -0.3409  0.2968
 2842TIP3   OH232720   2.555   6.303  18.857  0.3139  0.1536 -0.1071
 2842TIP3    H132721   2.518   6.384  18.893  0.9338  0.8619 -1.0099
 2842TIP3    H232722   2.560   6.319  18.763  0.3522 -0.9879 -0.3133
 2843TIP3   OH232723   1.366   4.790  19.556 -1.0509 -0.2853 -0.3514
 2843TIP3    H132724   1.322   4.719  19.602  0.4113 -0.8183  0.2632
 2843TIP3    H232725   1.448   4.752  19.525 -0.4244  1.0081 -0.3612
 2844TIP3   OH232726   2.271   5.102  17.820  0.7189  0.0893  0.1247
 2844TIP3    H132727   2.323   5.145  17.751 -1.4856  1.3412 -0.8951
 2844TIP3    H232728   2.322   5.114  17.900  2.2721  0.6969 -0.9156
 2845TIP3   OH232729   6.628   2.471  17.240  0.4435  0.5620 -0.4420
 2845TIP3    H132730   6.701   2.497  17.183  0.8380  0.8381  0.1832
 2845TIP3    H232731   6.658   2.393  17.285  0.3580  0.6805 -0.1754
 2846TIP3   OH232732   6.077   4.881  18.387  0.9604 -0.1177 -0.2572
 2846TIP3    H132733   6.166   4.844  18.386  0.6755 -0.8378  0.1779
 2846TIP3    H232734   6.041   4.859  18.301  1.2714  0.3690 -0.5182
 2847TIP3   OH232735   5.405   1.857  19.163 -0.0351 -0.0396  0.0533
 2847TIP3    H132736   5.399   1.912  19.085 -1.0223 -2.1598 -1.4572
 2847TIP3    H232737   5.395   1.918  19.236  1.0568  2.0341 -1.4288
 2848TIP3   OH232738   5.536   4.136  18.247 -0.0524 -0.4508 -0.2352
 2848TIP3    H132739   5.559   4.203  18.312 -0.7905 -0.0393 -0.3880
 2848TIP3    H232740   5.552   4.053  18.292  1.8981 -0.2078 -0.3960
 2849TIP3   OH232741   0.102   4.985  20.248  0.0170 -0.4530  0.1614
 2849TIP3    H132742   0.187   4.965  20.208 -0.0010 -0.7254  0.2515
 2849TIP3    H232743   0.112   5.071  20.287 -0.4929  0.6434 -1.9733
 2850TIP3   OH232744   2.743   1.172  19.811  0.0852 -1.1644 -0.4894
 2850TIP3    H132745   2.652   1.180  19.784  0.4390 -2.3253 -2.1818
 2850TIP3    H232746   2.748   1.220  19.894 -2.0455 -1.0951 -0.3558
 2851TIP3   OH232747   1.389   1.210  17.870  0.7771  1.0122  0.5325
 2851TIP3    H132748   1.454   1.247  17.810  1.9488 -2.8434 -0.8911
 2851TIP3    H232749   1.329   1.161  17.814 -0.1753  0.1268  2.2261
 2852TIP3   OH232750   2.139   6.643  19.234  0.1043 -0.0606  0.4565
 2852TIP3    H132751   2.160   6.701  19.160  0.3776 -0.4790  0.1982
 2852TIP3    H232752   2.046   6.623  19.223  0.7551 -2.6739 -1.6799
 2853TIP3   OH232753   2.960   6.603  17.993 -0.2665  0.1722  0.2981
 2853TIP3    H132754   3.015   6.660  18.047  2.8181 -0.6488 -1.6963
 2853TIP3    H232755   2.939   6.529  18.051 -0.8397  1.3399  1.6471
 2854TIP3   OH232756   5.976   1.342  19.477 -0.6522  0.1058 -0.0429
 2854TIP3    H132757   5.964   1.405  19.406 -3.0876 -0.1224  0.0994
 2854TIP3    H232758   6.010   1.263  19.434 -1.3542  0.2262 -0.8402
 2855TIP3   OH232759   2.813   0.071  19.552  0.1423  0.2832 -0.2254
 2855TIP3    H132760   2.750   0.092  19.482 -1.2576 -1.4947  0.4234
 2855TIP3    H232761   2.842   0.156  19.584 -1.3358  1.1642 -1.0941
 2856TIP3   OH232762   6.436   4.169  20.031 -0.0330 -0.4282  0.0195
 2856TIP3    H132763   6.400   4.102  19.973  0.2752 -0.2924 -0.3335
 2856TIP3    H232764   6.452   4.244  19.973 -0.6936  0.0733  0.4694
 2857TIP3   OH232765   4.836   0.938  17.688  0.1739  0.7560 -0.1422
 2857TIP3    H132766   4.866   0.935  17.779 -0.0510  2.4300  0.0190
 2857TIP3    H232767   4.807   1.029  17.675 -2.3961 -0.0937 -1.0521
 2858TIP3   OH232768   4.262   5.941  19.205  0.3205 -0.1732  0.1995
 2858TIP3    H132769   4.225   6.002  19.269 -2.4092 -1.0803 -0.3709
 2858TIP3    H232770   4.356   5.956  19.210 -0.0805  2.6861  1.4516
 2859TIP3   OH232771   5.540   0.027  19.809  0.2238  0.2506  0.3092
 2859TIP3    H132772   5.469   0.091  19.812  0.4858  0.5522  0.2014
 2859TIP3    H232773   5.585   0.045  19.727  1.1080  0.8174  0.9009
 2860TIP3   OH232774   1.297   0.427  21.209 -0.1595  0.6879  0.2764
 2860TIP3    H132775   1.374   0.425  21.267  0.0293 -3.3309  0.1988
 2860TIP3    H232776   1.223   0.445  21.267  0.4184  0.3404  1.1407
 2861TIP3   OH232777   5.970   3.712  19.836 -0.1619 -0.1517  0.2731
 2861TIP3    H132778   5.971   3.622  19.803  0.6192 -0.4189  1.0091
 2861TIP3    H232779   6.052   3.721  19.884  0.8358  1.6403 -1.6055
 2862TIP3   OH232780   1.626   6.282  18.885  0.0174  0.3727  0.9391
 2862TIP3    H132781   1.547   6.229  18.897 -0.2435  0.5644  0.1622
 2862TIP3    H232782   1.696   6.219  18.870 -0.1042  0.2172  1.0248
 2863TIP3   OH232783   2.919   5.544  19.750 -0.0431  0.1893  0.2979
 2863TIP3    H132784   2.935   5.637  19.734  1.9880 -0.1699  0.0013
 2863TIP3    H232785   2.968   5.524  19.829  0.6999 -0.9219 -0.4187
 2864TIP3   OH232786   2.213   1.607  17.723  0.6151 -0.4804 -0.3559
 2864TIP3    H132787   2.187   1.596  17.632  0.9668 -4.2318 -0.1572
 2864TIP3    H232788   2.284   1.545  17.735 -1.2920 -2.2808  3.1364
 2865TIP3   OH232789   3.134   4.040  18.076  0.5669 -0.0906  0.5927
 2865TIP3    H132790   3.135   3.973  18.008 -0.5120 -0.3954  0.8608
 2865TIP3    H232791   3.043   4.072  18.077  1.1659  1.7305  0.1232
 2866TIP3   OH232792   5.024   3.558  19.944  0.1535 -0.4156 -0.3320
 2866TIP3    H132793   5.112   3.530  19.971 -0.1201  0.8080  2.0945
 2866TIP3    H232794   4.968   3.536  20.018 -1.3205  0.2081 -1.2260
 2867TIP3   OH232795   5.226   5.414  19.247 -0.0841  0.4616 -0.2266
 2867TIP3    H132796   5.262   5.436  19.333  0.8317 -0.9849 -0.2088
 2867TIP3    H232797   5.132   5.433  19.255  0.0520  0.7284  0.9540
 2868TIP3   OH232798   2.503   2.353  20.502 -0.4450 -1.1763  0.1603
 2868TIP3    H132799   2.424   2.302  20.517 -1.4459 -0.1413 -1.3150
 2868TIP3    H232800   2.498   2.424  20.567 -1.2900 -0.5266 -0.5867
 2869TIP3   OH232801   0.957   0.090  18.289 -0.1551 -0.3221 -0.1909
 2869TIP3    H132802   0.988   0.180  18.277 -1.2177 -0.1392 -1.9795
 2869TIP3    H232803   1.024   0.048  18.342  0.2878  1.5623  0.8425
 2870TIP3   OH232804   5.698   3.586  20.148 -0.1815  0.3687  0.0328
 2870TIP3    H132805   5.697   3.610  20.241 -0.4921  0.3316  0.0394
 2870TIP3    H232806   5.729   3.665  20.104 -0.0557  0.3952  0.1647
 2871TIP3   OH232807   2.933   3.195  20.077 -0.5139 -0.2800 -0.1390
 2871TIP3    H132808   2.929   3.192  20.173 -1.1527  0.3689 -0.1359
 2871TIP3    H232809   2.999   3.261  20.058 -1.3045  0.5345 -0.1296
 2872TIP3   OH232810   3.790   5.785  19.363  0.6314  0.7937  0.0371
 2872TIP3    H132811   3.750   5.705  19.399 -1.9879  1.3929 -1.2855
 2872TIP3    H232812   3.881   5.761  19.346  0.6063 -1.0806  2.0937
 2873TIP3   OH232813   4.764   0.760  17.497  0.5147  0.2126 -0.5078
 2873TIP3    H132814   4.725   0.820  17.561 -0.6659 -0.8260 -0.2065
 2873TIP3    H232815   4.858   0.771  17.507  0.3246  2.1031 -0.5668
 2874TIP3   OH232816   0.994   1.561  20.822  0.4052  0.0746  0.2767
 2874TIP3    H132817   0.954   1.636  20.866  0.5650  0.7367 -0.6799
 2874TIP3    H232818   0.930   1.535  20.757  0.1880 -0.8780  0.8479
 2875TIP3   OH232819   4.467   1.704  20.602  0.2770 -0.4821  0.5997
 2875TIP3    H132820   4.414   1.632  20.637  0.4709 -0.7113  0.4204
 2875TIP3    H232821   4.409   1.780  20.604 -0.5954 -1.0568 -1.1028
 2876TIP3   OH232822   4.209   4.781  18.494 -0.4050  0.3504  0.3852
 2876TIP3    H132823   4.127   4.767  18.543 -1.5012  1.9895 -0.8371
 2876TIP3    H232824   4.184   4.769  18.402  0.9017  0.2376  0.0272
 2877TIP3   OH232825   3.569   5.312  19.276  0.6595 -0.3740  0.4342
 2877TIP3    H132826   3.561   5.245  19.343 -0.2921  0.7445  1.4891
 2877TIP3    H232827   3.511   5.284  19.206  1.9109 -1.7199 -0.1051
 2878TIP3   OH232828   4.858   0.613  18.291 -0.6735 -0.4208 -0.9233
 2878TIP3    H132829   4.804   0.534  18.295  1.5891 -2.0670 -0.8217
 2878TIP3    H232830   4.847   0.645  18.202 -0.5024 -1.7475 -1.4442
 2879TIP3   OH232831   3.461   1.001  18.040  0.0137 -0.3837 -0.2850
 2879TIP3    H132832   3.521   1.075  18.048 -0.0590 -0.4053  0.5636
 2879TIP3    H232833   3.402   1.025  17.969 -0.6869  0.8493  0.6761
 2880TIP3   OH232834   0.900   3.281  20.261 -0.2722 -0.0816 -0.2433
 2880TIP3    H132835   0.954   3.275  20.182  1.0438  1.6941  0.4369
 2880TIP3    H232836   0.884   3.375  20.272 -1.9871 -0.4326  0.6068
 2881TIP3   OH232837   3.943   6.059  17.807 -0.1029 -0.1077  0.1231
 2881TIP3    H132838   3.912   6.145  17.833 -0.8236  0.3183 -1.9231
 2881TIP3    H232839   3.864   6.005  17.801  0.1310 -0.4205 -0.2263
 2882TIP3   OH232840   3.304   5.802  20.005  0.1932 -0.3174 -0.1964
 2882TIP3    H132841   3.285   5.875  19.945 -0.8347  0.4383  1.0027
 2882TIP3    H232842   3.219   5.777  20.041  0.5312 -2.0876 -0.5109
 2883TIP3   OH232843   0.116   4.270  20.701  0.0486 -0.2618  0.0881
 2883TIP3    H132844   0.159   4.260  20.787 -0.6485  0.3913  0.5188
 2883TIP3    H232845   0.132   4.186  20.657  1.0033 -0.3535  0.5852
 2884TIP3   OH232846   1.448   2.821  20.692 -0.1192  0.4484  0.4145
 2884TIP3    H132847   1.538   2.845  20.711 -0.4759  1.7713  0.5684
 2884TIP3    H232848   1.396   2.896  20.721 -1.3297 -0.5198  0.8644
 2885TIP3   OH232849   0.359   4.641  19.532  0.0368 -0.2912 -0.0639
 2885TIP3    H132850   0.369   4.736  19.522  1.1814 -0.4666 -0.6991
 2885TIP3    H232851   0.433   4.604  19.485  1.7347 -1.4042  3.2238
 2886TIP3   OH232852   1.670   2.831  18.805  0.2402 -0.4633  0.0750
 2886TIP3    H132853   1.762   2.849  18.825  0.6133 -0.0612 -1.8497
 2886TIP3    H232854   1.627   2.916  18.812  0.8116  0.1733 -2.8202
 2887TIP3   OH232855   4.798   0.189  20.217 -0.1383  0.1948  0.3364
 2887TIP3    H132856   4.867   0.171  20.152 -1.4297  0.0108 -1.0594
 2887TIP3    H232857   4.766   0.276  20.193 -1.2347 -0.2547  0.1437
 2888TIP3   OH232858   4.338   4.493  20.622 -0.7199  0.2759 -0.2137
 2888TIP3    H132859   4.273   4.475  20.554  0.8414 -1.1986 -1.4221
 2888TIP3    H232860   4.351   4.409  20.666  0.8454  0.3612 -0.4683
 2889TIP3   OH232861   4.422   6.591  19.107  0.1869 -0.0138 -0.5380
 2889TIP3    H132862   4.364   6.555  19.175 -0.5667 -2.2676 -2.2368
 2889TIP3    H232863   4.502   6.537  19.114  0.4502  0.3293 -0.8855
 2890TIP3   OH232864   5.511   5.430  19.404 -0.3385 -0.2160 -0.1545
 2890TIP3    H132865   5.474   5.343  19.420 -0.4561 -0.2260 -0.4843
 2890TIP3    H232866   5.436   5.489  19.406 -0.3376 -0.1986 -0.5248
 2891TIP3   OH232867   4.125   4.472  21.036 -0.3013  1.1268  0.4902
 2891TIP3    H132868   4.139   4.403  20.973 -0.6168  0.4402  1.1531
 2891TIP3    H232869   4.150   4.552  20.991 -0.4378  0.6408 -0.4633
 2892TIP3   OH232870   2.231   2.346  17.748  0.5655 -0.2811  0.3795
 2892TIP3    H132871   2.281   2.378  17.823  0.6966 -1.2564  0.7258
 2892TIP3    H232872   2.282   2.374  17.671 -0.0031  1.4595  0.5906
 2893TIP3   OH232873   0.984   5.261  20.831 -0.5004 -0.0878 -0.1430
 2893TIP3    H132874   0.982   5.355  20.817 -1.7034 -0.1297 -0.3728
 2893TIP3    H232875   0.893   5.237  20.848 -0.3285 -1.3197 -0.8455
 2894TIP3   OH232876   2.100   3.216  18.402 -0.5178  0.5994 -0.1552
 2894TIP3    H132877   2.113   3.290  18.462  1.2875  0.8921 -0.8580
 2894TIP3    H232878   2.144   3.242  18.321 -1.0070 -0.7052 -0.8737
 2895TIP3   OH232879   1.444   5.510  18.381 -0.3721 -0.2520 -0.8985
 2895TIP3    H132880   1.480   5.592  18.415  1.8693 -0.4890 -2.4523
 2895TIP3    H232881   1.457   5.516  18.287 -1.8077 -1.6729 -1.2192
 2896TIP3   OH232882   1.824   6.510  20.245  0.1105 -0.1401  0.0553
 2896TIP3    H132883   1.835   6.438  20.306  3.1881 -0.2727 -0.5070
 2896TIP3    H232884   1.793   6.583  20.299  0.0847 -1.0015  1.2383
 2897TIP3   OH232885   5.574   2.824  18.716  0.1000 -0.6192 -0.0373
 2897TIP3    H132886   5.631   2.816  18.639 -0.9109 -0.2971 -0.8395
 2897TIP3    H232887   5.584   2.916  18.743 -0.3830 -0.4412 -0.4569
 2898TIP3   OH232888   3.472   1.507  18.422 -0.0312  0.4887 -0.8851
 2898TIP3    H132889   3.391   1.463  18.398 -0.6494  0.5423  0.9274
 2898TIP3    H232890   3.499   1.553  18.343 -2.0080  0.8201 -1.4242
 2899TIP3   OH232891   4.440   5.039  19.031  0.0187  0.4640  1.0601
 2899TIP3    H132892   4.416   4.961  18.982  0.3997 -1.1792  3.3491
 2899TIP3    H232893   4.508   5.081  18.979 -0.0014 -0.8804 -0.0773
 2900TIP3   OH232894   5.074   3.190  19.206  0.2545  0.1716 -0.2915
 2900TIP3    H132895   4.996   3.160  19.253  1.7376 -1.3235  1.3865
 2900TIP3    H232896   5.136   3.116  19.213  1.5918  1.0234 -2.1547
 2901TIP3   OH232897   4.386   1.353  19.525 -0.4153 -0.0280 -0.1142
 2901TIP3    H132898   4.305   1.403  19.511 -0.3269  0.1209 -0.0990
 2901TIP3    H232899   4.357   1.271  19.564 -0.5640  0.0081 -0.1467
 2902TIP3   OH232900   5.320   2.734  19.667 -0.1813 -0.0195 -0.3744
 2902TIP3    H132901   5.368   2.773  19.594  1.6041 -1.0940  0.1555
 2902TIP3    H232902   5.383   2.735  19.740 -1.1483 -1.0473  0.5054
 2903TIP3   OH232903   2.071   2.900  20.136  0.2651  0.1073  0.2409
 2903TIP3    H132904   2.083   2.836  20.065  0.3821  0.4677 -0.0710
 2903TIP3    H232905   2.012   2.966  20.099 -1.3832 -0.7757  1.2079
 2904TIP3   OH232906   0.417   5.829  19.136  0.6366  0.1798 -0.1336
 2904TIP3    H132907   0.354   5.860  19.071 -0.7090  0.9270  1.4616
 2904TIP3    H232908   0.459   5.909  19.168 -0.5223  0.0987  1.6845
 2905TIP3   OH232909   1.199   5.013  20.702  0.0998  0.0683 -0.0908
 2905TIP3    H132910   1.121   5.026  20.755  0.6391 -0.8226  0.9645
 2905TIP3    H232911   1.246   5.097  20.708 -0.0855  0.1403  0.4378
 2906TIP3   OH232912   5.008   3.150  19.840 -0.1514  0.8300 -0.1764
 2906TIP3    H132913   5.053   3.079  19.794  0.5917  1.9868 -1.2976
 2906TIP3    H232914   5.029   3.229  19.790 -1.3602  1.7882  0.7484
 2907TIP3   OH232915   6.180   5.418  20.903  0.6335 -0.4108 -0.2089
 2907TIP3    H132916   6.148   5.373  20.982 -0.1259 -1.2047 -0.9408
 2907TIP3    H232917   6.130   5.378  20.832  0.9681  0.6311 -1.0410
 2908TIP3   OH232918   5.310   3.371  18.061  0.2134  0.2977  0.2752
 2908TIP3    H132919   5.232   3.420  18.088  0.3729  0.9524 -0.4312
 2908TIP3    H232920   5.363   3.434  18.013 -0.0608 -0.8145 -1.5917
 2909TIP3   OH232921   6.585   5.034  17.875  0.4051  0.2457 -0.2021
 2909TIP3    H132922   6.529   5.035  17.798 -1.0526 -1.5442  0.7572
 2909TIP3    H232923   6.637   5.115  17.868 -0.0369  0.3937 -2.7379
 2910TIP3   OH232924   3.825   5.057  19.825 -0.1562  0.3213 -0.4868
 2910TIP3    H132925   3.842   5.137  19.874  0.1970  0.3471 -0.6484
 2910TIP3    H232926   3.784   4.998  19.888  1.5728 -0.1646  0.2443
 2911TIP3   OH232927   4.981   4.980  20.488  0.0241  0.2645 -0.3986
 2911TIP3    H132928   5.014   4.992  20.577  0.0169 -0.6305 -0.2651
 2911TIP3    H232929   4.995   5.065  20.445 -1.2971  1.1647  0.8657
 2912TIP3   OH232930   3.557   0.377  18.965  0.4431 -0.2299  0.1972
 2912TIP3    H132931   3.513   0.451  19.005 -2.3120 -0.6252 -1.8627
 2912TIP3    H232932   3.546   0.306  19.028  1.4542  0.5585  1.3262
 2913TIP3   OH232933   6.249   6.364  18.762  0.3427 -0.8744 -0.1075
 2913TIP3    H132934   6.301   6.329  18.834 -0.8918 -0.6332  0.9232
 2913TIP3    H232935   6.254   6.459  18.773 -0.0873 -0.8439 -0.1569
 2914TIP3   OH232936   0.995   5.280  20.216  0.2009 -0.1445  0.0312
 2914TIP3    H132937   0.973   5.363  20.260  0.7585  0.3103 -0.5163
 2914TIP3    H232938   1.013   5.306  20.125  0.7668 -0.8125 -0.0504
 2915TIP3   OH232939   4.257   0.238  20.260 -0.0702  0.2673  0.5394
 2915TIP3    H132940   4.297   0.310  20.213 -2.8077  1.6146  0.0442
 2915TIP3    H232941   4.170   0.229  20.221 -0.9815 -1.2180  2.6778
 2916TIP3   OH232942   4.819   6.128  17.672 -0.1173  0.1221  0.0789
 2916TIP3    H132943   4.817   6.124  17.576  0.6521 -0.7512  0.0840
 2916TIP3    H232944   4.913   6.131  17.694 -0.2549  2.9233  0.7504
 2917TIP3   OH232945   0.132   4.621  20.834 -0.1247  0.1316 -0.0598
 2917TIP3    H132946   0.185   4.546  20.807  0.9264  0.5910  0.6195
 2917TIP3    H232947   0.043   4.599  20.808 -0.0076 -1.7699  0.9626
 2918TIP3   OH232948   2.420   4.494  20.012 -0.0578 -0.1416 -0.6390
 2918TIP3    H132949   2.490   4.531  20.066 -1.3231  0.0459  0.9488
 2918TIP3    H232950   2.459   4.485  19.925  1.3884  1.5968 -0.2301
 2919TIP3   OH232951   5.199   2.908  20.246  0.0635 -0.2414  0.0340
 2919TIP3    H132952   5.179   2.982  20.304 -0.8466  0.4958 -1.1685
 2919TIP3    H232953   5.282   2.931  20.205  0.1504 -0.2435  0.2068
 2920TIP3   OH232954   0.351   2.717  21.082  0.0426 -0.1385  0.1193
 2920TIP3    H132955   0.312   2.803  21.070  3.2742  1.2774 -1.7709
 2920TIP3    H232956   0.326   2.669  21.003 -0.3501 -0.3100  0.3491
 2921TIP3   OH232957   4.352   0.496  20.160  0.0082  0.5080  0.1581
 2921TIP3    H132958   4.405   0.534  20.230 -0.4544 -0.1717  0.8951
 2921TIP3    H232959   4.306   0.570  20.121  0.0569  0.8640  0.7683
 2922TIP3   OH232960   6.324   4.612  18.676  0.2140 -0.0193  0.1971
 2922TIP3    H132961   6.276   4.669  18.736  0.7192 -0.1814  0.7628
 2922TIP3    H232962   6.275   4.529  18.678  0.0069  0.1005  0.0824
 2923TIP3   OH232963   2.052   0.566  20.622 -0.0109 -0.3182 -0.4422
 2923TIP3    H132964   2.127   0.533  20.572 -0.4241  1.7702 -2.6228
 2923TIP3    H232965   2.091   0.606  20.700  1.0021 -0.5149 -0.8305
 2924TIP3   OH232966   4.440   6.467  19.913 -0.0150  0.0412  0.0509
 2924TIP3    H132967   4.530   6.435  19.901  0.2268  1.2256 -1.8756
 2924TIP3    H232968   4.389   6.421  19.846 -0.2787  1.2725 -0.6285
 2925TIP3   OH232969   1.275   3.240  21.002  0.0476 -0.0926  0.2515
 2925TIP3    H132970   1.190   3.222  21.042 -0.2440 -0.4611 -0.5180
 2925TIP3    H232971   1.301   3.324  21.038 -0.7752  0.1578  0.2817
 2926TIP3   OH232972   5.311   4.546  21.184 -0.3172 -1.0130 -0.3322
 2926TIP3    H132973   5.327   4.600  21.107 -0.0430 -1.5908 -0.6831
 2926TIP3    H232974   5.219   4.562  21.207  0.1094  0.6190  0.3717
 2927TIP3   OH232975   1.653   3.779  17.973 -0.2612  0.4096  0.2495
 2927TIP3    H132976   1.593   3.732  17.916 -0.5719 -1.1040  1.7485
 2927TIP3    H232977   1.734   3.786  17.923 -0.5690 -0.7401 -0.4428
 2928TIP3   OH232978   0.404   0.218  18.471  0.2072  0.2235  0.3642
 2928TIP3    H132979   0.479   0.171  18.507 -0.1406 -0.1225  0.6401
 2928TIP3    H232980   0.443   0.283  18.412  0.6555 -1.1846 -0.9555
 2929TIP3   OH232981   0.430   6.616  17.745  0.3170  0.1788 -0.1983
 2929TIP3    H132982   0.489   6.546  17.773  0.3507  0.6123  0.8337
 2929TIP3    H232983   0.343   6.578  17.749  0.5392 -0.9270 -3.0751
 2930TIP3   OH232984   2.587   5.465  20.598 -0.3560  0.4670 -0.0602
 2930TIP3    H132985   2.608   5.551  20.637  2.4281 -0.4609  0.7650
 2930TIP3    H232986   2.673   5.429  20.574 -1.5433 -1.6568 -1.3693
 2931TIP3   OH232987   1.107   5.640  21.023 -0.1781 -0.0492 -0.1669
 2931TIP3    H132988   1.091   5.582  21.098  0.9131  1.4768  1.3185
 2931TIP3    H232989   1.049   5.715  21.037  1.6558  1.3238  0.4635
 2932TIP3   OH232990   3.092   2.303  18.656  0.3590 -0.3341  0.8513
 2932TIP3    H132991   3.126   2.353  18.581 -1.0465 -1.7335 -0.8010
 2932TIP3    H232992   3.148   2.225  18.659  0.2860 -0.3755  1.1534
 2933TIP3   OH232993   6.115   5.216  19.226  0.0067  0.7377  0.1461
 2933TIP3    H132994   6.125   5.121  19.227  0.1183  0.7496  0.2550
 2933TIP3    H232995   6.025   5.231  19.196 -0.6251  0.5475  1.8201
 2934TIP3   OH232996   3.362   0.204  21.064  0.1724 -0.3859  0.2034
 2934TIP3    H132997   3.368   0.111  21.044 -0.5971 -0.5305  0.6359
 2934TIP3    H232998   3.437   0.243  21.018  1.6154 -1.4729  1.5389
 2935TIP3   OH232999   4.736   5.635  18.285  0.3942  0.2952  0.5005
 2935TIP3    H133000   4.764   5.690  18.212  1.1066 -0.8142 -0.1016
 2935TIP3    H233001   4.734   5.694  18.360  0.5575  1.2567 -0.2261
 2936TIP3   OH233002   6.278   0.122  20.668 -0.4881 -0.0754 -0.1939
 2936TIP3    H133003   6.215   0.083  20.606 -0.6705  2.0679 -1.4702
 2936TIP3    H233004   6.224   0.178  20.725  0.1645  1.7479 -1.2673
 2937TIP3   OH233005   0.623   0.349  18.671 -0.4838 -0.4497 -0.3291
 2937TIP3    H133006   0.694   0.313  18.618 -0.1719 -0.3447  0.0131
 2937TIP3    H233007   0.581   0.415  18.615 -0.1784 -0.3648 -0.4557
 2938TIP3   OH233008   5.390   3.865  18.710  0.6741 -0.5170  0.6213
 2938TIP3    H133009   5.454   3.809  18.666 -0.7473  0.2793 -2.7720
 2938TIP3    H233010   5.333   3.804  18.758  0.9189 -1.7159 -0.5656
 2939TIP3   OH233011   3.540   3.994  19.907  0.0499  0.0868 -0.2083
 2939TIP3    H133012   3.549   3.934  19.833 -0.6901  0.2900 -0.4752
 2939TIP3    H233013   3.447   4.017  19.908 -0.0481 -0.2777  1.0781
 2940TIP3   OH233014   0.349   3.959  18.545 -0.6609 -0.6399  0.7348
 2940TIP3    H133015   0.259   3.954  18.578 -0.7301  1.3277  0.9486
 2940TIP3    H233016   0.399   3.998  18.617  0.0015 -0.0499 -0.0331
 2941TIP3   OH233017   5.797   5.455  19.654 -0.2610  1.0136  0.5921
 2941TIP3    H133018   5.865   5.429  19.716 -0.0531  0.0558 -0.0179
 2941TIP3    H233019   5.845   5.480  19.575 -0.6128 -0.1779 -0.0267
 2942TIP3   OH233020   2.383   1.121  21.173 -0.0213  0.5440 -0.5306
 2942TIP3    H133021   2.461   1.172  21.196  0.1612  0.2686 -0.5285
 2942TIP3    H233022   2.327   1.126  21.250 -0.0107  0.7614 -0.5384
 2943TIP3   OH233023   3.697   5.526  19.387  0.9266  0.0635 -0.0989
 2943TIP3    H133024   3.754   5.540  19.311 -2.5931  1.5611 -2.7210
 2943TIP3    H233025   3.656   5.441  19.370 -0.9537  1.0424 -0.7713
 2944TIP3   OH233026   5.308   4.092  20.010 -0.5633  0.8073 -0.2260
 2944TIP3    H133027   5.353   4.023  20.059 -1.1638  0.5896  0.0256
 2944TIP3    H233028   5.254   4.137  20.075 -0.6017  1.1613 -0.4964
 2945TIP3   OH233029   1.939   4.213  19.768 -0.4132 -0.2523  0.2440
 2945TIP3    H133030   2.034   4.212  19.775 -0.5058 -1.7030  1.7020
 2945TIP3    H233031   1.917   4.306  19.763  1.0232  0.1424  0.7619
 2946TIP3   OH233032   1.139   6.291  18.646 -0.1913  0.3187 -0.1952
 2946TIP3    H133033   1.148   6.254  18.558  0.4164 -0.0822  0.0292
 2946TIP3    H233034   1.109   6.380  18.631  1.9264  0.9743 -0.9319
 2947TIP3   OH233035   2.820   5.454  18.886 -0.0788  0.1389  0.2155
 2947TIP3    H133036   2.823   5.515  18.959 -0.5059  0.0988  0.2738
 2947TIP3    H233037   2.876   5.381  18.912 -0.4049  0.0236  0.5953
 2948TIP3   OH233038   3.887   3.813  19.046 -0.4529 -0.4187  0.1078
 2948TIP3    H133039   3.927   3.865  18.976 -0.6678 -1.0419 -0.4898
 2948TIP3    H233040   3.837   3.745  19.000 -1.4817 -0.1899  0.8394
 2949TIP3   OH233041   3.653   4.484  19.935 -0.1056  0.0200  0.5876
 2949TIP3    H133042   3.727   4.480  19.874  1.4851 -0.4229  2.4558
 2949TIP3    H233043   3.674   4.419  20.002 -1.5465  0.8351  1.8719
 2950TIP3   OH233044   1.575   0.629  19.322 -0.1698  0.3037 -0.2757
 2950TIP3    H133045   1.665   0.643  19.295  0.7985 -1.0617  1.9453
 2950TIP3    H233046   1.558   0.699  19.386 -0.7526  0.6309 -0.7733
 2951TIP3   OH233047   6.513   1.431  18.707 -0.3984  0.2698 -0.0731
 2951TIP3    H133048   6.467   1.360  18.662 -0.0658  0.4056 -0.6284
 2951TIP3    H233049   6.456   1.452  18.781 -1.0310  0.1433 -0.5064
 2952TIP3   OH233050   1.116   6.229  20.367  0.0451 -0.0280  0.2113
 2952TIP3    H133051   1.181   6.196  20.305  0.5992  1.6561 -0.1699
 2952TIP3    H233052   1.039   6.247  20.314  0.9025  2.5512 -0.3358
 2953TIP3   OH233053   5.496   1.070  18.264  0.1604  0.0149 -0.4515
 2953TIP3    H133054   5.572   1.091  18.319  0.7609 -0.3958 -1.1076
 2953TIP3    H233055   5.533   1.023  18.189 -0.7402 -0.1417 -0.8076
 2954TIP3   OH233056   1.315   1.744  18.719 -0.5165 -0.0655 -0.2867
 2954TIP3    H133057   1.327   1.678  18.788  0.9566  2.0727  1.6497
 2954TIP3    H233058   1.404   1.773  18.699 -1.0907  0.8427 -1.6180
 2955TIP3   OH233059   5.424   4.485  20.106 -0.2760 -0.1966 -0.4222
 2955TIP3    H133060   5.497   4.545  20.095 -0.5823  0.2365 -0.1169
 2955TIP3    H233061   5.461   4.399  20.087  0.0975  0.1122 -1.1601
 2956TIP3   OH233062   0.087   5.440  20.165  0.0766  0.3361 -0.4009
 2956TIP3    H133063   0.063   5.496  20.239 -2.6356 -1.8528  0.5546
 2956TIP3    H233064   0.101   5.501  20.093  0.4296  2.4063  1.3064
 2957TIP3   OH233065   1.986   4.129  20.611  0.1823  0.5077 -0.4682
 2957TIP3    H133066   2.065   4.103  20.564 -0.3953  0.6111 -1.5377
 2957TIP3    H233067   1.956   4.208  20.566 -1.7909 -0.8037 -1.6159
 2958TIP3   OH233068   4.888   3.637  19.716  0.0024  0.0142  0.1433
 2958TIP3    H133069   4.921   3.612  19.802  0.3256  1.3891  0.4434
 2958TIP3    H233070   4.805   3.589  19.707  0.2931 -0.6664  0.9166
 2959TIP3   OH233071   2.763   6.656  19.086 -0.0364  0.0112 -0.0630
 2959TIP3    H133072   2.776   6.570  19.046 -0.7332 -1.1697  2.0471
 2959TIP3    H233073   2.687   6.643  19.144 -0.2412  2.1051  0.1861
 2960TIP3   OH233074   5.019   4.887  20.043 -0.5818 -0.3219  0.0524
 2960TIP3    H133075   5.096   4.842  20.079 -1.3716 -1.2154  0.6964
 2960TIP3    H233076   4.961   4.816  20.016 -0.5030  0.3377 -1.9721
 2961TIP3   OH233077   3.416   1.187  19.047 -0.8164  0.2027 -0.1282
 2961TIP3    H133078   3.321   1.198  19.043 -0.7766  0.1359 -2.0697
 2961TIP3    H233079   3.434   1.109  18.995  0.1902 -0.6829  1.4740
 2962TIP3   OH233080   1.679   0.858  19.467  0.1074  0.2222  0.1237
 2962TIP3    H133081   1.755   0.878  19.522 -1.1257 -2.7731  3.3576
 2962TIP3    H233082   1.609   0.914  19.501 -0.0382  0.2517 -0.2180
 2963TIP3   OH233083   6.250   3.665  20.775 -0.3773  0.4070  0.1579
 2963TIP3    H133084   6.285   3.585  20.735  1.6683  1.8244 -1.0850
 2963TIP3    H233085   6.174   3.688  20.723 -1.7192 -1.2944  1.2467
 2964TIP3   OH233086   4.260   3.117  18.425  0.7632  0.3045  0.2170
 2964TIP3    H133087   4.220   3.047  18.477  1.0692  0.6199  0.8944
 2964TIP3    H233088   4.222   3.197  18.461 -1.9286  0.4478 -2.5095
 2965TIP3   OH233089   6.409   2.259  18.292  0.0985 -0.2977 -1.0680
 2965TIP3    H133090   6.403   2.311  18.212 -1.1394  1.3175  0.0020
 2965TIP3    H233091   6.324   2.215  18.297  0.1999 -0.4529 -0.7023
 2966TIP3   OH233092   3.654   0.954  19.494  0.0817 -0.1166  0.0405
 2966TIP3    H133093   3.739   0.988  19.466 -0.5893  1.7353  0.0991
 2966TIP3    H233094   3.617   0.913  19.416  0.9131 -0.7125 -0.0466
 2967TIP3   OH233095   1.261   2.024  19.977 -0.1482  0.3289  0.3492
 2967TIP3    H133096   1.356   2.029  19.971 -0.0546 -1.1303  0.1208
 2967TIP3    H233097   1.233   1.998  19.889 -0.4113 -2.6935  1.2157
 2968TIP3   OH233098   4.253   0.783  20.340 -0.3084  0.3617  0.4825
 2968TIP3    H133099   4.331   0.756  20.388 -0.1634 -0.1665 -0.0410
 2968TIP3    H233100   4.287   0.814  20.256 -0.6219  0.5903  0.4388
 2969TIP3   OH233101   3.153   1.179  19.894  0.6431  0.3497  0.2468
 2969TIP3    H133102   3.118   1.236  19.826  1.3845  0.5876  0.0546
 2969TIP3    H233103   3.100   1.197  19.971 -0.5836 -0.3407 -0.4192
 2970TIP3   OH233104   3.758   2.032  18.422  0.2037 -0.5455  0.4576
 2970TIP3    H133105   3.692   1.994  18.365  1.2125 -1.1308 -0.3547
 2970TIP3    H233106   3.793   2.106  18.373 -1.7211  1.5475  2.0064
 2971TIP3   OH233107   3.732   1.851  18.038 -0.1361 -0.2309 -1.1141
 2971TIP3    H133108   3.817   1.858  18.082 -0.5041  1.2407 -0.5876
 2971TIP3    H233109   3.722   1.757  18.020  0.5381 -0.7628  0.9746
 2972TIP3   OH233110   2.009   4.686  18.385  0.5033 -0.5440 -0.4577
 2972TIP3    H133111   1.971   4.762  18.340 -1.2916 -0.0218  1.7287
 2972TIP3    H233112   2.101   4.708  18.395 -0.0810  1.7501  0.6609
 2973TIP3   OH233113   0.532   4.479  18.398  0.3096 -0.0192 -0.4792
 2973TIP3    H133114   0.550   4.395  18.441  0.7249  0.2577 -0.1032
 2973TIP3    H233115   0.587   4.477  18.319  0.2412 -0.1443 -0.5239
 2974TIP3   OH233116   2.050   5.584  20.747  0.0252 -0.0182  0.6432
 2974TIP3    H133117   2.079   5.616  20.832  2.6393 -0.5221  0.0217
 2974TIP3    H233118   2.040   5.490  20.759 -0.4067  0.0203  0.5944
 2975TIP3   OH233119   3.908   3.089  18.438 -0.3305  0.2808 -0.0948
 2975TIP3    H133120   3.967   3.094  18.513  0.9826 -1.0686 -0.9740
 2975TIP3    H233121   3.881   3.179  18.422  0.3689  0.7460  1.2111
 2976TIP3   OH233122   1.004   1.761  20.258 -0.1559 -0.3737 -0.1346
 2976TIP3    H133123   1.045   1.706  20.324  0.1473  0.2276  0.1879
 2976TIP3    H233124   0.933   1.708  20.222  1.9037 -2.1059 -1.8938
 2977TIP3   OH233125   0.719   0.510  18.033  0.3682 -0.0232  0.6120
 2977TIP3    H133126   0.744   0.599  18.006  0.4178 -0.7408 -1.9376
 2977TIP3    H233127   0.624   0.514  18.042 -0.0781 -0.4150 -2.8025
 2978TIP3   OH233128   3.685   3.115  19.678  0.7582 -0.1577 -0.0751
 2978TIP3    H133129   3.614   3.179  19.682  1.0702  0.1841 -0.0104
 2978TIP3    H233130   3.753   3.157  19.625  0.7243 -0.6723 -0.5323
 2979TIP3   OH233131   6.229   3.096  20.363 -0.1151 -0.6554 -0.5888
 2979TIP3    H133132   6.300   3.037  20.391 -0.3344  0.2019  2.1252
 2979TIP3    H233133   6.273   3.173  20.329  0.4622  0.4651  2.3472
 2980TIP3   OH233134   4.693   5.164  21.038 -0.0048  0.2782 -0.2875
 2980TIP3    H133135   4.690   5.132  20.948 -0.3206 -1.5574  0.3211
 2980TIP3    H233136   4.604   5.153  21.070  0.5512 -1.2437  0.8913
 2981TIP3   OH233137   1.843   1.052  20.887 -0.1078  0.2245  0.3283
 2981TIP3    H133138   1.754   1.028  20.859 -0.5759  0.6813  1.3632
 2981TIP3    H233139   1.888   0.968  20.896  0.2077  0.0751 -2.1460
 2982TIP3   OH233140   3.138   4.751  19.915 -0.1221  0.2139 -0.3402
 2982TIP3    H133141   3.189   4.802  19.853 -1.6466 -0.4461 -2.2237
 2982TIP3    H233142   3.126   4.809  19.990  0.7967  1.4655 -1.1366
 2983TIP3   OH233143   1.327   6.100  19.689 -0.1454  0.0123 -0.0763
 2983TIP3    H133144   1.233   6.109  19.707 -0.1631 -1.3703  0.6054
 2983TIP3    H233145   1.359   6.039  19.756  1.4298  1.1559  0.2820
 2984TIP3   OH233146   2.401   5.224  17.608 -0.6354 -0.0191 -0.5827
 2984TIP3    H133147   2.432   5.135  17.597 -1.1026 -0.0126 -2.4147
 2984TIP3    H233148   2.478   5.279  17.596 -0.2027 -0.1691  1.3087
 2985TIP3   OH233149   3.568   0.712  19.908 -0.1221 -0.0357  0.1275
 2985TIP3    H133150   3.479   0.695  19.878  0.7181  0.1962 -2.8111
 2985TIP3    H233151   3.562   0.795  19.955 -1.9233 -1.5561  2.8855
 2986TIP3   OH233152   3.820   0.076  19.906  0.2216 -0.2547 -0.0704
 2986TIP3    H133153   3.809   0.006  19.841 -2.0471 -1.9282  1.9464
 2986TIP3    H233154   3.901   0.053  19.951  0.8113 -0.1340 -1.0342
 2987TIP3   OH233155   1.711   2.977  17.988  0.1025  0.7136 -0.3544
 2987TIP3    H133156   1.643   2.993  17.922  0.1042 -0.0225 -0.5485
 2987TIP3    H233157   1.675   2.908  18.043  0.5975  0.4791 -0.3198
 2988TIP3   OH233158   0.283   2.718  20.097  0.0415  0.7267 -0.0467
 2988TIP3    H133159   0.213   2.741  20.037  0.7715  2.6120 -0.2614
 2988TIP3    H233160   0.364   2.734  20.048  0.6425  1.6961  1.1714
 2989TIP3   OH233161   0.825   6.219  18.333  0.2987 -0.3515 -0.1672
 2989TIP3    H133162   0.870   6.296  18.298 -0.1606 -0.2657 -0.5824
 2989TIP3    H233163   0.734   6.246  18.344  0.2048 -0.7255  0.0335
 2990TIP3   OH233164   2.215   3.219  20.420  0.1161  0.7331 -0.2003
 2990TIP3    H133165   2.276   3.146  20.416 -0.7167  0.0846 -1.8410
 2990TIP3    H233166   2.232   3.270  20.341 -0.0774  1.7087  0.3606
 2991TIP3   OH233167   0.802   6.059  18.542 -1.1074  0.0241  0.5380
 2991TIP3    H133168   0.805   6.121  18.470 -1.2513  0.4899  0.9292
 2991TIP3    H233169   0.838   6.107  18.617 -1.7577 -0.1682  0.9852
 2992TIP3   OH233170   1.725   0.410  17.692  0.4301  0.0591 -0.4088
 2992TIP3    H133171   1.787   0.406  17.764 -1.1485 -0.2452  0.9960
 2992TIP3    H233172   1.698   0.320  17.677 -1.8932  0.4321  1.0810
 2993TIP3   OH233173   0.469   5.366  20.798 -0.0292 -0.3974 -0.4353
 2993TIP3    H133174   0.561   5.381  20.777  0.5752 -0.5909  1.8406
 2993TIP3    H233175   0.460   5.271  20.801 -0.9598 -0.4883 -2.9854
 2994TIP3   OH233176   0.879   2.050  18.367 -0.3427 -0.1086 -0.3854
 2994TIP3    H133177   0.886   1.966  18.413 -0.2163  0.6485  1.0540
 2994TIP3    H233178   0.966   2.090  18.376  0.4613 -0.9205 -3.4061
 2995TIP3   OH233179   5.575   6.162  18.560  0.0163  0.2348  0.6150
 2995TIP3    H133180   5.566   6.072  18.526  1.7952 -0.0233  0.7227
 2995TIP3    H233181   5.508   6.168  18.628 -1.3246 -0.3957 -0.5801
 2996TIP3   OH233182   6.237   5.121  20.944  0.3230  0.4520  0.4730
 2996TIP3    H133183   6.204   5.194  20.995 -0.2689 -0.2022  1.0538
 2996TIP3    H233184   6.245   5.049  21.008 -2.6330 -1.0990 -0.6707
 2997TIP3   OH233185   0.701   5.096  21.217 -0.1870 -0.4173  0.2568
 2997TIP3    H133186   0.795   5.075  21.222  0.2364  0.6824 -1.7663
 2997TIP3    H233187   0.658   5.010  21.209  1.0318 -0.8736 -2.6125
 2998TIP3   OH233188   6.367   6.438  20.549 -0.4409 -0.5673 -0.0765
 2998TIP3    H133189   6.395   6.349  20.529  3.3180  0.2703  0.7733
 2998TIP3    H233190   6.385   6.449  20.642 -2.3834  0.6349  0.2211
 2999TIP3   OH233191   5.816   0.094  18.488  0.2213  0.2086 -0.5068
 2999TIP3    H133192   5.896   0.044  18.504 -0.5659 -0.7395  0.6716
 2999TIP3    H233193   5.808   0.152  18.564  0.7908  1.6875 -1.5584
 3000TIP3   OH233194   3.420   5.835  18.987  0.0151 -0.0151 -0.3952
 3000TIP3    H133195   3.431   5.775  19.061  1.4746 -2.0869 -2.1585
 3000TIP3    H233196   3.333   5.816  18.953 -0.6955  1.0090  0.8058
 3001TIP3   OH233197   4.386   2.572  18.005  0.0207 -0.2348 -0.4839
 3001TIP3    H133198   4.349   2.531  18.083 -1.3966 -0.2130 -1.1200
 3001TIP3    H233199   4.420   2.499  17.953 -1.6239 -0.5564 -1.1621
 3002TIP3   OH233200   5.641   4.845  20.822 -0.3337 -0.4327  0.4775
 3002TIP3    H133201   5.626   4.892  20.904 -0.6816 -0.2922  0.3323
 3002TIP3    H233202   5.722   4.884  20.787  0.0832 -0.8236  0.9846
 3003TIP3   OH233203   6.330   0.969  19.599 -0.2101  0.2503  0.6263
 3003TIP3    H133204   6.353   0.978  19.691 -0.0754 -1.1266  0.7476
 3003TIP3    H233205   6.404   1.008  19.552  0.0664  0.2858  1.0887
 3004TIP3   OH233206   3.983   3.956  18.829  0.7381  0.1355 -0.1824
 3004TIP3    H133207   3.905   4.012  18.835 -1.0006 -1.8385 -2.5125
 3004TIP3    H233208   4.054   4.015  18.804 -0.7781  1.4981 -1.4604
 3005TIP3   OH233209   3.140   2.996  18.596  0.5321 -0.2126 -0.3164
 3005TIP3    H133210   3.082   2.965  18.666  0.2682  0.4031 -0.2660
 3005TIP3    H233211   3.142   3.091  18.606  0.3461 -0.1088 -1.2739
 3006TIP3   OH233212   6.649   3.907  18.968 -0.2605  0.0593  0.7032
 3006TIP3    H133213   6.577   3.860  18.927 -1.3557  0.7705  1.7451
 3006TIP3    H233214   6.657   3.868  19.055 -1.3765  1.9159  1.6942
 3007TIP3   OH233215   3.997   3.002  19.461  0.3620  0.8636 -0.6166
 3007TIP3    H133216   4.064   3.050  19.510 -0.6525  1.9983 -0.3025
 3007TIP3    H233217   3.974   2.929  19.518 -0.6880  2.0706  0.5726
 3008TIP3   OH233218   1.014   2.000  20.151  0.1063  0.7134 -0.1756
 3008TIP3    H133219   1.021   1.913  20.189 -1.6924  0.2613 -0.7564
 3008TIP3    H233220   1.072   1.998  20.075  0.2504  0.0983 -0.0543
 3009TIP3   OH233221   4.730   0.762  20.009  0.7548  0.5773  0.0413
 3009TIP3    H133222   4.813   0.785  19.966  0.4906  0.9642 -0.2590
 3009TIP3    H233223   4.663   0.782  19.944  0.5669 -2.0722 -0.6690
 3010TIP3   OH233224   2.727   1.852  18.886 -0.3670 -0.2159 -0.5974
 3010TIP3    H133225   2.757   1.889  18.803 -1.6924  0.0381 -0.9829
 3010TIP3    H233226   2.745   1.921  18.951 -1.6617  0.6467 -1.1072
 3011TIP3   OH233227   2.429   4.021  19.660 -0.1086  0.0264  0.0334
 3011TIP3    H133228   2.428   3.928  19.638 -2.4067  0.3119 -1.4708
 3011TIP3    H233229   2.406   4.065  19.578  1.6239  2.0163  0.5258
 3012TIP3   OH233230   1.893   3.961  20.388  0.0574 -0.4519  0.1508
 3012TIP3    H133231   1.906   3.954  20.482  0.7917  1.4957  0.2337
 3012TIP3    H233232   1.976   3.994  20.354  0.0713 -1.8740 -1.3129
 3013TIP3   OH233233   0.387   0.560  21.071  0.2751 -0.4234  0.2573
 3013TIP3    H133234   0.331   0.633  21.044  1.0305 -0.5795 -1.9330
 3013TIP3    H233235   0.325   0.490  21.093 -0.4496 -0.4366 -1.6513
 3014TIP3   OH233236   5.051   6.618  18.716  0.8154  0.3421 -0.0382
 3014TIP3    H133237   5.079   6.535  18.676 -1.1685 -0.0247 -0.8259
 3014TIP3    H233238   4.976   6.645  18.663  0.6018  1.9634  1.0320
 3015TIP3   OH233239   2.442   5.297  20.208 -0.3289  0.3842 -0.1484
 3015TIP3    H133240   2.488   5.277  20.127  0.5672 -2.6728  0.9671
 3015TIP3    H233241   2.505   5.277  20.277 -1.0781  2.8480  1.3987
 3016TIP3   OH233242   4.545   2.932  18.688  0.3931 -0.1951 -0.1134
 3016TIP3    H133243   4.541   3.025  18.710  1.0996 -0.2272  0.1482
 3016TIP3    H233244   4.456   2.911  18.659 -0.2316  0.1514  1.4558
 3017TIP3   OH233245   5.790   5.263  17.662  0.4165 -0.2345  0.5468
 3017TIP3    H133246   5.801   5.217  17.746 -1.5974 -0.9558  0.4523
 3017TIP3    H233247   5.879   5.268  17.626  1.0558 -1.5960  1.8465
 3018TIP3   OH233248   1.583   3.563  17.772  0.0243  0.2173 -0.5852
 3018TIP3    H133249   1.635   3.509  17.712 -0.3589  1.1807 -1.8226
 3018TIP3    H233250   1.537   3.624  17.715 -0.7953  0.8002  0.6661
 3019TIP3   OH233251   1.099   0.293  18.664  0.4652  0.6084 -0.6534
 3019TIP3    H133252   1.186   0.255  18.674  0.3737  0.2972 -0.9975
 3019TIP3    H233253   1.040   0.226  18.701  0.4436  1.2773  0.5897
 3020TIP3   OH233254   3.007   3.458  19.824 -0.2065  0.2325  0.1474
 3020TIP3    H133255   3.013   3.532  19.884 -1.7510  2.7927 -2.5423
 3020TIP3    H233256   3.098   3.431  19.809  0.3699  1.2664  1.5881
 3021TIP3   OH233257   3.675   4.179  18.619 -0.5077  0.4116  0.5473
 3021TIP3    H133258   3.714   4.242  18.558  1.0167  0.8218  1.8882
 3021TIP3    H233259   3.581   4.197  18.614 -0.3858  0.7562 -1.2958
 3022TIP3   OH233260   2.097   1.014  19.445 -0.3997 -0.1840 -0.7307
 3022TIP3    H133261   2.160   0.943  19.432 -2.2088 -1.8412 -0.9949
 3022TIP3    H233262   2.035   0.979  19.510  0.2199  2.2846  1.3757
 3023TIP3   OH233263   4.881   5.292  20.066  0.0695  0.4020 -0.4400
 3023TIP3    H133264   4.818   5.226  20.038  0.8310 -0.5160 -0.0448
 3023TIP3    H233265   4.956   5.242  20.097  1.0064  1.4658 -0.9166
 3024TIP3   OH233266   2.576   1.036  20.585  0.1272 -0.2587  0.7192
 3024TIP3    H133267   2.485   1.009  20.597  0.0942 -0.3578  0.2676
 3024TIP3    H233268   2.571   1.120  20.540  0.2561 -0.1015  0.9916
 3025TIP3   OH233269   0.979   3.498  18.968 -0.5117 -0.2442 -0.0679
 3025TIP3    H133270   0.883   3.497  18.969 -0.5158 -0.0416  1.0796
 3025TIP3    H233271   1.003   3.552  19.044  0.5169 -0.4740 -0.2179
 3026TIP3   OH233272   0.836   1.204  20.131 -0.5304  0.4392 -0.3699
 3026TIP3    H133273   0.905   1.268  20.117 -0.3682  0.9672  2.3122
 3026TIP3    H233274   0.869   1.150  20.203 -3.0956  1.0754  1.3971
 3027TIP3   OH233275   0.698   3.834  19.374 -0.1852 -0.3917  0.3642
 3027TIP3    H133276   0.642   3.839  19.297  0.1181  1.2794  0.2100
 3027TIP3    H233277   0.669   3.907  19.430  0.6498 -0.5904  1.0888
 3028TIP3   OH233278   0.742   5.352  18.692 -0.1379 -0.0075  0.1242
 3028TIP3    H133279   0.726   5.269  18.648  1.6916 -1.4582  1.9744
 3028TIP3    H233280   0.792   5.329  18.770 -0.5573  2.7346  1.3450
 3029TIP3   OH233281   5.710   2.727  19.430 -0.2024  0.1325 -0.7736
 3029TIP3    H133282   5.806   2.735  19.435 -0.0362 -1.1497 -1.5254
 3029TIP3    H233283   5.695   2.657  19.367 -1.6595  0.4572 -0.8180
 3030TIP3   OH233284   5.592   2.567  19.636  0.3168  0.0577 -0.0069
 3030TIP3    H133285   5.676   2.521  19.634  0.7883  0.8356  1.1722
 3030TIP3    H233286   5.599   2.635  19.569  0.2845 -0.4270 -0.5134
 3031TIP3   OH233287   6.443   4.915  19.780  0.0682 -0.0530 -0.1258
 3031TIP3    H133288   6.431   4.939  19.688  0.8713  1.6113  0.1659
 3031TIP3    H233289   6.371   4.958  19.826 -0.6763 -1.3660 -0.0183
 3032TIP3   OH233290   3.318   4.722  20.575 -0.3645 -0.3602 -0.7192
 3032TIP3    H133291   3.407   4.718  20.611  0.2970 -0.2221 -2.2431
 3032TIP3    H233292   3.302   4.816  20.564 -1.9911 -0.1482  2.4574
 3033TIP3   OH233293   5.494   4.312  19.545  0.4757 -0.2643 -0.0043
 3033TIP3    H133294   5.480   4.291  19.453  0.5237 -1.2447  0.2058
 3033TIP3    H233295   5.434   4.255  19.593  0.8270 -0.1407  0.5981
 3034TIP3   OH233296   1.008   3.968  18.595  0.1870 -0.7111  0.3838
 3034TIP3    H133297   1.091   4.009  18.569 -0.0054 -1.5606 -1.8213
 3034TIP3    H233298   1.027   3.874  18.590  0.4237 -1.0799  4.6282
 3035TIP3   OH233299   5.524   3.139  20.483  0.6857 -0.0569 -0.3806
 3035TIP3    H133300   5.516   3.059  20.536  1.0165 -0.4929 -0.9736
 3035TIP3    H233301   5.507   3.109  20.394  0.8279  0.5428 -0.6086
 3036TIP3   OH233302   3.174   3.836  18.550  0.4946  0.1016 -0.1999
 3036TIP3    H133303   3.181   3.747  18.583 -2.0523 -0.0944 -0.0317
 3036TIP3    H233304   3.114   3.830  18.476  0.1775  1.7042 -0.1075
 3037TIP3   OH233305   0.562   3.388  19.980  0.0018 -0.1182 -0.1455
 3037TIP3    H133306   0.541   3.310  19.929  1.5726  0.0076 -1.0477
 3037TIP3    H233307   0.563   3.358  20.070  2.3412 -1.6056 -0.6058
 3038TIP3   OH233308   5.264   0.544  20.692  0.3217  0.1269 -0.0717
 3038TIP3    H133309   5.320   0.620  20.680  1.3774 -0.5904  0.1509
 3038TIP3    H233310   5.298   0.500  20.770 -1.7204  0.6439  1.1987
 3039TIP3   OH233311   3.100   0.145  21.091 -0.6163  0.0329  0.4174
 3039TIP3    H133312   3.184   0.188  21.108 -0.2545 -0.7259  0.5932
 3039TIP3    H233313   3.106   0.061  21.137 -0.8382 -0.7271 -0.9073
 3040TIP3   OH233314   0.450   2.886  18.525 -0.1265  0.1982  0.0168
 3040TIP3    H133315   0.418   2.947  18.458 -2.7671  0.4453  1.3939
 3040TIP3    H233316   0.486   2.943  18.594 -0.7122  0.1130  0.3931
 3041TIP3   OH233317   1.012   6.007  18.289  0.0740  0.1997 -0.0614
 3041TIP3    H133318   0.938   6.068  18.293  0.0284  0.2997 -1.8126
 3041TIP3    H233319   1.080   6.049  18.341 -1.1799 -0.0500  1.8811
 3042TIP3   OH233320   4.934   0.236  20.799  0.1146 -0.1133  0.2489
 3042TIP3    H133321   4.979   0.316  20.771 -0.3698  0.4893  1.1377
 3042TIP3    H233322   4.842   0.251  20.777 -0.0828 -0.1343  1.0163
 3043TIP3   OH233323   1.818   3.767  20.690 -0.2209 -0.3321  0.2693
 3043TIP3    H133324   1.756   3.741  20.757 -0.2857  0.6200  0.5930
 3043TIP3    H233325   1.766   3.818  20.627 -0.6391 -3.0026 -1.7037
 3044TIP3   OH233326   2.179   2.877  19.697 -0.2085  0.5143  0.4372
 3044TIP3    H133327   2.273   2.863  19.705  0.0208  1.7435  0.1506
 3044TIP3    H233328   2.163   2.883  19.603 -0.6512 -0.1462  0.4663
 3045TIP3   OH233329   1.132   4.933  19.470 -0.4888 -0.1052 -0.3551
 3045TIP3    H133330   1.217   4.889  19.459 -1.0418 -1.0053 -1.1646
 3045TIP3    H233331   1.133   4.964  19.561  0.4400 -0.6607 -0.1585
 3046TIP3   OH233332   3.701   5.457  20.394 -0.5086 -0.2973 -0.2228
 3046TIP3    H133333   3.775   5.518  20.385 -0.8143  0.1082 -0.0326
 3046TIP3    H233334   3.712   5.396  20.320  0.4229 -0.6935  0.2220
 3047TIP3   OH233335   3.729   0.991  18.688 -0.1607  0.4491 -0.6420
 3047TIP3    H133336   3.804   0.944  18.652 -0.3008 -0.2835  0.0021
 3047TIP3    H233337   3.767   1.051  18.753 -0.2045 -0.7158  0.5016
 3048TIP3   OH233338   5.997   2.793  19.419  0.5343 -0.2062 -0.4520
 3048TIP3    H133339   6.013   2.867  19.477 -0.6111 -0.6345  0.4345
 3048TIP3    H233340   6.084   2.770  19.387  1.2349 -0.0558  1.2192
 3049TIP3   OH233341   3.621   1.223  20.348 -0.4741 -0.0188 -0.5279
 3049TIP3    H133342   3.532   1.195  20.328 -0.6335  0.7047 -0.8406
 3049TIP3    H233343   3.619   1.318  20.344 -0.0341  0.0848  0.9245
 3050TIP3   OH233344   5.675   0.277  19.038 -0.2363  0.0759 -0.3494
 3050TIP3    H133345   5.616   0.308  19.107  0.9585 -0.1361  0.8039
 3050TIP3    H233346   5.727   0.209  19.080  0.2860 -0.3099 -1.5761
 3051TIP3   OH233347   4.303   4.558  19.489 -0.8953  0.4064 -0.1243
 3051TIP3    H133348   4.255   4.509  19.421  2.8369 -0.1483 -2.6548
 3051TIP3    H233349   4.309   4.498  19.562 -1.8931 -0.4215 -0.6926
 3052TIP3   OH233350   4.886   5.352  20.876 -0.1426 -0.3938 -0.0696
 3052TIP3    H133351   4.798   5.323  20.896  0.5822 -1.0114  2.5110
 3052TIP3    H233352   4.899   5.430  20.930  1.5591 -1.5126  1.2528
 3053TIP3   OH233353   3.439   1.345  17.827  0.3744  0.4944  0.2462
 3053TIP3    H133354   3.425   1.440  17.830  0.5891  0.5637 -0.6451
 3053TIP3    H233355   3.470   1.323  17.915  1.4216  1.4436  0.1465
 3054TIP3   OH233356   3.762   2.638  20.460 -0.3929 -0.0385 -0.2966
 3054TIP3    H133357   3.810   2.697  20.518 -0.4430 -0.8050  0.5430
 3054TIP3    H233358   3.810   2.555  20.465  0.1208  0.1056 -2.0429
 3055TIP3   OH233359   4.285   3.118  20.529 -0.0401 -0.3854 -0.3230
 3055TIP3    H133360   4.313   3.136  20.619  0.1972 -1.8403 -0.0861
 3055TIP3    H233361   4.219   3.185  20.511  0.2695  0.2335  0.7463
 3056TIP3   OH233362   0.769   3.643  19.561  0.4695 -0.5082 -0.0745
 3056TIP3    H133363   0.788   3.557  19.523 -2.7152 -2.0016  1.3714
 3056TIP3    H233364   0.729   3.693  19.490  0.8549 -0.7676 -0.4775
 3057TIP3   OH233365   2.127   1.567  19.634  0.2954 -0.4020 -0.0799
 3057TIP3    H133366   2.059   1.500  19.625 -0.6657  0.6138 -0.5439
 3057TIP3    H233367   2.191   1.545  19.567  0.8713 -1.8510  0.8943
 3058TIP3   OH233368   0.811   5.486  19.630  0.0817 -0.3783 -0.2993
 3058TIP3    H133369   0.779   5.396  19.624  0.3466 -0.4410 -0.7934
 3058TIP3    H233370   0.907   5.477  19.628  0.2371 -0.2957  2.4082
 3059TIP3   OH233371   1.986   0.346  17.880  0.4765  0.2183  0.0943
 3059TIP3    H133372   1.954   0.256  17.870  0.0347  0.3850 -0.0425
 3059TIP3    H233373   2.081   0.338  17.885  0.4389 -0.2552  0.0639
 3060TIP3   OH233374   3.283   6.653  19.115  0.1932  0.2075 -0.2111
 3060TIP3    H133375   3.375   6.631  19.127  0.2233 -0.5611 -1.6115
 3060TIP3    H233376   3.280   6.704  19.034 -0.4852  1.2063  0.4248
 3061TIP3   OH233377   4.013   5.859  19.145  0.3560  0.0574  0.6417
 3061TIP3    H133378   3.959   5.926  19.102 -1.7593 -0.5814  2.0978
 3061TIP3    H233379   4.103   5.890  19.136 -0.1261  0.8308 -2.5794
 3062TIP3   OH233380   3.686   5.803  20.305 -0.0658 -0.0423  0.6913
 3062TIP3    H133381   3.759   5.740  20.306 -0.5795 -0.6516  0.3867
 3062TIP3    H233382   3.608   5.750  20.290 -0.5535  0.6342  0.7662
 3063TIP3   OH233383   4.815   4.162  20.633 -0.1948 -1.0044 -0.3895
 3063TIP3    H133384   4.796   4.118  20.717  0.5739  1.3320  1.1066
 3063TIP3    H233385   4.736   4.148  20.581 -2.3896  0.6730  2.1981
 3064TIP3   OH233386   0.684   1.813  18.337 -0.0002 -0.4669  0.3596
 3064TIP3    H133387   0.639   1.850  18.413 -0.9630  0.6195 -0.6897
 3064TIP3    H233388   0.764   1.775  18.372 -0.7969 -0.6960  2.0174
 3065TIP3   OH233389   5.338   1.930  20.031  0.1395 -0.3415 -0.3997
 3065TIP3    H133390   5.417   1.973  19.997  0.0863  0.2126  0.1649
 3065TIP3    H233391   5.323   1.857  19.971  0.6125  0.0373 -0.9887
 3066TIP3   OH233392   3.531   4.763  20.769 -0.0626 -0.0483  0.2215
 3066TIP3    H133393   3.545   4.840  20.824  0.3653  0.2896 -0.3462
 3066TIP3    H233394   3.516   4.692  20.831  0.8567  0.2369  0.7955
 3067TIP3   OH233395   1.556   3.352  18.599  0.3220  0.4365 -0.5424
 3067TIP3    H133396   1.488   3.315  18.656  2.3907 -2.8633  0.0526
 3067TIP3    H233397   1.545   3.306  18.516  0.8663  1.0644 -0.9725
 3068TIP3   OH233398   4.700   0.116  19.903 -0.1672 -0.1180 -0.3794
 3068TIP3    H133399   4.687   0.033  19.949  0.7482 -0.0844 -0.0509
 3068TIP3    H233400   4.639   0.177  19.946 -0.5496 -0.5092 -0.3570
 3069TIP3   OH233401   5.104   2.906  19.725  0.6175  0.3262 -0.4536
 3069TIP3    H133402   5.050   2.866  19.793 -1.3421  3.5517  0.0968
 3069TIP3    H233403   5.171   2.840  19.706 -1.9081 -2.8457  0.7365
 3070TIP3   OH233404   4.525   5.711  19.077  0.2664  0.0837  0.2022
 3070TIP3    H133405   4.431   5.723  19.068  0.1614  1.1682  2.0734
 3070TIP3    H233406   4.542   5.625  19.040 -1.1793  0.5064 -1.6169
 3071TIP3   OH233407   0.646   3.015  18.734 -0.1569  0.3435 -0.1777
 3071TIP3    H133408   0.676   3.036  18.822  4.0972  2.1841 -1.7894
 3071TIP3    H233409   0.588   3.088  18.710  1.4897  1.7752 -0.0203
 3072TIP3   OH233410   4.009   6.232  18.463  0.2925  0.8922  0.2838
 3072TIP3    H133411   4.011   6.175  18.539  0.2411  1.0057  0.3716
 3072TIP3    H233412   4.040   6.317  18.496  0.9172  0.7696  0.0372
 3073TIP3   OH233413   5.978   0.209  20.399  0.3970  0.2069 -0.0273
 3073TIP3    H133414   5.990   0.267  20.474  1.7377 -1.5207  1.1628
 3073TIP3    H233415   6.066   0.176  20.379 -0.3271 -1.4964 -0.5787
 3074TIP3   OH233416   3.924   3.261  19.642 -0.2434 -0.0140  0.6249
 3074TIP3    H133417   4.010   3.232  19.609  0.0371  0.4399  0.9486
 3074TIP3    H233418   3.945   3.326  19.709 -0.8293 -0.4186  1.2074
 3075TIP3   OH233419   6.173   3.484  19.930  0.5111  0.0668 -0.6669
 3075TIP3    H133420   6.170   3.390  19.918  0.4083 -0.2302  1.3386
 3075TIP3    H233421   6.261   3.510  19.900  0.8211 -0.7805 -0.4994
 3076TIP3   OH233422   6.472   1.853  18.131 -0.1914  0.1482  0.0136
 3076TIP3    H133423   6.499   1.770  18.090  1.9424  0.7904 -0.0068
 3076TIP3    H233424   6.379   1.859  18.112 -0.6124 -2.6438  0.7437
 3077TIP3   OH233425   5.637   6.612  20.987  0.5331  0.1368  1.0803
 3077TIP3    H133426   5.556   6.562  20.984 -0.4028  1.4796  2.5965
 3077TIP3    H233427   5.623   6.683  20.924  0.6280  0.2522  1.1894
 3078TIP3   OH233428   5.785   0.993  20.856  0.2380 -0.3237 -0.0318
 3078TIP3    H133429   5.690   1.001  20.864  0.0982 -1.7710  0.0432
 3078TIP3    H233430   5.820   1.039  20.932 -0.5072 -1.4517  1.0309
 3079TIP3   OH233431   2.218   2.337  20.582 -0.0357 -0.1478  0.5445
 3079TIP3    H133432   2.184   2.418  20.618 -0.8805  0.4528 -1.4801
 3079TIP3    H233433   2.201   2.272  20.650 -0.1147  1.1852  1.8514
 3080TIP3   OH233434   3.441   4.645  20.013  0.0569 -0.4599  0.8682
 3080TIP3    H133435   3.511   4.583  19.994 -0.0093 -0.8051  1.7576
 3080TIP3    H233436   3.439   4.653  20.108  0.2139  1.0726  0.7738
 3081TIP3   OH233437   2.596   1.058  17.995 -0.0363  0.4909 -0.0606
 3081TIP3    H133438   2.548   1.004  17.933  1.1094  0.1888 -0.7272
 3081TIP3    H233439   2.535   1.073  18.067 -1.0097 -0.1014 -0.7426
 3082TIP3   OH233440   1.018   6.015  19.481  0.1715  0.0135  0.1475
 3082TIP3    H133441   1.035   6.064  19.562  0.4060 -2.0958  1.4456
 3082TIP3    H233442   1.089   5.951  19.476 -0.7099 -0.9340 -0.8867
 3083TIP3   OH233443   2.994   6.022  21.078  0.3901  0.3557 -0.0819
 3083TIP3    H133444   3.019   6.051  20.990 -0.3739 -1.9470 -1.1371
 3083TIP3    H233445   2.901   6.046  21.085  0.3000  0.0302 -0.1429
 3084TIP3   OH233446   3.288   4.911  17.507  0.8869  0.3910 -0.1452
 3084TIP3    H133447   3.277   4.893  17.414 -0.3695  0.5048 -0.0260
 3084TIP3    H233448   3.351   4.984  17.510  1.1320  0.2148 -0.8770
 3085TIP3   OH233449   4.338   1.475  17.973 -0.7172 -0.0700 -0.2786
 3085TIP3    H133450   4.336   1.404  18.038 -0.8506  0.6310  0.5104
 3085TIP3    H233451   4.386   1.439  17.899  0.6352 -0.4588  0.7466
 3086TIP3   OH233452   5.010   0.212  18.913 -0.1653  0.5817 -0.3014
 3086TIP3    H133453   5.091   0.205  18.863 -0.8444  0.6493 -1.4591
 3086TIP3    H233454   5.009   0.301  18.947 -0.8409  1.4190 -2.3124
 3087TIP3   OH233455   5.274   6.471  19.809 -0.4152 -0.0452  0.0689
 3087TIP3    H133456   5.199   6.427  19.848 -0.7438  1.2764  1.0091
 3087TIP3    H233457   5.239   6.553  19.774  0.4291  0.1997 -0.2409
 3088TIP3   OH233458   3.108   0.207  19.294 -0.2758  0.3810 -0.6547
 3088TIP3    H133459   3.163   0.135  19.264 -0.2353  0.3719 -0.5566
 3088TIP3    H233460   3.157   0.286  19.268 -0.6172  0.3840 -1.3306
 3089TIP3   OH233461   0.762   5.475  20.179  0.2389 -0.5408  0.2453
 3089TIP3    H133462   0.794   5.530  20.107 -1.7212  1.6778  0.9358
 3089TIP3    H233463   0.816   5.500  20.254 -0.5831  0.4533  0.5344
 3090TIP3   OH233464   1.324   4.835  18.485  0.0643  0.6287 -0.3273
 3090TIP3    H133465   1.232   4.859  18.491 -0.0259  0.0784  0.7603
 3090TIP3    H233466   1.369   4.894  18.545 -0.0606 -1.2531  1.7649
 3091TIP3   OH233467   2.307   4.558  20.371  0.4498 -0.0033  0.3248
 3091TIP3    H133468   2.282   4.536  20.461  1.4332 -0.8410  0.4082
 3091TIP3    H233469   2.231   4.606  20.336  0.6758  1.8113  2.1231
 3092TIP3   OH233470   0.647   1.907  19.342  0.1113 -0.0686 -0.1168
 3092TIP3    H133471   0.685   1.991  19.367  0.3182 -0.0230 -0.5737
 3092TIP3    H233472   0.562   1.929  19.304 -1.3962 -0.3181  2.8531
 3093TIP3   OH233473   5.390   4.520  19.269  0.0296  0.3397 -0.3089
 3093TIP3    H133474   5.432   4.438  19.292 -0.4049 -0.2445 -1.5194
 3093TIP3    H233475   5.358   4.555  19.352  0.0793 -0.7929  0.1966
 3094TIP3   OH233476   5.493   2.128  17.482 -0.1115 -0.3360 -0.0233
 3094TIP3    H133477   5.486   2.101  17.391  1.0649 -0.9975  0.0693
 3094TIP3    H233478   5.517   2.220  17.478  0.2862 -0.4529 -0.3903
 3095TIP3   OH233479   3.633   0.551  18.221 -0.7694  0.2821  0.4533
 3095TIP3    H133480   3.593   0.533  18.135  0.3779  1.5835 -0.3952
 3095TIP3    H233481   3.619   0.470  18.271  0.1751 -1.2514 -1.5889
 3096TIP3   OH233482   1.162   6.673  20.937  0.2913 -0.3607  0.4117
 3096TIP3    H133483   1.092   6.730  20.968 -0.9877 -1.4381 -0.4125
 3096TIP3    H233484   1.126   6.628  20.861  2.4651  0.3338 -1.1434
 3097TIP3   OH233485   3.530   6.530  19.420  0.1570 -0.2833 -0.3780
 3097TIP3    H133486   3.544   6.620  19.449 -0.8606  0.6627 -2.5723
 3097TIP3    H233487   3.613   6.504  19.380 -0.0579  0.3420 -1.2626
 3098TIP3   OH233488   3.126   6.019  19.549  0.2328  0.3429  0.1925
 3098TIP3    H133489   3.080   5.986  19.472 -0.3075  0.0781  0.6260
 3098TIP3    H233490   3.206   5.966  19.554 -0.0373 -0.0668  0.1777
 3099TIP3   OH233491   3.321   3.579  19.031 -0.2196 -0.4236  0.2173
 3099TIP3    H133492   3.337   3.538  19.116 -0.1573 -1.7853 -0.4319
 3099TIP3    H233493   3.231   3.556  19.010 -0.1024 -0.4430 -0.2712
 3100TIP3   OH233494   5.750   5.022  20.499  0.2593  0.0255 -0.5176
 3100TIP3    H133495   5.813   4.989  20.434  0.7186  0.1597 -0.1483
 3100TIP3    H233496   5.665   4.994  20.466  0.5736 -0.8144 -0.6408
 3101TIP3   OH233497   2.508   4.089  18.284  0.2511  0.2335  0.2700
 3101TIP3    H133498   2.548   4.022  18.229  0.0031 -1.1280  1.6825
 3101TIP3    H233499   2.512   4.053  18.372  0.6863  2.3772  1.1755
 3102TIP3   OH233500   3.545   2.336  20.990  0.3592  0.1549 -0.1860
 3102TIP3    H133501   3.574   2.360  21.078  0.4475  0.5870 -0.3313
 3102TIP3    H233502   3.486   2.408  20.964 -0.5837 -0.5401 -0.0274
 3103TIP3   OH233503   0.190   5.372  21.205 -0.3839  0.7637  0.1948
 3103TIP3    H133504   0.238   5.441  21.158 -0.3572  0.5092 -0.1581
 3103TIP3    H233505   0.255   5.302  21.217 -1.4459 -1.0631 -3.3366
 3104TIP3   OH233506   4.670   1.185  18.298  0.5080  0.0748 -0.6957
 3104TIP3    H133507   4.579   1.176  18.272 -0.0847 -1.1812  1.4977
 3104TIP3    H233508   4.693   1.275  18.276 -2.3502  1.5545  1.6932
 3105TIP3   OH233509   5.649   0.347  18.058  0.1163 -0.0078  0.4909
 3105TIP3    H133510   5.562   0.361  18.019 -0.0466 -0.4301  0.6887
 3105TIP3    H233511   5.710   0.386  17.996 -0.0605 -1.5137 -0.6864
 3106TIP3   OH233512   2.329   4.511  18.868  0.3866 -0.2330  0.1599
 3106TIP3    H133513   2.339   4.417  18.850  1.1022 -0.6067  2.2398
 3106TIP3    H233514   2.256   4.516  18.929  0.8417  0.4706  0.6595
 3107TIP3   OH233515   6.685   4.424  18.174 -0.5685 -0.2175 -0.2784
 3107TIP3    H133516   6.776   4.446  18.190 -0.2745 -0.3253 -1.7320
 3107TIP3    H233517   6.686   4.329  18.158 -0.6171  0.1050 -2.3526
 3108TIP3   OH233518   2.012   1.272  18.837 -0.0871 -0.1250  0.0117
 3108TIP3    H133519   1.967   1.231  18.764  1.0007  1.5385 -1.6777
 3108TIP3    H233520   1.954   1.344  18.864  0.8132  1.1357 -1.2475
 3109TIP3   OH233521   1.635   3.055  20.302 -0.1699 -0.6972 -1.0486
 3109TIP3    H133522   1.632   2.967  20.340  3.2932 -0.5913 -0.2064
 3109TIP3    H233523   1.595   3.045  20.216  0.9282 -3.3526 -1.3586
 3110TIP3   OH233524   3.905   4.989  18.593 -0.1288  0.2997  0.1523
 3110TIP3    H133525   3.990   5.032  18.581 -0.3622  1.2094  1.5033
 3110TIP3    H233526   3.926   4.902  18.626  0.2913  0.2639 -0.1980
 3111TIP3   OH233527   2.461   2.901  20.004  0.1627 -0.1538  0.6191
 3111TIP3    H133528   2.502   2.974  20.052  0.5923  0.8865 -1.2391
 3111TIP3    H233529   2.379   2.886  20.051  0.4340  0.9910  1.5321
 3112TIP3   OH233530   5.082   5.698  18.889  0.2579  0.1052  0.0210
 3112TIP3    H133531   5.012   5.660  18.942 -0.6904  1.9141  0.1251
 3112TIP3    H233532   5.145   5.626  18.877 -1.8858 -1.7736 -0.6205
 3113TIP3   OH233533   1.591   3.971  19.965  0.5054 -0.2420  0.7929
 3113TIP3    H133534   1.630   3.924  20.038 -1.1162 -2.3850  0.3814
 3113TIP3    H233535   1.662   3.982  19.902  0.5828 -4.3935 -0.1332
 3114TIP3   OH233536   6.100   4.075  20.893 -0.2814 -0.7025 -0.2275
 3114TIP3    H133537   6.005   4.062  20.897 -0.3943  0.3578  1.8458
 3114TIP3    H233538   6.127   4.081  20.984  1.2301  2.5910 -0.7553
 3115TIP3   OH233539   5.320   5.019  18.073 -0.4088  0.0786  0.1336
 3115TIP3    H133540   5.338   5.006  17.980  0.3959 -0.2619  0.3263
 3115TIP3    H233541   5.325   5.114  18.086 -0.8620  0.1495 -0.2378
 3116TIP3   OH233542   6.415   3.604  19.831  0.1310  0.0498 -0.3911
 3116TIP3    H133543   6.510   3.615  19.823  0.2911 -1.5204 -0.8670
 3116TIP3    H233544   6.382   3.624  19.743  0.0228  0.4131 -0.2717
 3117TIP3   OH233545   0.515   4.726  18.532 -0.1252  0.1210 -0.0127
 3117TIP3    H133546   0.516   4.641  18.489  0.2525 -0.1447  0.5052
 3117TIP3    H233547   0.509   4.790  18.461  0.6009 -0.3013 -0.4641
 3118TIP3   OH233548   5.754   6.607  19.604  0.6476  0.0886  0.2678
 3118TIP3    H133549   5.772   6.520  19.638 -0.5866 -0.4457 -0.3866
 3118TIP3    H233550   5.675   6.596  19.551  0.7103  1.5228 -0.1561
 3119TIP3   OH233551   6.487   5.706  18.394 -0.4098  0.3798  0.4655
 3119TIP3    H133552   6.471   5.800  18.390 -0.2459  0.3807 -0.2436
 3119TIP3    H233553   6.457   5.672  18.310  0.5320 -0.0372  0.2773
 3120TIP3   OH233554   0.894   3.698  21.103 -0.0197  0.2254 -0.3322
 3120TIP3    H133555   0.983   3.734  21.108  0.2996 -0.3691 -1.3501
 3120TIP3    H233556   0.837   3.772  21.124  0.6904  0.7651 -0.2511
 3121TIP3   OH233557   0.185   4.605  18.589  0.4077 -0.6503  0.2058
 3121TIP3    H133558   0.218   4.545  18.656 -0.0590 -1.5165 -0.3116
 3121TIP3    H233559   0.150   4.679  18.638  2.6297  0.0826  0.7852
 3122TIP3   OH233560   5.405   5.042  18.632  0.2081  0.5946 -0.2392
 3122TIP3    H133561   5.438   5.046  18.722 -1.1915 -0.7340  0.3959
 3122TIP3    H233562   5.480   5.015  18.580  1.4195  2.7702  0.2578
 3123TIP3   OH233563   2.514   6.560  19.957  0.4544  0.1295  0.1836
 3123TIP3    H133564   2.461   6.638  19.970 -0.5086 -0.2506 -1.2284
 3123TIP3    H233565   2.504   6.539  19.864  2.2357 -0.5750  0.0974
 3124TIP3   OH233566   1.340   1.803  20.914 -0.3613 -0.1938 -0.2434
 3124TIP3    H133567   1.394   1.875  20.882  0.8202 -1.9759 -2.5229
 3124TIP3    H233568   1.402   1.739  20.947 -1.2887 -0.8490  0.2823
 3125TIP3   OH233569   4.912   3.541  18.467 -0.1070  0.2734 -0.3128
 3125TIP3    H133570   4.862   3.535  18.386  0.1298 -0.0286 -0.4398
 3125TIP3    H233571   4.906   3.454  18.505  0.2921  0.2432 -0.3149
 3126TIP3   OH233572   2.146   4.526  19.073 -0.1935  0.0789  0.5740
 3126TIP3    H133573   2.108   4.607  19.107 -1.6031  0.0533 -0.8108
 3126TIP3    H233574   2.074   4.463  19.075 -0.9165  0.4506 -3.5883
 3127TIP3   OH233575   0.176   5.968  18.448 -0.2727  0.5632 -0.0525
 3127TIP3    H133576   0.106   5.969  18.383  0.2901  0.5982 -0.6634
 3127TIP3    H233577   0.253   5.936  18.401 -0.0605 -0.2382  0.8079
 3128TIP3   OH233578   1.577   2.142  19.397 -0.2529 -0.3131 -0.0365
 3128TIP3    H133579   1.625   2.094  19.464  1.4111  0.2252 -0.7746
 3128TIP3    H233580   1.558   2.227  19.437  1.2392  0.2231 -0.3692
 3129TIP3   OH233581   1.780   5.603  18.897  0.0352  0.0609 -0.3898
 3129TIP3    H133582   1.723   5.614  18.820  0.2314 -2.1517 -0.9217
 3129TIP3    H233583   1.851   5.548  18.866  0.3669 -0.5011  1.2670
 3130TIP3   OH233584   4.747   6.208  17.939  0.2180  0.0043 -0.3017
 3130TIP3    H133585   4.790   6.191  17.856 -0.0361 -1.7004 -0.1066
 3130TIP3    H233586   4.696   6.130  17.957  0.2019  0.3615  1.4242
 3131TIP3   OH233587   3.356   2.750  17.249 -0.0221  0.0167  0.2012
 3131TIP3    H133588   3.298   2.789  17.315  1.1684  0.5882  0.9443
 3131TIP3    H233589   3.437   2.800  17.256  1.3757 -2.1971  0.7395
 3132TIP3   OH233590   6.540   3.023  17.921 -0.2391  0.2586  0.2986
 3132TIP3    H133591   6.572   3.077  17.848  0.2534 -1.3945 -0.7900
 3132TIP3    H233592   6.457   3.063  17.946  0.5958  2.1159  0.2694
 3133TIP3   OH233593   1.282   6.671  21.400  0.4336  0.3174  0.2621
 3133TIP3    H133594   1.314   6.688  21.311  0.4053  0.2091  0.2319
 3133TIP3    H233595   1.318   6.586  21.423 -1.3533 -0.7071 -0.4945
 3134TIP3   OH233596   4.053   1.607  19.926  0.5988 -0.0742  0.1374
 3134TIP3    H133597   3.989   1.580  19.860  1.3210  0.7636 -0.9382
 3134TIP3    H233598   4.002   1.616  20.007 -0.3095 -1.0818 -0.2944
 3135TIP3   OH233599   5.245   0.048  19.050  0.1440  0.1028  0.3027
 3135TIP3    H133600   5.179   0.096  19.099 -0.3449 -1.0218  0.7840
 3135TIP3    H233601   5.268   0.106  18.977 -1.9708  0.2298 -0.3438
 3136TIP3   OH233602   4.277   0.529  18.506  0.0403  0.4492 -0.2631
 3136TIP3    H133603   4.284   0.605  18.565  0.4350  0.1230  0.1134
 3136TIP3    H233604   4.351   0.539  18.446  0.6893 -0.1599  0.4090
 3137TIP3   OH233605   2.143   3.411  18.610  0.1100  0.1312 -0.2643
 3137TIP3    H133606   2.148   3.339  18.672 -0.0791 -2.3741 -2.9551
 3137TIP3    H233607   2.234   3.438  18.597  0.3088 -0.5290 -0.2513
 3138TIP3   OH233608   4.347   1.732  18.614  0.6300 -0.1017 -0.0394
 3138TIP3    H133609   4.295   1.709  18.691 -0.6427  0.0989 -0.8080
 3138TIP3    H233610   4.406   1.800  18.644  0.6179 -0.4981  0.9187
 3139TIP3   OH233611   2.340   5.626  19.734 -0.2436  0.6168 -0.4531
 3139TIP3    H133612   2.275   5.557  19.718  1.5090 -1.0906 -0.6049
 3139TIP3    H233613   2.424   5.583  19.718  0.8953  3.1356 -1.7240
 3140TIP3   OH233614   1.222   3.685  20.402  0.1573  0.0128  0.3866
 3140TIP3    H133615   1.164   3.761  20.392 -0.1595 -0.0193  1.8543
 3140TIP3    H233616   1.168   3.611  20.375 -0.2371  0.0710  1.0016
 3141TIP3   OH233617   2.606   5.900  20.761  0.4523 -0.4211  0.1349
 3141TIP3    H133618   2.562   5.971  20.715 -0.7878 -1.7820 -0.8321
 3141TIP3    H233619   2.612   5.931  20.852  2.1684  1.9298 -0.6674
 3142TIP3   OH233620   3.085   0.034  17.643 -0.3404  0.0709 -0.2850
 3142TIP3    H133621   3.171   0.031  17.685  0.3747  2.3907 -1.4504
 3142TIP3    H233622   3.102   0.057  17.552 -2.1740  0.1997 -0.6490
 3143TIP3   OH233623   0.181   6.526  18.091  0.2818  0.0910 -0.6904
 3143TIP3    H133624   0.158   6.433  18.089 -1.1843  0.3699  0.8934
 3143TIP3    H233625   0.143   6.563  18.011 -0.8787 -0.3288 -0.3527
 3144TIP3   OH233626   3.936   1.777  20.880  0.9248  0.0720 -0.0825
 3144TIP3    H133627   3.973   1.789  20.967 -1.5599 -2.6103  1.5342
 3144TIP3    H233628   3.883   1.855  20.865  1.7136  0.7545  0.5850
 3145TIP3   OH233629   5.159   2.730  18.075 -0.0940  0.4353 -0.4280
 3145TIP3    H133630   5.068   2.704  18.085 -0.5157  1.8609 -0.3650
 3145TIP3    H233631   5.188   2.753  18.163  1.1920 -2.5383  0.0425
 3146TIP3   OH233632   2.349   3.348  17.934 -0.0462 -0.3375 -0.3596
 3146TIP3    H133633   2.426   3.355  17.878  0.7510 -2.0830  0.4612
 3146TIP3    H233634   2.290   3.289  17.888 -0.0815 -0.4856 -0.1294
 3147TIP3   OH233635   6.428   4.936  20.326  0.0888  0.2768 -0.0110
 3147TIP3    H133636   6.470   4.912  20.244  0.8549 -0.8281  0.6794
 3147TIP3    H233637   6.340   4.899  20.319  0.7236 -1.3653  0.3611
 3148TIP3   OH233638   4.188   2.104  20.878 -0.0712  0.3738  0.0256
 3148TIP3    H133639   4.094   2.119  20.874 -0.6808 -2.2535  1.7932
 3148TIP3    H233640   4.221   2.173  20.936 -1.2019  0.3943  0.6727
 3149TIP3   OH233641   2.456   3.922  18.811 -0.0550  0.0314  0.2194
 3149TIP3    H133642   2.492   3.885  18.892 -1.0614 -1.8300 -0.1344
 3149TIP3    H233643   2.363   3.931  18.829  0.0947  2.1386  0.1442
 3150TIP3   OH233644   1.817   4.944  18.588 -0.0081  0.4837  0.6309
 3150TIP3    H133645   1.829   4.953  18.493  1.2627  2.6339  0.9372
 3150TIP3    H233646   1.722   4.943  18.599 -0.2602  2.9166 -0.5418
 3151TIP3   OH233647   0.702   2.249  18.742 -0.2022  0.1408 -0.3325
 3151TIP3    H133648   0.797   2.241  18.738 -0.1500  1.1954 -2.0816
 3151TIP3    H233649   0.683   2.333  18.700 -1.8569  0.3323  0.7193
 3152TIP3   OH233650   0.041   4.876  20.766 -0.0704  0.1246 -0.1185
 3152TIP3    H133651  -0.012   4.858  20.688 -0.3494  0.7407 -0.0776
 3152TIP3    H233652   0.063   4.789  20.800 -1.4415 -0.1675  0.1144
 3153TIP3   OH233653   3.537   2.401  19.415  0.3801 -0.0666  0.0348
 3153TIP3    H133654   3.506   2.491  19.421 -1.3965 -0.5686 -1.0317
 3153TIP3    H233655   3.467   2.354  19.371  1.2260 -2.0107  0.6517
 3154TIP3   OH233656   4.663   2.287  19.381  0.2477 -0.9018 -0.4928
 3154TIP3    H133657   4.750   2.286  19.343  0.6160 -0.9886  0.3323
 3154TIP3    H233658   4.648   2.197  19.411  0.1482 -0.7372 -0.0365
 3155TIP3   OH233659   1.004   4.977  20.016 -0.3996  0.4260 -0.3856
 3155TIP3    H133660   1.040   5.032  20.086  0.4243  0.2878 -0.6894
 3155TIP3    H233661   0.936   5.031  19.975 -0.2982  0.8268 -0.0292
 3156TIP3   OH233662   6.113   6.086  19.038 -0.4166  0.2637 -0.3624
 3156TIP3    H133663   6.149   6.138  19.110  0.3303 -1.3135  0.4639
 3156TIP3    H233664   6.051   6.145  18.995  0.4093  1.8347  0.4822
 3157TIP3   OH233665   3.911   1.048  17.994 -1.1179 -0.1866 -0.6921
 3157TIP3    H133666   3.940   1.136  18.017  0.6084 -1.0329  0.6056
 3157TIP3    H233667   3.977   1.017  17.932 -1.6444 -0.6174 -1.0485
 3158TIP3   OH233668   1.735   1.365  19.915  0.2827  0.5171  0.2258
 3158TIP3    H133669   1.683   1.334  19.989  0.2096 -0.0360 -0.0571
 3158TIP3    H233670   1.676   1.422  19.866 -0.9269 -2.0492 -1.4974
 3159TIP3   OH233671   2.018   0.296  19.786 -0.3552 -0.0992 -0.6487
 3159TIP3    H133672   1.982   0.209  19.767  1.0912 -0.8718  0.0007
 3159TIP3    H233673   1.960   0.331  19.855 -0.6657 -0.7456 -0.5761
 3160TIP3   OH233674   6.475   2.444  18.487  0.1971 -0.3895  0.6080
 3160TIP3    H133675   6.493   2.391  18.410 -0.6793  2.1012 -1.4479
 3160TIP3    H233676   6.394   2.406  18.523 -1.0485  0.1288 -1.4702
 3161TIP3   OH233677   4.318   1.504  19.082  0.4528  0.2006 -0.2123
 3161TIP3    H133678   4.223   1.500  19.068  0.2003 -1.2310  1.5383
 3161TIP3    H233679   4.327   1.529  19.174  1.6631 -2.4841  0.4883
 3162TIP3   OH233680   4.050   5.957  19.638 -0.2671  0.4812  0.6789
 3162TIP3    H133681   4.115   6.016  19.678 -1.1424  0.9553  1.4370
 3162TIP3    H233682   4.008   6.011  19.571 -1.2219  0.8162  1.5225
 3163TIP3   OH233683   0.502   4.203  17.998  0.9362  0.4385  0.1528
 3163TIP3    H133684   0.471   4.286  17.962  1.6410  0.9775  0.7609
 3163TIP3    H233685   0.442   4.138  17.962  0.0459  1.2699  0.0853
 3164TIP3   OH233686   0.176   1.810  17.559 -0.6316 -0.6388  0.0392
 3164TIP3    H133687   0.122   1.815  17.480 -0.3299 -0.1887 -0.1478
 3164TIP3    H233688   0.170   1.719  17.587  0.9082 -1.3310 -1.6715
 3165TIP3   OH233689   0.738   3.738  20.444  0.2092  0.0375 -0.1714
 3165TIP3    H133690   0.818   3.787  20.466  1.6612 -2.1668 -0.1596
 3165TIP3    H233691   0.681   3.750  20.520  1.8911 -0.9330  1.3577
 3166TIP3   OH233692   0.926   2.760  18.937 -0.0224 -0.0434 -0.2413
 3166TIP3    H133693   0.999   2.801  18.892  1.6974 -0.9523  1.5696
 3166TIP3    H233694   0.902   2.686  18.881  0.0533  0.5876 -1.1219
 3167TIP3   OH233695   3.382   1.022  20.655  0.2603 -0.3653  0.7771
 3167TIP3    H133696   3.331   1.098  20.628 -0.2595 -1.1642 -0.6013
 3167TIP3    H233697   3.458   1.059  20.699 -0.2924  0.9295  0.6993
 3168TIP3   OH233698   4.355   6.276  20.124 -0.2304  0.2341 -0.4869
 3168TIP3    H133699   4.442   6.300  20.158 -1.1767  0.9942  1.5816
 3168TIP3    H233700   4.330   6.349  20.068 -0.3593  1.0233  0.5650
 3169TIP3   OH233701   2.020   1.700  20.482 -0.3604 -0.1995 -0.0097
 3169TIP3    H133702   2.014   1.674  20.390 -1.2950 -0.0509 -0.0020
 3169TIP3    H233703   2.100   1.658  20.513  0.2846  0.2257 -1.0310
 3170TIP3   OH233704   6.166   2.896  20.806 -0.2929  0.3836 -0.0227
 3170TIP3    H133705   6.198   2.967  20.861  0.1161  0.6439 -0.5834
 3170TIP3    H233706   6.242   2.873  20.751 -0.6508  0.0395 -0.3759
 3171TIP3   OH233707   2.314   3.021  18.069 -0.1703  0.4908  0.1890
 3171TIP3    H133708   2.274   3.052  17.988 -0.6559  1.4420  0.7798
 3171TIP3    H233709   2.402   3.059  18.069  0.8557 -1.7009 -1.1720
 3172TIP3   OH233710   3.017   5.278  20.886 -0.3532  0.4502 -0.6156
 3172TIP3    H133711   3.058   5.364  20.889  1.9129 -0.5642  1.8930
 3172TIP3    H233712   3.086   5.219  20.855 -0.5529 -0.9703  1.3948
 3173TIP3   OH233713   2.719   2.653  17.886 -0.0221  0.0989  0.3980
 3173TIP3    H133714   2.675   2.710  17.823  1.6349  0.5258 -0.4436
 3173TIP3    H233715   2.676   2.670  17.969 -0.7958  1.1921 -0.2043
 3174TIP3   OH233716   0.035   2.664  17.908  0.2210  0.1489  0.5820
 3174TIP3    H133717   0.093   2.593  17.879 -1.1379 -1.2717  1.1688
 3174TIP3    H233718   0.093   2.727  17.950  1.4207 -0.8820  0.5414
 3175TIP3   OH233719   4.547   3.779  18.339  0.7061 -0.1033 -0.3027
 3175TIP3    H133720   4.615   3.791  18.406  1.1695 -0.9066 -0.6158
 3175TIP3    H233721   4.581   3.825  18.262  1.2501 -1.0880 -0.6784
 3176TIP3   OH233722   2.807   5.113  20.656 -0.2441 -0.2070 -0.3953
 3176TIP3    H133723   2.758   5.110  20.738  1.0869  0.0687  0.4438
 3176TIP3    H233724   2.839   5.023  20.645 -1.3445 -0.5175 -1.2203
 3177TIP3   OH233725   1.853   5.696  20.513  0.4678  0.4661  0.2786
 3177TIP3    H133726   1.906   5.668  20.588 -2.1788 -0.8480  1.8210
 3177TIP3    H233727   1.777   5.637  20.514  0.5575 -0.0563 -3.8676
 3178TIP3   OH233728   6.033   6.585  19.263 -0.4025 -0.0003 -0.0526
 3178TIP3    H133729   6.055   6.667  19.305  1.6269 -1.7834  2.7013
 3178TIP3    H233730   5.937   6.585  19.259 -0.4728  2.2048  0.3783
 3179TIP3   OH233731   4.180   2.936  20.321 -0.2121  0.3529 -0.2551
 3179TIP3    H133732   4.235   2.955  20.245 -0.1429  1.0236 -0.0453
 3179TIP3    H233733   4.199   3.007  20.383 -0.4274 -0.0639  0.3035
 3180TIP3   OH233734   1.548   1.333  18.090  0.0433  0.0400 -0.1363
 3180TIP3    H133735   1.535   1.253  18.039 -1.1845  0.6497 -0.8291
 3180TIP3    H233736   1.508   1.402  18.037 -1.2571  0.7074  1.6003
 3181TIP3   OH233737   0.153   1.747  20.852 -0.4236  0.0594 -0.4635
 3181TIP3    H133738   0.184   1.688  20.784  2.2353  0.3913  0.3205
 3181TIP3    H233739   0.219   1.817  20.855 -2.5418  2.1861 -0.1896
 3182TIP3   OH233740   4.093   1.902  19.681  0.2164 -0.0086  0.5788
 3182TIP3    H133741   4.156   1.830  19.674  1.3972  0.9691  0.8466
 3182TIP3    H233742   4.066   1.919  19.590 -1.4415 -1.9148  0.6481
 3183TIP3   OH233743   0.891   0.502  19.945  0.0294 -0.3306 -0.1467
 3183TIP3    H133744   0.966   0.503  19.886  0.1402  0.0810  0.0028
 3183TIP3    H233745   0.824   0.552  19.899 -0.0340 -0.3895 -0.1196
 3184TIP3   OH233746   0.445   5.867  18.826  0.1118 -0.3283 -0.4658
 3184TIP3    H133747   0.513   5.892  18.889 -0.3827 -1.7857  0.6975
 3184TIP3    H233748   0.481   5.792  18.780 -1.0125 -1.6743  0.7773
 3185TIP3   OH233749   1.310   0.649  20.124  0.0197  1.0963 -0.2663
 3185TIP3    H133750   1.392   0.698  20.123  0.3304  0.5855 -1.5141
 3185TIP3    H233751   1.242   0.716  20.127  0.4710  1.5401  0.2186
 3186TIP3   OH233752   5.361   6.303  18.932  1.1852 -0.1944 -0.4665
 3186TIP3    H133753   5.357   6.388  18.889  1.8940  0.3141  0.4540
 3186TIP3    H233754   5.271   6.286  18.960  1.3940  1.2896  1.2723
 3187TIP3   OH233755   3.336   0.973  19.940 -0.0765  0.5708  0.1094
 3187TIP3    H133756   3.293   1.045  19.895 -1.0074 -0.3683 -0.5684
 3187TIP3    H233757   3.300   0.894  19.899  1.4989 -0.2794  0.2684
 3188TIP3   OH233758   4.559   2.608  18.292 -0.3221  0.2849 -0.2195
 3188TIP3    H133759   4.485   2.554  18.318  0.4631 -0.2212  1.0559
 3188TIP3    H233760   4.618   2.549  18.246  0.6258 -0.0625  1.3425
 3189TIP3   OH233761   5.181   1.553  18.870 -0.4419  0.2477 -1.1671
 3189TIP3    H133762   5.136   1.637  18.878 -1.3245 -0.4171  1.8148
 3189TIP3    H233763   5.112   1.489  18.858 -0.0616 -0.4235  0.1044
 3190TIP3   OH233764   3.802   4.827  20.671 -0.0084 -0.0003  0.3057
 3190TIP3    H133765   3.852   4.857  20.746 -0.2664  1.9235 -0.2484
 3190TIP3    H233766   3.731   4.775  20.709  0.5402 -0.0553  1.2920
 3191TIP3   OH233767   3.472   3.770  20.026  0.0421 -0.2612  0.2849
 3191TIP3    H133768   3.516   3.764  20.111  1.5759 -1.0999 -0.5063
 3191TIP3    H233769   3.506   3.850  19.987  1.0571 -1.0022 -0.4020
 3192TIP3   OH233770   4.233   2.479  18.252 -0.0835  0.0625 -0.7884
 3192TIP3    H133771   4.166   2.423  18.214 -0.3936  0.8333 -1.4129
 3192TIP3    H233772   4.239   2.452  18.344 -0.4227 -0.7864 -1.0130
 3193TIP3   OH233773   1.623   3.218  19.169 -0.2221 -0.2869  0.3616
 3193TIP3    H133774   1.696   3.280  19.163 -0.2256 -0.1391  1.6045
 3193TIP3    H233775   1.594   3.206  19.078  2.0005 -1.1364 -0.2899
 3194TIP3   OH233776   5.491   4.246  20.384 -0.5201 -0.0431  0.4030
 3194TIP3    H133777   5.567   4.207  20.428  1.4956  1.8187 -1.1468
 3194TIP3    H233778   5.488   4.203  20.299 -1.0375  0.0764  0.3604
 3195TIP3   OH233779   5.135   3.688  17.889 -0.2540 -0.1577  0.1330
 3195TIP3    H133780   5.229   3.704  17.879 -0.7188  2.1682 -1.3026
 3195TIP3    H233781   5.101   3.768  17.929 -1.6042 -1.0746  0.9006
 3196TIP3   OH233782   5.920   4.288  19.244  0.6750 -0.0230 -0.1893
 3196TIP3    H133783   5.875   4.221  19.294 -0.2582 -0.9371 -2.1527
 3196TIP3    H233784   6.011   4.283  19.273  0.1775 -0.4524  1.4103
 3197TIP3   OH233785   2.463   2.790  20.780 -0.4359  0.2609  0.1586
 3197TIP3    H133786   2.535   2.800  20.842 -1.7004 -0.3236  1.7839
 3197TIP3    H233787   2.429   2.879  20.769 -0.7362  0.2526  0.9769
 3198TIP3   OH233788   2.170   4.443  17.424  0.1380 -0.1125 -0.2973
 3198TIP3    H133789   2.198   4.385  17.353 -1.2903  1.0724 -1.9145
 3198TIP3    H233790   2.199   4.530  17.396 -2.0998  0.6512 -0.4180
 3199TIP3   OH233791   2.629   5.133  18.361  0.4445 -0.2431  0.2388
 3199TIP3    H133792   2.681   5.211  18.339 -0.2714  0.7755  1.9332
 3199TIP3    H233793   2.618   5.138  18.456 -0.2135 -2.0642  0.2869
 3200TIP3   OH233794   1.720   1.803  20.874 -0.1087  0.1034 -0.1785
 3200TIP3    H133795   1.655   1.868  20.845  0.2081  0.1347 -0.8296
 3200TIP3    H233796   1.668   1.724  20.892 -0.8076  1.1039  2.7044
 3201TIP3   OH233797   2.395   0.602  20.691  0.1092  0.3364  0.6730
 3201TIP3    H133798   2.430   0.636  20.609  0.9125  0.5749  1.1013
 3201TIP3    H233799   2.470   0.561  20.734 -0.5585 -0.8717  0.7486
 3202TIP3   OH233800   0.154   5.668  19.973 -0.3355  0.2943 -0.3139
 3202TIP3    H133801   0.141   5.706  20.061 -1.3327  0.7151 -0.6295
 3202TIP3    H233802   0.078   5.697  19.923 -0.0667 -0.4252 -1.1650
 3203TIP3   OH233803   3.749   5.741  18.823 -0.0723  0.2770 -0.3438
 3203TIP3    H133804   3.787   5.690  18.895  0.2139  1.6570  0.5018
 3203TIP3    H233805   3.822   5.753  18.762 -0.2237 -0.5761 -0.7182
 3204TIP3   OH233806   4.997   0.744  18.502  0.2280 -0.0350 -0.2772
 3204TIP3    H133807   4.941   0.720  18.428 -0.7449 -0.2756  0.5097
 3204TIP3    H233808   4.990   0.670  18.563  3.5595 -1.3568 -1.2694
 3205TIP3   OH233809   1.679   1.634  18.072 -0.3150  0.1960  0.2305
 3205TIP3    H133810   1.680   1.729  18.057  0.5993  0.0514 -0.7900
 3205TIP3    H233811   1.770   1.611  18.087 -0.3103 -0.7230 -1.0314
 3206TIP3   OH233812   3.964   5.316  19.121  0.3544 -0.4083  0.4740
 3206TIP3    H133813   3.989   5.241  19.067 -0.3433  0.7282 -1.5177
 3206TIP3    H233814   3.877   5.340  19.089  1.4795  2.6589 -0.5757
 3207TIP3   OH233815   2.838   6.085  18.663  0.4359 -0.4791 -0.0533
 3207TIP3    H133816   2.787   6.111  18.587 -1.4991 -0.6038  1.1383
 3207TIP3    H233817   2.774   6.051  18.725  2.1320 -1.9562  1.0087
 3208TIP3   OH233818   0.738   5.016  18.415  0.0786 -0.5504 -0.0247
 3208TIP3    H133819   0.758   5.061  18.333 -0.2509 -0.4554 -0.0545
 3208TIP3    H233820   0.750   4.923  18.395  2.8392 -0.4145  0.5966
 3209TIP3   OH233821   2.010   5.835  20.951 -0.2429  0.0770 -0.2367
 3209TIP3    H133822   2.061   5.915  20.966  0.3705 -0.7480  2.6802
 3209TIP3    H233823   2.023   5.783  21.030 -4.6038 -0.7874  0.1555
 3210TIP3   OH233824   0.127   0.161  20.296 -0.8553  0.5978  0.2623
 3210TIP3    H133825   0.148   0.069  20.314 -1.5609  0.0828 -1.3046
 3210TIP3    H233826   0.197   0.211  20.338 -0.8375 -0.6076  1.7457
 3211TIP3   OH233827   3.430   3.370  19.998 -0.4145  0.2115 -0.4201
 3211TIP3    H133828   3.380   3.289  19.990 -1.6605  0.8608  0.5702
 3211TIP3    H233829   3.518   3.341  20.024 -0.8442 -0.8209 -0.0689
 3212TIP3   OH233830   4.632   2.030  21.061  0.1731 -0.2559 -0.3174
 3212TIP3    H133831   4.594   2.084  20.992 -0.3579 -0.8819 -0.5263
 3212TIP3    H233832   4.726   2.048  21.057 -0.1215  1.8152  0.6400
 3213TIP3   OH233833   2.211   0.314  21.335 -0.2979  0.4016  0.1226
 3213TIP3    H133834   2.154   0.391  21.331  0.0955  0.7723  1.3480
 3213TIP3    H233835   2.161   0.249  21.385  0.1587  0.5775  0.8287
 3214TIP3   OH233836   3.401   2.467  20.023 -0.2820  0.3164  0.0437
 3214TIP3    H133837   3.388   2.392  20.081 -2.8368 -0.1270 -0.9482
 3214TIP3    H233838   3.494   2.465  20.001 -0.1347 -2.1140  0.6388
 3215TIP3   OH233839   2.200   0.814  19.296 -0.2862  0.2818  0.0344
 3215TIP3    H133840   2.222   0.740  19.352 -1.9157  0.2351  0.6960
 3215TIP3    H233841   2.182   0.776  19.210  1.1693  0.2218 -0.2672
 3216TIP3   OH233842   4.157   6.311  20.452  0.0786 -0.1110 -0.1869
 3216TIP3    H133843   4.252   6.302  20.449  0.1344 -2.1495  2.9632
 3216TIP3    H233844   4.125   6.249  20.386  0.8788  0.5935 -1.2757
 3217TIP3   OH233845   6.208   5.724  20.158 -0.1777 -0.6822 -0.1523
 3217TIP3    H133846   6.140   5.664  20.125 -0.6858 -1.6943  2.4853
 3217TIP3    H233847   6.160   5.801  20.187  0.2653  0.2038 -1.6619
 3218TIP3   OH233848   3.387   1.523  20.358  0.2522 -0.0434 -0.3734
 3218TIP3    H133849   3.479   1.518  20.334  0.3385 -0.0551 -0.0449
 3218TIP3    H233850   3.375   1.612  20.391  0.3120 -0.2577  0.2423
 3219TIP3   OH233851   0.575   4.740  19.946  0.2247  0.4833 -0.3768
 3219TIP3    H133852   0.488   4.754  19.986 -0.6915 -1.2229 -1.6667
 3219TIP3    H233853   0.578   4.803  19.874 -0.1876  0.1680 -0.6744
 3220TIP3   OH233854   0.434   1.423  18.011 -0.0840 -0.5637  0.4000
 3220TIP3    H133855   0.492   1.492  18.045 -0.4497 -0.8395  1.6566
 3220TIP3    H233856   0.419   1.447  17.920 -0.2944  1.1018  0.8271
 3221TIP3   OH233857   4.556   4.677  19.241  0.0958 -0.0898  0.7913
 3221TIP3    H133858   4.621   4.719  19.184  0.3360 -0.1382  1.0275
 3221TIP3    H233859   4.499   4.749  19.268 -0.6385 -0.2287 -0.3247
 3222TIP3   OH233860   4.941   6.041  18.773 -0.1178  0.2901  0.5833
 3222TIP3    H133861   4.929   6.134  18.792  1.0290  0.7033 -0.5502
 3222TIP3    H233862   4.932   5.998  18.857 -3.2574  1.0961  0.8107
 3223TIP3   OH233863   0.357   1.715  19.928 -0.0727  0.0638 -0.3613
 3223TIP3    H133864   0.419   1.702  19.856  1.1312 -1.0055  0.8199
 3223TIP3    H233865   0.333   1.626  19.955 -0.7137  0.4539  0.3853
 3224TIP3   OH233866   4.395   5.007  18.387  0.1773 -0.6206 -0.0045
 3224TIP3    H133867   4.353   4.932  18.345 -0.7072 -0.7906  1.1317
 3224TIP3    H233868   4.421   4.974  18.473  0.9003  0.0367  0.0330
 3225TIP3   OH233869   0.231   4.005  18.312 -0.3497  0.0313 -0.2878
 3225TIP3    H133870   0.255   3.928  18.259  1.1730  0.7900 -0.7509
 3225TIP3    H233871   0.269   3.988  18.398 -1.0632 -0.2591 -0.0142
 3226TIP3   OH233872   5.758   6.393  18.831  0.5028  0.3664  0.1275
 3226TIP3    H133873   5.731   6.358  18.916 -0.9328  0.4437 -0.2570
 3226TIP3    H233874   5.758   6.488  18.843  1.6424  0.3418  0.4026
 3227TIP3   OH233875   2.001   6.156  18.042 -0.0202  0.4870  0.4126
 3227TIP3    H133876   1.926   6.102  18.067  0.0670  0.2145  0.0937
 3227TIP3    H233877   2.005   6.149  17.946 -0.2403  1.3639  0.3284
 3228TIP3   OH233878   3.211   3.838  17.586  0.2946  0.5116  0.4024
 3228TIP3    H133879   3.255   3.830  17.671 -0.1482  0.8305  0.6623
 3228TIP3    H233880   3.276   3.882  17.530  0.2963  1.0244  0.7994
 3229TIP3   OH233881   3.593   3.325  20.690  0.2975  0.3605 -0.4555
 3229TIP3    H133882   3.522   3.377  20.729 -0.0078  0.3736 -1.0097
 3229TIP3    H233883   3.673   3.369  20.717  0.2379 -0.7865  1.8731
 3230TIP3   OH233884   0.600   3.279  20.231 -0.0434 -0.0926 -0.4847
 3230TIP3    H133885   0.618   3.185  20.240 -0.3511 -0.2118 -1.0548
 3230TIP3    H233886   0.685   3.318  20.216  0.8346  0.3380  4.1130
 3231TIP3   OH233887   4.289   2.202  20.455 -0.3073  0.3436 -0.0051
 3231TIP3    H133888   4.360   2.142  20.430 -0.1471  0.0524  1.0737
 3231TIP3    H233889   4.295   2.274  20.392  0.6939  0.1294 -0.1782
 3232TIP3   OH233890   4.943   3.688  19.449  0.2985  0.3973  0.2205
 3232TIP3    H133891   4.985   3.617  19.399  0.5144  1.3637 -1.0089
 3232TIP3    H233892   4.929   3.650  19.536  2.0041 -0.5808  0.1168
 3233TIP3   OH233893   3.505   3.895  21.108 -0.2475 -0.3924 -0.4436
 3233TIP3    H133894   3.426   3.900  21.055 -1.1787 -0.6046  0.8783
 3233TIP3    H233895   3.558   3.969  21.079 -1.6997  0.8026 -0.1621
 3234TIP3   OH233896   2.753   5.554  19.493 -0.0234  0.0575 -0.4516
 3234TIP3    H133897   2.747   5.499  19.415 -0.8911 -0.9378  0.2766
 3234TIP3    H233898   2.840   5.593  19.489  1.8393 -3.6083  0.4223
 3235TIP3   OH233899   5.877   5.530  20.746 -0.0322  0.0684 -0.2272
 3235TIP3    H133900   5.810   5.533  20.814 -0.0866 -0.6433 -0.2411
 3235TIP3    H233901   5.911   5.441  20.750  1.4222  0.6155  0.2499
 3236TIP3   OH233902   2.634   5.936  19.847 -0.0987  0.0986 -0.0458
 3236TIP3    H133903   2.542   5.956  19.832  0.2376  0.5101 -1.8516
 3236TIP3    H233904   2.677   5.954  19.763  1.4535 -1.1433  0.4145
 3237TIP3   OH233905   0.363   6.420  19.282  0.0796 -0.7911 -0.2908
 3237TIP3    H133906   0.294   6.485  19.294 -0.3717 -1.4915  1.2766
 3237TIP3    H233907   0.388   6.396  19.371  0.0228 -2.9524 -0.8013
 3238TIP3   OH233908   6.314   2.969  20.086  0.1880  0.3371 -0.2074
 3238TIP3    H133909   6.235   3.023  20.080 -0.3824 -0.6342 -3.1268
 3238TIP3    H233910   6.295   2.907  20.157 -0.5031  1.8150  0.9643
 3239TIP3   OH233911   4.639   5.605  20.544  0.1139 -0.5028 -0.7830
 3239TIP3    H133912   4.693   5.558  20.480  0.5451 -0.4078 -0.4904
 3239TIP3    H233913   4.678   5.692  20.550  0.8079 -0.8726  0.4796
 3240TIP3   OH233914   4.740   1.204  17.697 -0.1618 -0.4169 -0.1442
 3240TIP3    H133915   4.705   1.270  17.637 -0.7475 -2.9848 -2.8735
 3240TIP3    H233916   4.812   1.249  17.742 -1.5573  2.5127 -0.5516
 3241TIP3   OH233917   4.683   2.447  17.210  0.0358  0.1905 -0.6765
 3241TIP3    H133918   4.622   2.378  17.237  0.9777 -0.9115 -1.3001
 3241TIP3    H233919   4.650   2.475  17.125 -0.2382  0.3771 -0.5109
 3242TIP3   OH233920   2.687   4.562  19.462  0.2534 -0.1182  0.2746
 3242TIP3    H133921   2.601   4.527  19.436 -1.3378  2.6087  1.4275
 3242TIP3    H233922   2.716   4.611  19.386 -1.2097  2.2645  1.1397
 3243TIP3   OH233923   4.735   0.340  18.993 -0.1648  0.3956  0.2859
 3243TIP3    H133924   4.679   0.417  18.995 -0.9321 -0.0914 -1.2062
 3243TIP3    H233925   4.733   0.310  18.902  0.7265 -0.9471  0.6645
 3244TIP3   OH233926   3.713   3.899  19.594  0.1248  0.0213  0.0498
 3244TIP3    H133927   3.653   3.846  19.647  0.1442  0.3044  0.3631
 3244TIP3    H233928   3.800   3.874  19.626  0.0851  1.4818  1.4390
 3245TIP3   OH233929   5.157   4.808  17.559 -0.0377 -0.5190  0.0175
 3245TIP3    H133930   5.092   4.878  17.548 -1.0567 -1.3108  0.8396
 3245TIP3    H233931   5.110   4.728  17.536  0.8146 -1.0600  0.1097
 3246TIP3   OH233932   1.893   4.392  18.748  0.2903 -0.3576  0.3618
 3246TIP3    H133933   1.937   4.309  18.732 -0.1909 -0.5615  0.0438
 3246TIP3    H233934   1.942   4.456  18.696  0.2267 -0.5753  0.0294
 3247TIP3   OH233935   0.468   4.725  21.403  0.1246  0.1417 -0.3183
 3247TIP3    H133936   0.386   4.763  21.373  0.2448  0.6088 -0.0716
 3247TIP3    H233937   0.455   4.709  21.496  0.6751  1.2331 -0.0385
 3248TIP3   OH233938   2.619   3.230  21.025 -0.0652  0.1828  0.1629
 3248TIP3    H133939   2.580   3.193  21.105  1.9293 -1.1455  0.5970
 3248TIP3    H233940   2.544   3.263  20.975 -1.4118  0.8209  2.4409
 3249TIP3   OH233941   2.916   2.086  20.460 -0.8901 -1.0239 -1.0431
 3249TIP3    H133942   2.889   1.995  20.469 -1.6924 -0.7202 -0.3108
 3249TIP3    H233943   2.849   2.136  20.507  0.6452 -0.1994  0.3410
 3250TIP3   OH233944   3.941   5.187  18.874 -0.1851  0.0712  0.0461
 3250TIP3    H133945   3.920   5.142  18.792 -0.3193  0.0241  0.1074
 3250TIP3    H233946   3.856   5.210  18.911 -0.1313 -0.1382  0.3014
 3251TIP3   OH233947   6.689   6.006  19.673 -0.0982 -0.1276 -0.3295
 3251TIP3    H133948   6.682   6.101  19.669 -1.1352 -0.1765  0.0034
 3251TIP3    H233949   6.728   5.981  19.589  1.5225  0.6789  0.1429
 3252TIP3   OH233950   2.332   6.065  18.919  0.0674 -0.8612 -0.1767
 3252TIP3    H133951   2.381   6.146  18.901 -0.8285 -0.0132  0.9762
 3252TIP3    H233952   2.339   6.055  19.014  1.5943 -3.1183 -0.4640
 3253TIP3   OH233953   0.748   0.006  20.822  0.4936  0.0864 -0.0542
 3253TIP3    H133954   0.653   0.013  20.820  0.4539 -0.5416 -1.4125
 3253TIP3    H233955   0.779   0.096  20.830 -0.2076  0.4255 -1.0209
 3254TIP3   OH233956   4.936   5.537  17.639  0.3247 -0.8220  0.1364
 3254TIP3    H133957   4.924   5.558  17.546  1.4684 -0.2377  0.1005
 3254TIP3    H233958   4.934   5.441  17.643 -2.6947 -0.8413 -0.0406
 3255TIP3   OH233959   3.676   5.827  18.425  0.0987 -0.0156  0.3214
 3255TIP3    H133960   3.585   5.803  18.442  0.1982 -0.1361  0.6755
 3255TIP3    H233961   3.714   5.750  18.383  0.3411 -0.3842  1.1985
 3256TIP3   OH233962   5.636   6.323  19.070  0.5895 -0.2318 -1.0302
 3256TIP3    H133963   5.546   6.331  19.038  0.1358  0.4543  0.3502
 3256TIP3    H233964   5.630   6.264  19.145  0.9449  1.3619  0.2909
 3257TIP3   OH233965   2.428   5.429  20.912  0.0826 -0.5285  0.2758
 3257TIP3    H133966   2.427   5.394  20.823 -1.4559 -0.4253  0.2224
 3257TIP3    H233967   2.517   5.463  20.924  0.3962 -0.8092 -1.1061
 3258TIP3   OH233968   1.931   0.344  19.529  0.0186  0.2506  0.3903
 3258TIP3    H133969   1.835   0.351  19.535 -0.2040 -2.0761  0.2006
 3258TIP3    H233970   1.962   0.355  19.619 -0.4678  0.4022  0.5419
 3259TIP3   OH233971   0.450   6.395  19.678  0.1948 -0.2819 -0.0168
 3259TIP3    H133972   0.357   6.408  19.660  0.3677  1.7370  0.3383
 3259TIP3    H233973   0.453   6.313  19.727 -1.5531  0.1621  0.9444
 3260TIP3   OH233974   0.609   3.366  18.439 -0.2153  0.0916 -0.0129
 3260TIP3    H133975   0.555   3.341  18.514 -2.0359  1.1817 -0.8738
 3260TIP3    H233976   0.550   3.358  18.364  0.7685  1.4818 -0.9801
 3261TIP3   OH233977   4.963   1.961  20.475 -0.4723  0.2145 -0.0251
 3261TIP3    H133978   5.037   2.019  20.495  0.9703 -1.4456 -0.3300
 3261TIP3    H233979   4.917   1.951  20.558 -1.0702  2.1224 -0.0550
 3262TIP3   OH233980   4.972   1.860  20.109 -0.0442 -0.2854 -0.0433
 3262TIP3    H133981   4.997   1.828  20.196 -0.3214 -0.4470 -0.0213
 3262TIP3    H233982   4.950   1.781  20.059 -1.5845 -0.0998  0.2815
 3263TIP3   OH233983   3.019   0.298  19.571  0.2901  0.3968 -0.2092
 3263TIP3    H133984   3.029   0.339  19.485  3.0184 -1.7579 -1.0590
 3263TIP3    H233985   3.080   0.346  19.628 -0.2160  0.7013  0.0798
 3264TIP3   OH233986   4.643   1.561  19.961  0.4273  0.1640 -0.5511
 3264TIP3    H133987   4.656   1.474  19.923 -1.2627 -0.0667 -0.6563
 3264TIP3    H233988   4.732   1.593  19.978  1.0806 -1.6428 -0.3465
 3265TIP3   OH233989   1.699   3.457  18.962 -0.3857 -0.4843 -0.1877
 3265TIP3    H133990   1.748   3.380  18.935 -1.9263 -1.0462 -1.5320
 3265TIP3    H233991   1.752   3.531  18.933  0.8759 -1.0160  0.6844
 3266TIP3   OH233992   3.061   1.542  20.450 -0.2320 -0.3817  0.4928
 3266TIP3    H133993   3.101   1.626  20.471  0.3454 -0.3925 -0.4953
 3266TIP3    H233994   2.968   1.555  20.468 -0.3300  0.8693 -0.7557
 3267TIP3   OH233995   5.733   0.247  20.268  0.0585 -0.1349  0.4223
 3267TIP3    H133996   5.816   0.258  20.315  0.9913 -0.7828 -0.9948
 3267TIP3    H233997   5.691   0.173  20.311  1.9501 -2.2349 -1.0571
 3268TIP3   OH233998   0.720   0.986  19.378 -0.2580 -0.0767 -0.2261
 3268TIP3    H133999   0.806   0.981  19.336  0.7219  0.5343  1.6099
 3268TIP3    H234000   0.718   1.072  19.419 -0.8706 -0.8815  1.5320
 3269TIP3   OH234001   2.901   1.110  18.829 -0.3403 -0.3270 -0.0631
 3269TIP3    H134002   2.993   1.116  18.802 -1.1583  0.9097 -2.9666
 3269TIP3    H234003   2.881   1.196  18.866 -0.2286 -0.7603  1.0357
 3270TIP3   OH234004   0.836   1.348  20.952  0.4243  0.2182 -0.3605
 3270TIP3    H134005   0.878   1.430  20.925  0.1473  0.8948  1.1614
 3270TIP3    H234006   0.742   1.365  20.940  0.3138  0.4353  0.7045
 3271TIP3   OH234007   4.004   4.310  20.747  0.2783  0.4698 -0.2604
 3271TIP3    H134008   4.020   4.240  20.684 -3.2630 -2.1383  1.3546
 3271TIP3    H234009   4.024   4.271  20.832 -2.3893  1.0627  0.7393
 3272TIP3   OH234010   3.754   0.826  19.717 -0.0622  0.3175  0.3227
 3272TIP3    H134011   3.691   0.797  19.783  0.2823 -0.1308  0.4577
 3272TIP3    H234012   3.702   0.876  19.654 -0.5504 -0.0455  0.4354
 3273TIP3   OH234013   4.111   2.460  19.960  0.2232  0.4464 -0.1479
 3273TIP3    H134014   4.192   2.442  19.912 -0.3548  0.8336 -1.3176
 3273TIP3    H234015   4.112   2.555  19.973  0.0872  0.4156  0.0895
 3274TIP3   OH234016   4.588   6.564  18.054  0.2238  0.1983 -0.6168
 3274TIP3    H134017   4.629   6.619  17.986 -1.5056  3.0001  0.4068
 3274TIP3    H234018   4.503   6.606  18.070  0.0491 -1.0525  2.3982
 3275TIP3   OH234019   1.355   3.183  18.436 -0.0089  0.1284  0.3051
 3275TIP3    H134020   1.264   3.154  18.442 -1.0037  3.0076  0.6024
 3275TIP3    H234021   1.369   3.200  18.343  0.2377 -0.2340  0.2700
 3276TIP3   OH234022   0.006   6.642  18.296 -0.1232  0.0755  0.3360
 3276TIP3    H134023  -0.015   6.712  18.359 -0.5739  0.8154 -0.5964
 3276TIP3    H234024  -0.057   6.656  18.225  0.1152 -0.9909 -0.0896
 3277TIP3   OH234025   1.055   4.406  20.988  0.4118 -0.3676  0.0425
 3277TIP3    H134026   1.103   4.324  21.003  0.3508 -0.0401  2.2679
 3277TIP3    H234027   1.122   4.474  20.995  0.5199 -0.1749 -2.1082
 3278TIP3   OH234028   1.427   2.560  20.584 -0.1914  0.1649  0.0651
 3278TIP3    H134029   1.434   2.521  20.671  2.6385  0.4022  0.0235
 3278TIP3    H234030   1.431   2.654  20.599 -0.0438  0.2184 -0.2962
 3279TIP3   OH234031   4.331   2.109  19.165  0.9340 -0.1279  0.3458
 3279TIP3    H134032   4.237   2.089  19.167  0.7142  0.8597  2.0642
 3279TIP3    H234033   4.339   2.178  19.100  0.4264 -0.0900  0.3188
 3280TIP3   OH234034   5.812   0.870  19.015  0.4690  0.2979 -0.3685
 3280TIP3    H134035   5.905   0.850  19.015  0.3656 -0.1887 -1.2799
 3280TIP3    H234036   5.802   0.939  18.950 -0.0680 -0.9293 -1.6272
 3281TIP3   OH234037   2.871   2.399  18.438  0.3014 -1.0692 -0.4187
 3281TIP3    H134038   2.799   2.336  18.442  0.7730 -1.5776  1.2050
 3281TIP3    H234039   2.944   2.354  18.482  1.0171  0.1478 -0.3077
 3282TIP3   OH234040   4.391   3.241  19.760 -0.3635 -0.3105 -0.2823
 3282TIP3    H134041   4.331   3.200  19.822 -1.5899 -0.2646 -1.4194
 3282TIP3    H234042   4.409   3.328  19.798  0.0671 -0.8269  0.7292
 3283TIP3   OH234043   1.353   4.166  19.629 -0.3120  0.0796  0.0469
 3283TIP3    H134044   1.267   4.159  19.671 -0.3689  2.1526  0.4160
 3283TIP3    H234045   1.333   4.191  19.539 -0.1162 -0.6085 -0.1890
 3284TIP3   OH234046   2.898   5.338  19.966 -0.4524  0.6663  0.2010
 3284TIP3    H134047   2.985   5.331  20.005 -0.2032 -0.3680 -0.5236
 3284TIP3    H234048   2.888   5.259  19.913 -2.3041  0.1887  1.1838
 3285TIP3   OH234049   4.743   3.419  20.297  0.0330  0.7522  0.2622
 3285TIP3    H134050   4.816   3.476  20.269  2.4684 -2.5187 -0.6806
 3285TIP3    H234051   4.746   3.345  20.236 -1.8512 -1.2208  2.3821
 3286TIP3   OH234052   3.459   3.853  18.989 -0.2942  0.0168  0.3205
 3286TIP3    H134053   3.399   3.917  18.950 -0.5399 -1.4833 -1.9818
 3286TIP3    H234054   3.410   3.771  18.988  1.3247 -0.9955 -0.4685
 3287TIP3   OH234055   2.280   0.469  18.428  0.0923 -0.4120  0.0923
 3287TIP3    H134056   2.261   0.457  18.521 -1.5884  4.3272  0.6367
 3287TIP3    H234057   2.353   0.532  18.427 -0.9031  0.7882 -1.6628
 3288TIP3   OH234058   3.995   2.509  20.754 -0.0291  0.0936 -0.5236
 3288TIP3    H134059   4.057   2.476  20.689 -2.5975 -1.5708 -2.3256
 3288TIP3    H234060   4.006   2.450  20.829  0.7392 -0.0001 -0.6977
 3289TIP3   OH234061   2.990   5.798  20.402  0.5545  0.0911  0.4397
 3289TIP3    H134062   2.900   5.823  20.425  0.5144  0.3680 -0.0185
 3289TIP3    H234063   2.980   5.713  20.359  0.3626  0.7694 -0.8795
 3290TIP3   OH234064   0.834   4.969  20.883  0.4146  0.3322 -0.2277
 3290TIP3    H134065   0.891   4.907  20.929  1.2472  1.7448  0.7367
 3290TIP3    H234066   0.772   4.914  20.836  2.9390 -1.3407 -1.8626
 3291TIP3   OH234067   0.700   3.870  21.126  0.1596  0.2902  0.0653
 3291TIP3    H134068   0.643   3.934  21.169  0.6785  0.0559  1.1388
 3291TIP3    H234069   0.681   3.880  21.033  1.4456  3.2233  0.0005
 3292TIP3   OH234070   4.776   6.631  18.939 -0.1688 -0.1774  0.4333
 3292TIP3    H134071   4.855   6.578  18.949  0.7977  1.1115 -0.0864
 3292TIP3    H234072   4.771   6.683  19.019  0.4884  0.9534 -0.2213
 3293TIP3   OH234073   1.923   3.497  20.951 -0.6249  0.4799 -0.3455
 3293TIP3    H134074   1.978   3.568  20.918  0.6140  0.0183  0.6376
 3293TIP3    H234075   1.934   3.502  21.046 -0.1931 -1.2604 -0.2757
 3294TIP3   OH234076   4.423   4.649  17.516 -0.4422 -0.6436 -0.0770
 3294TIP3    H134077   4.391   4.668  17.604 -1.0393 -1.5554 -0.0815
 3294TIP3    H234078   4.345   4.623  17.466  0.1529 -2.1051 -0.3124
 3295TIP3   OH234079   0.302   6.407  18.673 -0.5992  0.1092  0.0879
 3295TIP3    H134080   0.267   6.487  18.713 -1.9884  0.4263 -1.6157
 3295TIP3    H234081   0.229   6.345  18.677 -0.5818 -0.0275 -1.3573
 3296TIP3   OH234082   5.360   0.798  20.612 -0.1943  0.6705 -0.2061
 3296TIP3    H134083   5.410   0.810  20.532  1.1734 -0.4959  0.4276
 3296TIP3    H234084   5.382   0.874  20.666 -0.4035  0.9854 -0.5535
 3297TIP3   OH234085   3.701   4.027  18.865 -0.0825 -0.1877 -0.0305
 3297TIP3    H134086   3.656   4.097  18.818  2.5561  1.3860 -0.3972
 3297TIP3    H234087   3.640   4.002  18.935 -1.9708  0.9410 -1.1781
 3298TIP3   OH234088   4.129   3.530  17.609 -0.0637 -0.5233  0.1884
 3298TIP3    H134089   4.076   3.451  17.609 -0.9282  0.0122  1.4703
 3298TIP3    H234090   4.065   3.602  17.615  0.6815  0.3062 -1.1833
 3299TIP3   OH234091   3.595   2.462  18.785  0.5597 -0.7048  0.1406
 3299TIP3    H134092   3.528   2.527  18.808  0.9608 -0.3952  0.4359
 3299TIP3    H234093   3.652   2.457  18.862 -0.2154 -2.3787  0.6493
 3300TIP3   OH234094   1.882   3.421  18.246  0.1074  0.1515  0.4352
 3300TIP3    H134095   1.890   3.490  18.181 -0.5392 -1.7103 -1.7630
 3300TIP3    H234096   1.955   3.362  18.227 -0.3283 -0.6240  1.1198
 3301TIP3   OH234097   4.523   0.556  19.338  0.0060 -0.1138 -0.6079
 3301TIP3    H134098   4.558   0.498  19.405 -0.0373  1.7281  1.0756
 3301TIP3    H234099   4.470   0.498  19.282  0.2955 -1.7496  0.7391
 3302TIP3   OH234100   5.850   0.794  18.388 -0.0156  0.2481  0.6813
 3302TIP3    H134101   5.826   0.854  18.318 -0.4689  1.3246  1.7198
 3302TIP3    H234102   5.840   0.707  18.350  0.3226  0.8141 -0.7520
 3303TIP3   OH234103   1.020   4.078  20.052 -0.2786  0.2882  0.4975
 3303TIP3    H134104   1.044   4.139  19.982  0.6276 -0.1134  0.4329
 3303TIP3    H234105   0.997   3.997  20.007 -1.4207  0.5511  0.5860
 3304TIP3   OH234106   4.099   2.322  19.372  0.2700 -0.1500  0.2116
 3304TIP3    H134107   4.164   2.368  19.424  1.1142  0.7106 -1.5211
 3304TIP3    H234108   4.114   2.352  19.282 -2.4215 -0.0165 -0.2858
 3305TIP3   OH234109   1.733   1.653  20.526 -0.1155 -0.2298 -0.2464
 3305TIP3    H134110   1.805   1.703  20.488 -0.3534  0.5329  0.2670
 3305TIP3    H234111   1.775   1.591  20.586  0.0683  1.3710  1.3757
 3306TIP3   OH234112   4.951   3.257  21.233  0.2125  0.0307  0.1047
 3306TIP3    H134113   4.911   3.338  21.203 -0.2121 -0.0633  0.4107
 3306TIP3    H234114   5.031   3.284  21.277  2.8909  0.0109 -4.1658
 3307TIP3   OH234115   0.623   0.257  19.222 -0.1159 -0.5094  0.1156
 3307TIP3    H134116   0.685   0.289  19.157 -0.3393 -0.7106 -0.2006
 3307TIP3    H234117   0.628   0.162  19.215  1.2015 -0.5842  1.6736
 3308TIP3   OH234118   5.982   4.840  19.731  0.0677  0.2549 -0.4938
 3308TIP3    H134119   6.050   4.906  19.716 -1.7803  3.0487  2.1444
 3308TIP3    H234120   5.907   4.871  19.680 -0.7243  0.0639  0.5265
 3309TIP3   OH234121   4.839   3.361  18.901 -0.1124 -0.5992 -0.0291
 3309TIP3    H134122   4.841   3.448  18.863 -1.3421 -1.2436 -1.6721
 3309TIP3    H234123   4.931   3.342  18.922  0.2880  0.6941 -0.5465
 3310TIP3   OH234124   6.209   2.148  19.602  0.1016  0.1326  0.0181
 3310TIP3    H134125   6.218   2.221  19.542  2.2230  0.8220  1.0868
 3310TIP3    H234126   6.254   2.176  19.682 -0.5872 -1.6499  1.0943
 3311TIP3   OH234127   2.161   5.072  18.699  0.2907  0.0056 -0.1491
 3311TIP3    H134128   2.079   5.119  18.713  0.1144 -0.4675  0.4501
 3311TIP3    H234129   2.228   5.140  18.703  0.0241  0.2365  0.5454
 3312TIP3   OH234130   1.531   5.737  18.191  0.3570 -0.2320  0.0886
 3312TIP3    H134131   1.480   5.793  18.250  1.0008 -0.8988  1.3317
 3312TIP3    H234132   1.476   5.728  18.113 -0.6630  0.4267  0.7010
 3313TIP3   OH234133   1.131   5.539  18.057 -0.3079 -0.2116 -0.1526
 3313TIP3    H134134   1.061   5.592  18.020 -0.7370 -0.2460  0.5843
 3313TIP3    H234135   1.087   5.460  18.089 -0.0996  0.2038  1.2185
 3314TIP3   OH234136   0.851   4.354  18.396 -0.3374 -0.3455 -0.3556
 3314TIP3    H134137   0.805   4.329  18.316 -1.3263 -1.2178  0.4571
 3314TIP3    H234138   0.944   4.337  18.377 -0.6476 -1.3634 -1.0247
 3315TIP3   OH234139   4.857   2.859  20.336 -0.0161 -0.3747 -0.0272
 3315TIP3    H134140   4.905   2.776  20.328 -1.9270 -1.7050  1.3492
 3315TIP3    H234141   4.810   2.868  20.253 -0.5849 -1.2120  0.1940
 3316TIP3   OH234142   0.074   6.107  20.420  0.1262  0.2212  0.0654
 3316TIP3    H134143   0.016   6.104  20.344  0.5227  0.5563 -0.2576
 3316TIP3    H234144   0.086   6.016  20.445  1.9789 -0.1563 -1.8167
 3317TIP3   OH234145   4.898   3.225  17.690 -0.6207  0.6363 -0.2243
 3317TIP3    H134146   4.969   3.274  17.731 -1.7918  2.5821 -0.3874
 3317TIP3    H234147   4.939   3.181  17.615  0.8102 -0.0727  0.9349
 3318TIP3   OH234148   1.157   1.551  17.962  0.1600 -0.2673  0.3570
 3318TIP3    H134149   1.164   1.564  18.057  0.8571 -1.0926  0.4414
 3318TIP3    H234150   1.227   1.488  17.942  0.8452  0.8308 -0.8976
 3319TIP3   OH234151   1.675   5.036  20.542 -0.1309 -0.8408 -0.3959
 3319TIP3    H134152   1.712   5.122  20.557 -0.0440 -0.6043 -1.8788
 3319TIP3    H234153   1.606   5.050  20.478 -0.3370 -1.8288 -0.4084
 3320TIP3   OH234154   2.734   1.225  18.298 -0.3771  0.0608  0.9410
 3320TIP3    H134155   2.681   1.278  18.358 -2.7432 -2.1952  1.0142
 3320TIP3    H234156   2.798   1.182  18.353  0.4142  1.4098  1.1259
 3321TIP3   OH234157   6.173   1.790  18.120  0.1045 -0.2644  0.0148
 3321TIP3    H134158   6.082   1.820  18.117  0.9360  2.4311 -1.5866
 3321TIP3    H234159   6.174   1.713  18.063 -1.2634 -0.6392  0.4590
 3322TIP3   OH234160   5.497   4.696  19.513 -0.1498  0.6057 -0.1046
 3322TIP3    H134161   5.489   4.740  19.428  2.5527  0.6016 -0.4390
 3322TIP3    H234162   5.471   4.762  19.577  2.4449  2.3452 -0.6898
 3323TIP3   OH234163   4.377   0.317  18.890 -0.0449  0.3140 -0.1606
 3323TIP3    H134164   4.424   0.234  18.898 -1.4827 -0.7173 -1.7998
 3323TIP3    H234165   4.447   0.383  18.884  1.1343 -0.8605  0.1335
 3324TIP3   OH234166   2.647   2.550  17.020  0.5113  0.1714 -0.8446
 3324TIP3    H134167   2.731   2.510  17.044 -0.5526 -1.3256  0.6238
 3324TIP3    H234168   2.610   2.490  16.956  0.3346  0.5510 -1.0970
 3325TIP3   OH234169   5.348   3.457  18.446  0.2357 -0.6440  0.2789
 3325TIP3    H134170   5.266   3.423  18.411  0.1597  0.9737 -1.2625
 3325TIP3    H234171   5.328   3.480  18.536 -0.9773 -0.4423 -0.0185
 3326TIP3   OH234172   6.551   2.434  17.738  0.0371  0.2446 -0.1950
 3326TIP3    H134173   6.492   2.382  17.792 -1.6845 -0.1965 -2.3322
 3326TIP3    H234174   6.555   2.519  17.783 -3.2960  0.7246 -0.5034
 3327TIP3   OH234175   4.480   2.588  20.095 -0.1708  0.1263 -0.2741
 3327TIP3    H134176   4.499   2.667  20.146 -0.1557 -0.9908  1.5360
 3327TIP3    H234177   4.451   2.621  20.010 -1.6192  2.1416  0.9090
 3328TIP3   OH234178   1.143   2.656  20.299 -0.0564  0.1781 -0.2863
 3328TIP3    H134179   1.194   2.729  20.333  0.6729 -0.4476 -0.0139
 3328TIP3    H234180   1.052   2.679  20.318  0.1169  1.2703 -0.7157
 3329TIP3   OH234181   1.960   5.446  18.713 -0.9855  0.4819  0.5795
 3329TIP3    H134182   1.929   5.512  18.651  0.9792  1.5772  0.6821
 3329TIP3    H234183   1.954   5.364  18.665 -1.1886  1.0702 -0.4272
 3330TIP3   OH234184   5.317   0.951  19.040 -0.4441 -1.0298  0.1078
 3330TIP3    H134185   5.233   0.996  19.039  0.4138  0.6723  0.2636
 3330TIP3    H234186   5.329   0.924  19.131 -0.0998  0.1908  0.4353
 3331TIP3   OH234187   1.592   0.718  18.203  0.2181 -0.0124 -0.2245
 3331TIP3    H134188   1.502   0.731  18.175 -0.3274 -0.5869  1.1900
 3331TIP3    H234189   1.645   0.742  18.126 -1.0754  1.3213 -0.7371
 3332TIP3   OH234190   5.013   5.628  18.514 -0.4185  0.3899  0.3102
 3332TIP3    H134191   5.031   5.707  18.565 -0.2549 -0.5493  1.7501
 3332TIP3    H234192   5.070   5.636  18.437  3.4296 -0.6287  2.7876
 3333TIP3   OH234193   3.216   6.500  20.564  0.2843  0.4989 -0.1249
 3333TIP3    H134194   3.137   6.554  20.557  0.2495  0.4791  0.1165
 3333TIP3    H234195   3.204   6.432  20.498 -0.9803 -0.8734  1.4510
 3334TIP3   OH234196   3.576   4.524  19.099  0.2284  0.3247 -0.0353
 3334TIP3    H134197   3.630   4.485  19.030  0.6912  1.4137 -0.3139
 3334TIP3    H234198   3.560   4.452  19.160  0.1434 -0.5670 -1.0718
 3335TIP3   OH234199   5.709   2.890  21.086 -0.5259  0.2631 -0.0015
 3335TIP3    H134200   5.776   2.851  21.142 -1.2231  1.3265  1.6641
 3335TIP3    H234201   5.681   2.968  21.133  0.1289  2.2945 -2.7427
 3336TIP3   OH234202   0.956   2.856  18.427  0.2182  0.1747 -0.9860
 3336TIP3    H134203   1.046   2.822  18.419  0.7087  1.7117 -2.7889
 3336TIP3    H234204   0.903   2.792  18.380  0.5936 -0.0030 -1.1794
 3337TIP3   OH234205   5.979   1.920  20.976 -0.6055  0.2909  0.3786
 3337TIP3    H134206   5.965   1.988  21.042  1.6054  2.2006 -0.9571
 3337TIP3    H234207   6.072   1.898  20.983 -1.0893 -2.0950  0.2363
 3338TIP3   OH234208   1.429   5.205  19.319 -0.1270  0.0479 -0.2860
 3338TIP3    H134209   1.486   5.130  19.336  0.3128  0.7184  1.4229
 3338TIP3    H234210   1.470   5.251  19.246  1.0282  0.0265  0.3415
 3339TIP3   OH234211   1.943   5.960  21.373 -0.7228  0.1310  0.2848
 3339TIP3    H134212   1.931   6.052  21.397  1.7703  1.2925 -2.3666
 3339TIP3    H234213   1.855   5.930  21.349 -1.3904  2.2795 -0.1734
 3340TIP3   OH234214   3.857   4.023  20.770  0.5220  0.1657 -0.1737
 3340TIP3    H134215   3.866   4.005  20.676  0.2518  1.0649 -0.3748
 3340TIP3    H234216   3.890   3.943  20.812  3.0504  0.6830 -0.9823
 3341TIP3   OH234217   3.469   4.693  18.793  0.1443 -0.0150 -0.6801
 3341TIP3    H134218   3.405   4.730  18.733 -0.1378 -0.0360 -0.3902
 3341TIP3    H234219   3.427   4.616  18.830 -0.3007  0.8919  0.7479
 3342TIP3   OH234220   4.330   1.879  20.954  0.0530 -0.3226 -0.7360
 3342TIP3    H134221   4.394   1.906  21.020 -0.4589 -0.4495 -0.1760
 3342TIP3    H234222   4.271   1.954  20.946 -0.1586 -0.4843 -0.7044
 3343TIP3   OH234223   1.833   1.906  18.815 -0.0948  0.2663 -0.5972
 3343TIP3    H134224   1.774   1.970  18.856 -0.8745 -0.1196 -1.1018
 3343TIP3    H234225   1.895   1.884  18.884 -2.0849 -1.2643  0.8159
 3344TIP3   OH234226   1.400   2.514  20.852 -0.4452  0.0562 -0.1976
 3344TIP3    H134227   1.376   2.606  20.839  1.0086  0.3287 -1.2990
 3344TIP3    H234228   1.320   2.472  20.881 -1.0559  1.7429  0.7237
 3345TIP3   OH234229   2.932   3.572  18.160 -0.0134 -0.1896 -0.4102
 3345TIP3    H134230   2.974   3.499  18.206 -0.4525 -1.0102 -1.2665
 3345TIP3    H234231   2.838   3.554  18.170 -0.1211  0.2224 -0.6977
 3346TIP3   OH234232   5.267   5.991  18.521 -0.1895 -0.1302 -0.0118
 3346TIP3    H134233   5.299   6.044  18.593 -0.3510  0.0340 -0.0630
 3346TIP3    H234234   5.196   5.940  18.558 -0.4094  0.1066 -0.1073
 3347TIP3   OH234235   4.270   3.586  18.658 -0.2522  0.6760  0.4150
 3347TIP3    H134236   4.210   3.597  18.731 -1.5572 -0.5473 -0.4097
 3347TIP3    H234237   4.251   3.660  18.600  0.0002  1.0314  0.7792
 3348TIP3   OH234238   0.478   3.049  20.914  0.4009  0.1489  0.1637
 3348TIP3    H134239   0.501   3.073  21.003 -0.5829 -1.0860  0.7895
 3348TIP3    H234240   0.520   2.964  20.900  1.0541  0.6108 -0.7804
 3349TIP3   OH234241   4.810   3.064  18.897 -0.3163 -0.2168 -0.4115
 3349TIP3    H134242   4.906   3.060  18.906 -0.4004  0.7774  1.6071
 3349TIP3    H234243   4.793   3.152  18.864 -0.4998 -0.9810 -2.5012
 3350TIP3   OH234244   4.326   1.933  20.638 -0.0111  0.9070  0.6536
 3350TIP3    H134245   4.237   1.935  20.603 -0.1250 -2.1939  0.4948
 3350TIP3    H234246   4.314   1.925  20.733  0.0132 -0.6131  0.5534
 3351TIP3   OH234247   5.524   5.947  18.391  0.1282  0.0392 -0.0198
 3351TIP3    H134248   5.433   5.977  18.390  0.6304  1.7174 -1.4893
 3351TIP3    H234249   5.529   5.884  18.320  0.6751  2.1135 -1.9586
 3352TIP3   OH234250   6.040   0.727  19.281  0.0237  0.1407 -0.0336
 3352TIP3    H134251   6.052   0.798  19.343  0.8395 -0.0162 -0.0027
 3352TIP3    H234252   6.059   0.765  19.196 -1.7557  0.5346 -0.2999
 3353TIP3   OH234253   2.569   0.146  20.263 -0.4688  0.0821  0.0666
 3353TIP3    H134254   2.585   0.165  20.355 -0.8969  0.3658  0.0866
 3353TIP3    H234255   2.617   0.215  20.216 -0.7923  0.3251  0.0953
 3354TIP3   OH234256   2.250   2.027  20.451 -0.2063  0.2268  0.3815
 3354TIP3    H134257   2.226   1.965  20.382 -0.8870  1.8073 -0.8355
 3354TIP3    H234258   2.333   1.992  20.485  0.3093 -0.4346 -1.4343
 3355TIP3   OH234259   2.398   5.774  21.071 -0.2252  0.6300  0.3251
 3355TIP3    H134260   2.354   5.848  21.030  0.0294  1.6521  1.8222
 3355TIP3    H234261   2.327   5.714  21.095 -0.4797  0.6209 -0.4507
 3356TIP3   OH234262   1.937   0.030  18.992  0.1812  0.8146  0.4054
 3356TIP3    H134263   1.859  -0.018  18.965  0.7266  0.4471 -0.5472
 3356TIP3    H234264   1.904   0.116  19.017 -0.5307  0.6634  0.0211
 3357TIP3   OH234265   4.315   4.318  18.088  0.2067 -0.6734  0.5432
 3357TIP3    H134266   4.380   4.315  18.018  1.5285 -2.9120  1.7440
 3357TIP3    H234267   4.231   4.312  18.044  0.7098  2.1687 -1.0548
 3358TIP3   OH234268   3.931   3.772  19.698 -0.4474 -0.1512  0.2030
 3358TIP3    H134269   3.935   3.696  19.755 -0.5637 -0.2785  0.0392
 3358TIP3    H234270   4.009   3.823  19.721 -0.4282 -0.2632  0.3877
 3359TIP3   OH234271   1.407   6.387  19.404  0.4353 -0.4371  0.3332
 3359TIP3    H134272   1.427   6.480  19.411  3.4854 -0.9727  0.2972
 3359TIP3    H234273   1.402   6.356  19.494  1.4416 -0.5585  0.3606
 3360TIP3   OH234274   1.678   5.490  20.753 -0.7913 -0.3926 -0.1434
 3360TIP3    H134275   1.732   5.523  20.825 -0.9085 -1.6134  0.5305
 3360TIP3    H234276   1.617   5.562  20.735 -0.8262 -0.0961  1.0443
 3361TIP3   OH234277   6.090   1.578  19.142  0.4668 -0.3121 -0.1621
 3361TIP3    H134278   6.160   1.627  19.099 -1.6199  1.9846 -1.1878
 3361TIP3    H234279   6.087   1.494  19.096  0.7475  0.6522 -2.0480
 3362TIP3   OH234280   6.380   4.202  18.720  0.3710  0.2775  0.0420
 3362TIP3    H134281   6.418   4.114  18.719 -0.5832 -0.1515 -0.5767
 3362TIP3    H234282   6.454   4.261  18.710  0.9535 -0.4894 -0.2153
 3363TIP3   OH234283   3.569   5.058  20.925 -0.0985  0.2943  0.2271
 3363TIP3    H134284   3.494   5.113  20.900 -0.7456 -0.7932 -0.3380
 3363TIP3    H234285   3.537   5.006  20.998  0.0349 -0.2919 -0.1191
 3364TIP3   OH234286   5.993   5.744  20.535  0.2612 -0.3308 -0.4704
 3364TIP3    H134287   6.002   5.650  20.548  2.1410 -0.5108 -2.6011
 3364TIP3    H234288   6.078   5.780  20.560 -0.1242  0.7073 -0.5929
 3365TIP3   OH234289   0.019   2.709  19.890 -0.4512  0.1501 -0.4566
 3365TIP3    H134290  -0.047   2.695  19.959  0.4926  1.0889  0.6844
 3365TIP3    H234291   0.020   2.627  19.841  0.2755 -1.3514  1.9085
 3366TIP3   OH234292   3.897   3.782  20.951  0.1043  0.9429 -0.2148
 3366TIP3    H134293   3.938   3.711  21.000 -0.3142 -1.3194 -2.9018
 3366TIP3    H234294   3.805   3.779  20.978  0.2445  1.0453  0.2908
 3367TIP3   OH234295   2.685   0.025  21.258  0.4899  0.2736 -0.2626
 3367TIP3    H134296   2.594   0.054  21.267  0.0267 -1.2974  0.6325
 3367TIP3    H234297   2.722   0.080  21.189 -1.4982  0.1675 -1.4931
 3368TIP3   OH234298   5.941   0.333  19.863 -0.0538 -0.8088 -0.1986
 3368TIP3    H134299   5.879   0.265  19.837 -0.3913 -0.7299  0.3947
 3368TIP3    H234300   5.973   0.305  19.949  1.8056 -1.6002 -1.0765
 3369TIP3   OH234301   3.388   3.638  19.493  0.5759  0.3360 -0.3880
 3369TIP3    H134302   3.347   3.706  19.440  3.3364  1.4554 -1.2511
 3369TIP3    H234303   3.434   3.583  19.429 -2.5249 -3.2470  0.1174
 3370TIP3   OH234304   1.290   2.155  18.903  0.0355 -0.1851  0.0307
 3370TIP3    H134305   1.240   2.074  18.914 -0.9100  0.2542 -0.8556
 3370TIP3    H234306   1.270   2.206  18.981  0.1718 -0.5615  0.3157
 3371TIP3   OH234307   2.168   1.006  21.065 -0.5949  0.0641 -0.2953
 3371TIP3    H134308   2.210   0.933  21.020 -0.6758 -0.5576  0.6071
 3371TIP3    H234309   2.239   1.068  21.082 -0.3726 -0.1802 -0.3369
 3372TIP3   OH234310   5.642   0.854  19.422  0.4598 -0.2090  0.1152
 3372TIP3    H134311   5.612   0.903  19.498  2.2090 -0.5858  1.1109
 3372TIP3    H234312   5.670   0.921  19.360 -1.5298  0.1191 -0.5005
 3373TIP3   OH234313   0.523   4.127  20.351  0.2575 -0.7539  0.1452
 3373TIP3    H134314   0.573   4.179  20.288 -2.0210  1.0056 -0.3584
 3373TIP3    H234315   0.464   4.074  20.297 -0.5650 -0.4812  0.7547
 3374TIP3   OH234316   0.192   6.474  19.638  0.6453 -0.2490  0.4740
 3374TIP3    H134317   0.191   6.446  19.730  2.9765  0.3642  0.7597
 3374TIP3    H234318   0.172   6.567  19.642 -2.9298 -0.8357 -0.0879
 3375TIP3   OH234319   6.625   3.175  19.546 -0.6638 -0.1754  0.0453
 3375TIP3    H134320   6.641   3.115  19.474  0.6148 -0.4903  0.5660
 3375TIP3    H234321   6.621   3.119  19.624 -0.1679  0.3298  0.4470
 3376TIP3   OH234322   3.308   2.456  19.157  0.5136 -0.1280  0.2981
 3376TIP3    H134323   3.284   2.548  19.144  0.4424 -0.1285  0.4214
 3376TIP3    H234324   3.296   2.416  19.071 -1.2692 -0.4286  0.6314
 3377TIP3   OH234325   1.934   1.641  20.885  0.1404  0.4156 -0.1426
 3377TIP3    H134326   1.863   1.705  20.879  0.1102  0.4317  0.3404
 3377TIP3    H234327   2.013   1.694  20.893  0.2648  0.4059 -1.1087
 3378TIP3   OH234328   2.347   5.517  17.709 -0.3805  0.0395 -0.3206
 3378TIP3    H134329   2.411   5.456  17.672  0.8473  0.0634  1.6636
 3378TIP3    H234330   2.263   5.484  17.678  0.4287 -1.2327 -1.2673
 3379TIP3   OH234331   1.917   0.503  20.982  0.1634  0.0128  0.5268
 3379TIP3    H134332   1.869   0.457  20.914  0.2525 -0.4845  0.7957
 3379TIP3    H234333   1.933   0.590  20.946 -0.4698  0.0106  0.2223
 3380TIP3   OH234334   5.050   5.903  19.627 -0.2008  0.0207 -0.8708
 3380TIP3    H134335   4.979   5.905  19.691  1.7435 -2.1510  1.5953
 3380TIP3    H234336   5.038   5.821  19.580  0.2371  0.0025 -0.9598
 3381TIP3   OH234337   2.442   5.664  18.344 -0.4045  0.5348  0.0185
 3381TIP3    H134338   2.422   5.654  18.437  0.0628 -0.9683 -0.0176
 3381TIP3    H234339   2.357   5.680  18.303 -0.9167 -0.8541  0.4706
 3382TIP3   OH234340   0.395   5.536  19.953 -0.5945  0.1434  0.4643
 3382TIP3    H134341   0.306   5.568  19.963 -0.7669 -0.1363 -0.0978
 3382TIP3    H234342   0.450   5.614  19.958 -1.0128  0.5710 -1.0109
 3383TIP3   OH234343   0.853   2.372  21.213  0.2085 -0.1763  0.4939
 3383TIP3    H134344   0.760   2.392  21.206  0.5391  1.5443  0.5661
 3383TIP3    H234345   0.856   2.278  21.230 -1.4253 -0.7017 -1.6584
 3384TIP3   OH234346   5.937   0.630  18.812  0.0532  0.0773 -0.4198
 3384TIP3    H134347   6.022   0.601  18.845 -1.1135 -0.2504  2.7407
 3384TIP3    H234348   5.875   0.563  18.844 -1.5268  0.8520 -1.7037
 3385TIP3   OH234349   3.785   2.126  17.786  0.2186  0.7108  0.1427
 3385TIP3    H134350   3.791   2.148  17.693  1.6401  0.8111  0.2434
 3385TIP3    H234351   3.856   2.174  17.828  2.0033 -2.1330  0.7025
 3386TIP3   OH234352   4.185   5.182  19.011  0.0413  0.6472 -0.1554
 3386TIP3    H134353   4.270   5.138  19.007 -1.1191 -1.8312  0.5034
 3386TIP3    H234354   4.164   5.202  18.920  0.2169 -1.0868 -0.6103
 3387TIP3   OH234355   5.779   2.013  19.288  0.3879  0.0251  0.1414
 3387TIP3    H134356   5.710   1.968  19.338 -0.3022  1.2796  0.3744
 3387TIP3    H234357   5.731   2.073  19.231  1.2747  0.4315 -0.1911
 3388TIP3   OH234358   0.683   6.384  19.939  0.2910 -0.1808 -0.3389
 3388TIP3    H134359   0.774   6.355  19.949 -0.1407 -0.9587  1.7561
 3388TIP3    H234360   0.652   6.340  19.860  1.2356 -1.2636 -0.1243
 3389TIP3   OH234361   1.374   1.802  17.829 -0.1461  0.8387 -0.3017
 3389TIP3    H134362   1.307   1.857  17.788 -1.1608 -0.3493 -0.2968
 3389TIP3    H234363   1.452   1.816  17.776 -0.5215  1.8554 -0.6261
 3390TIP3   OH234364   0.224   1.681  19.132  0.1224  0.1308  0.4149
 3390TIP3    H134365   0.136   1.659  19.102  0.1815 -1.3750  1.2672
 3390TIP3    H234366   0.277   1.604  19.112  1.0136  0.5974  0.8987
 3391TIP3   OH234367   6.183   5.056  19.727  0.3296 -0.3978 -0.2391
 3391TIP3    H134368   6.168   5.058  19.821 -2.0327  1.1380 -0.5701
 3391TIP3    H234369   6.186   5.148  19.701  0.6971 -0.7982 -1.7128
 3392TIP3   OH234370   3.236   0.453  19.236 -0.0415  0.8297 -0.1636
 3392TIP3    H134371   3.316   0.494  19.204 -0.0805  0.6693 -0.4675
 3392TIP3    H234372   3.196   0.520  19.292  0.2583  0.9420 -0.0769
 3393TIP3   OH234373   3.812   2.736  18.969 -0.5454  0.6628  0.0418
 3393TIP3    H134374   3.812   2.641  18.957 -1.6242  0.5879  0.5357
 3393TIP3    H234375   3.723   2.757  18.998  0.0119  1.6619  1.1426
 3394TIP3   OH234376   5.154   0.537  18.278  0.2491 -0.4675  0.1536
 3394TIP3    H134377   5.061   0.529  18.302  0.6303 -1.7262  1.3446
 3394TIP3    H234378   5.162   0.486  18.197 -0.0619 -0.5645  0.1816
 3395TIP3   OH234379   0.282   1.073  17.361 -1.0140 -0.1398 -0.2788
 3395TIP3    H134380   0.347   1.130  17.402 -0.1112 -1.4074  0.0986
 3395TIP3    H234381   0.202   1.087  17.412 -0.0676 -1.2513  1.5812
 3396TIP3   OH234382   1.577   0.471  21.375  0.4929 -0.4662  0.1487
 3396TIP3    H134383   1.624   0.537  21.324  0.0229  0.8907  1.4021
 3396TIP3    H234384   1.645   0.412  21.407  1.0808  0.1409  0.0403
 3397TIP3   OH234385   0.424   6.112  20.991  0.3801  0.2727  0.1391
 3397TIP3    H134386   0.435   6.207  20.993  0.6038  0.2823 -0.8324
 3397TIP3    H234387   0.330   6.098  20.980  0.4991  0.4451 -1.3724
 3398TIP3   OH234388   1.808   3.251  18.803  0.1546  0.1861 -0.0397
 3398TIP3    H134389   1.898   3.224  18.821  0.4860  1.9439  1.1711
 3398TIP3    H234390   1.815   3.312  18.730 -0.0120  0.6118  0.2983
 3399TIP3   OH234391   3.236   3.848  19.372  0.0993 -0.6984 -0.1718
 3399TIP3    H134392   3.236   3.939  19.403  1.1232 -0.8048  0.1750
 3399TIP3    H234393   3.208   3.854  19.280 -0.1709 -0.0743 -0.0555
 3400TIP3   OH234394   3.052   2.605  18.545  0.2248  0.2662 -0.1837
 3400TIP3    H134395   3.021   2.547  18.476  1.0213 -0.0373 -0.2962
 3400TIP3    H234396   2.975   2.620  18.600 -0.2356 -0.0778 -0.7207
 3401TIP3   OH234397   4.127   5.494  18.909  0.5665  0.4007  0.5639
 3401TIP3    H134398   4.127   5.419  18.968  1.7441  1.0063  1.4078
 3401TIP3    H234399   4.035   5.518  18.899  0.3014 -0.0886  1.6937
 3402TIP3   OH234400   4.461   3.284  20.344  0.3873 -0.0088 -0.6793
 3402TIP3    H134401   4.443   3.229  20.420 -2.5343 -0.3249 -1.4700
 3402TIP3    H234402   4.509   3.359  20.379 -0.8996 -0.1276  1.5061
 3403TIP3   OH234403   0.276   0.350  19.011 -0.1230 -0.1405 -0.0479
 3403TIP3    H134404   0.234   0.427  19.048 -1.6975  0.1990 -2.3208
 3403TIP3    H234405   0.365   0.378  18.990 -0.0495  0.4189  0.9391
 3404TIP3   OH234406   3.414   4.117  19.463 -0.8625  0.3871 -0.2046
 3404TIP3    H134407   3.390   4.112  19.555  0.2565  0.6534  0.1139
 3404TIP3    H234408   3.402   4.210  19.440 -0.4034  0.4736 -0.1103
 3405TIP3   OH234409   3.423   2.670  18.848 -0.3820  0.3936 -0.3868
 3405TIP3    H134410   3.342   2.674  18.799 -0.3285 -0.3642 -0.5511
 3405TIP3    H234411   3.397   2.688  18.939 -0.3158  2.9616 -0.8042
 3406TIP3   OH234412   5.633   2.505  17.947 -0.6370 -0.3049 -0.2252
 3406TIP3    H134413   5.556   2.548  17.984  0.0623  0.7149  0.0945
 3406TIP3    H234414   5.705   2.534  18.003 -0.0137 -1.1789 -0.5672
 3407TIP3   OH234415   4.032   1.746  19.347  0.0490  0.3273 -0.5296
 3407TIP3    H134416   3.946   1.779  19.374 -0.1440 -1.1330  0.7110
 3407TIP3    H234417   4.020   1.652  19.336  1.6466 -0.0028  0.2823
 3408TIP3   OH234418   0.548   1.554  19.660  0.4156 -0.0772 -0.0957
 3408TIP3    H134419   0.561   1.470  19.705 -0.0943  0.5436  1.2895
 3408TIP3    H234420   0.486   1.534  19.590  2.1007 -1.3146 -1.3091
 3409TIP3   OH234421   2.067   2.740  19.907  0.0676 -0.1335  0.3403
 3409TIP3    H134422   1.999   2.688  19.863 -1.8787  2.2889  0.2348
 3409TIP3    H234423   2.117   2.779  19.836 -1.0887  1.2851  0.2459
 3410TIP3   OH234424   3.963   5.556  19.290  0.1022  0.3326 -0.1458
 3410TIP3    H134425   3.984   5.500  19.216  1.2724 -0.6654  0.9084
 3410TIP3    H234426   4.045   5.565  19.339 -0.6626  0.8427  1.1175
 3411TIP3   OH234427   0.371   3.268  19.009  0.5025  0.3712  0.3948
 3411TIP3    H134428   0.397   3.346  19.058 -0.3250  0.9659 -0.0915
 3411TIP3    H234429   0.343   3.301  18.924  0.2364 -0.4676  0.1457
 3412TIP3   OH234430   0.373   4.457  20.888  0.1538 -0.0020 -0.1177
 3412TIP3    H134431   0.461   4.457  20.927  0.0573  0.6321  0.1137
 3412TIP3    H234432   0.339   4.369  20.906  0.4624 -0.0110  0.4415
 3413TIP3   OH234433   5.635   2.069  18.684  0.3174  0.3568 -0.9041
 3413TIP3    H134434   5.626   2.001  18.617 -1.0326 -0.5040  0.1038
 3413TIP3    H234435   5.688   2.030  18.752 -2.1601 -0.5310  0.6364
 3414TIP3   OH234436   5.360   6.253  23.344 -0.1892 -0.0269  0.0763
 3414TIP3    H134437   5.436   6.204  23.313  0.5285  1.0955  0.0135
 3414TIP3    H234438   5.336   6.212  23.427  0.4201 -0.4573  0.0390
 3415TIP3   OH234439   6.677   6.270  20.058  0.0858 -0.4913 -0.3054
 3415TIP3    H134440   6.628   6.195  20.026  2.2342 -1.4325 -1.6039
 3415TIP3    H234441   6.742   6.288  19.989  0.7427  1.4637  0.7439
 3416TIP3   OH234442   4.797   5.840  18.093  0.3482 -0.5814 -0.5429
 3416TIP3    H134443   4.861   5.860  18.162  1.9503 -2.7669 -1.2627
 3416TIP3    H234444   4.850   5.810  18.019 -1.3268  1.6055 -2.7860
 3417TIP3   OH234445   3.911   2.979  19.836 -1.0433 -0.3952  0.2519
 3417TIP3    H134446   3.896   2.906  19.776 -0.9811 -1.3462  1.3503
 3417TIP3    H234447   3.833   3.033  19.827 -1.3718 -0.9215 -0.1557
 3418TIP3   OH234448   3.244   5.858  20.318 -0.3317  0.0504  0.6007
 3418TIP3    H134449   3.161   5.861  20.365 -0.4164  0.7085  0.4166
 3418TIP3    H234450   3.279   5.947  20.325  0.9357 -0.4828  1.7153
 3419TIP3   OH234451   6.039   2.123  21.137 -0.2403 -0.2090 -0.3462
 3419TIP3    H134452   6.082   2.065  21.199  0.2739  0.1679 -0.3387
 3419TIP3    H234453   6.109   2.149  21.076 -0.1939  1.2640  0.3004
 3420TIP3   OH234454   1.958   3.087  19.117 -0.6371  1.1305 -0.3401
 3420TIP3    H134455   1.982   3.023  19.050 -0.9484  2.4718 -1.7676
 3420TIP3    H234456   1.886   3.045  19.165  0.5105 -0.4234  0.1215
 3421TIP3   OH234457   3.977   2.415  18.622 -0.3565  0.2557  0.3163
 3421TIP3    H134458   3.913   2.437  18.555 -0.5667  0.0584  0.4534
 3421TIP3    H234459   3.984   2.320  18.618  1.7770  0.4059 -1.4177
 3422TIP3   OH234460   2.764   3.038  18.857  0.4795  0.3987 -0.3573
 3422TIP3    H134461   2.762   2.991  18.774 -1.0114 -0.7080  0.2695
 3422TIP3    H234462   2.694   3.103  18.850 -0.3430 -0.3798  0.3917
 3423TIP3   OH234463   2.553   6.519  20.759  0.0575 -0.2688  0.2092
 3423TIP3    H134464   2.639   6.520  20.801 -0.4635 -2.8490  1.5459
 3423TIP3    H234465   2.491   6.525  20.831 -0.8825 -0.5264 -0.5615
 3424TIP3   OH234466   1.955   5.587  20.020  0.0829  0.2130 -0.0519
 3424TIP3    H134467   1.983   5.654  19.957 -2.9046  0.1075 -1.6968
 3424TIP3    H234468   1.996   5.506  19.988  0.3314  0.5388 -0.5832
 3425TIP3   OH234469   0.561   4.935  20.997 -0.5686  0.1428 -0.1326
 3425TIP3    H134470   0.590   4.855  20.954  0.2947  0.1943  0.3249
 3425TIP3    H234471   0.582   4.921  21.090  0.3299  1.1931 -0.1514
 3426TIP3   OH234472   0.596   5.869  18.546 -0.1894 -0.1558 -0.6235
 3426TIP3    H134473   0.642   5.946  18.579 -2.8962  0.9548  0.9226
 3426TIP3    H234474   0.611   5.802  18.612  0.1318 -0.1515 -0.6928
 3427TIP3   OH234475   2.479   1.310  19.151 -0.4901 -0.0968  0.0413
 3427TIP3    H134476   2.456   1.233  19.202  0.2441 -1.2848 -1.3752
 3427TIP3    H234477   2.483   1.280  19.061 -0.5853  1.6967 -0.6144
 3428TIP3   OH234478   6.458   4.580  19.186 -0.2862  0.4129  0.4277
 3428TIP3    H134479   6.541   4.542  19.216 -0.4606 -1.5675 -1.3292
 3428TIP3    H234480   6.470   4.591  19.092 -1.0688  2.8228  0.5434
 3429TIP3   OH234481   1.880   3.829  17.812  0.6889  0.1913  0.1064
 3429TIP3    H134482   1.913   3.916  17.835 -0.9673  0.5388  1.3498
 3429TIP3    H234483   1.832   3.843  17.730 -0.6480  0.7518  0.9536
 3430TIP3   OH234484   3.262   1.972  19.270 -0.0896  0.2594  0.7999
 3430TIP3    H134485   3.178   1.927  19.277  1.0769 -2.0357  1.2225
 3430TIP3    H234486   3.318   1.928  19.334  1.3980  1.8712  0.6921
 3431TIP3   OH234487   2.240   5.381  20.038 -0.1901  0.1306  0.5409
 3431TIP3    H134488   2.315   5.326  20.015  0.1363  0.7700  0.0315
 3431TIP3    H234489   2.273   5.438  20.107  0.3867  1.6709 -0.9317
 3432TIP3   OH234490   5.050   2.813  20.007 -0.3476  1.0008  0.4288
 3432TIP3    H134491   5.102   2.854  20.076 -1.9344  1.4468  1.4116
 3432TIP3    H234492   5.064   2.719  20.017  0.0702  1.1058  0.8269
 3433TIP3   OH234493   3.040   4.757  19.128  0.2039  0.6396  0.1601
 3433TIP3    H134494   3.124   4.729  19.167  0.5942  0.2076 -0.9516
 3433TIP3    H234495   3.043   4.724  19.038 -2.1616 -1.4999  0.7393
 3434TIP3   OH234496   4.368   3.410  18.106  0.4956 -0.7264 -0.0056
 3434TIP3    H134497   4.322   3.385  18.026  0.5424  2.4064 -1.1365
 3434TIP3    H234498   4.306   3.463  18.155  1.5852  0.2951  0.3262
 3435TIP3   OH234499   4.793   5.309  18.436  0.0291  0.0587  0.0092
 3435TIP3    H134500   4.881   5.341  18.455 -0.2906  0.1537  1.4796
 3435TIP3    H234501   4.789   5.222  18.477 -0.4901 -0.0445 -0.2437
 3436TIP3   OH234502   3.414   0.620  17.384 -0.0382 -0.2445  0.5370
 3436TIP3    H134503   3.352   0.589  17.318 -0.0801  1.1993 -0.1526
 3436TIP3    H234504   3.463   0.542  17.410 -0.9078 -1.0754 -0.2396
 3437TIP3   OH234505   4.689   1.891  20.604 -0.6201 -0.3479 -0.2412
 3437TIP3    H134506   4.622   1.824  20.599  0.6073 -1.6192 -0.0929
 3437TIP3    H234507   4.733   1.876  20.688  0.2075  0.1184 -0.5742
 3438TIP3   OH234508   1.404   2.781  21.114  0.5630 -0.1785  0.1633
 3438TIP3    H134509   1.383   2.730  21.192  4.1971 -1.6748  0.3760
 3438TIP3    H234510   1.431   2.866  21.148 -0.1189 -0.0072  0.2929
 3439TIP3   OH234511   4.188   1.633  17.122 -0.3312 -0.2646  0.2811
 3439TIP3    H134512   4.252   1.681  17.070 -1.2469  0.4971 -0.1699
 3439TIP3    H234513   4.166   1.557  17.068  0.0674 -0.4489  0.3724
 3440TIP3   OH234514   6.304   0.779  20.606  0.1453  0.8294  0.6868
 3440TIP3    H134515   6.343   0.718  20.544  1.2497  3.1550 -1.0640
 3440TIP3    H234516   6.377   0.806  20.662  0.4149  2.6438 -0.4337
 3441TIP3   OH234517   6.620   1.631  19.064 -0.2158  0.2172  0.1146
 3441TIP3    H134518   6.590   1.710  19.109  0.1519  0.4432 -0.0272
 3441TIP3    H234519   6.545   1.572  19.065 -0.6153  0.7142 -0.1049
 3442TIP3   OH234520   1.409   1.343  21.160  0.1025  0.2143  0.4461
 3442TIP3    H134521   1.329   1.300  21.131  0.2500 -1.5484  2.4411
 3442TIP3    H234522   1.472   1.325  21.090 -0.8203  0.3188 -0.4375
 3443TIP3   OH234523   3.439   0.051  18.494 -0.0385 -0.0633 -0.0032
 3443TIP3    H134524   3.473  -0.031  18.460 -1.5100  0.2227 -2.4188
 3443TIP3    H234525   3.359   0.027  18.540  0.7383 -0.1938  1.3226
 3444TIP3   OH234526   0.848   1.789  20.900 -0.1495 -0.3522 -0.3349
 3444TIP3    H134527   0.878   1.843  20.973 -0.8585 -0.2656 -0.1045
 3444TIP3    H234528   0.753   1.804  20.896 -0.4578 -2.0279  0.1177
 3445TIP3   OH234529   5.471   2.025  18.965  0.5817  0.1862  0.0924
 3445TIP3    H134530   5.530   2.091  19.001  2.3986 -0.4536 -1.5453
 3445TIP3    H234531   5.441   2.062  18.882  1.7812 -1.0397 -0.9456
 3446TIP3   OH234532   1.583   4.228  18.425 -0.3965 -0.1575 -0.0311
 3446TIP3    H134533   1.543   4.258  18.343 -0.8509 -1.1273 -0.1855
 3446TIP3    H234534   1.508   4.211  18.482 -0.3270 -2.7339 -0.5768
 3447TIP3   OH234535   4.405   5.100  19.717 -0.0899 -0.3375  0.3791
 3447TIP3    H134536   4.496   5.071  19.715  0.4459  1.0811  1.7416
 3447TIP3    H234537   4.360   5.034  19.770  0.4559 -0.3153  0.8831
 3448TIP3   OH234538   0.753   6.344  18.689  0.2514  0.6554  0.2774
 3448TIP3    H134539   0.698   6.268  18.667 -0.7320  1.7749 -1.2938
 3448TIP3    H234540   0.796   6.367  18.608  1.5306  1.0365  1.0459
 3449TIP3   OH234541   2.044   2.412  18.441  0.5680 -0.6614 -0.1012
 3449TIP3    H134542   2.066   2.437  18.351  0.1414 -1.6086 -0.4944
 3449TIP3    H234543   2.112   2.349  18.465  0.3404 -0.8649  0.0105
 3450TIP3   OH234544   6.478   0.003  19.318 -0.5993 -0.3742  0.2521
 3450TIP3    H134545   6.424  -0.044  19.254 -2.1646 -2.2736  2.7520
 3450TIP3    H234546   6.420   0.072  19.351  0.7248  1.6029 -1.3622
 3451TIP3   OH234547   5.661   2.583  20.554 -0.6051 -0.4856  0.0648
 3451TIP3    H134548   5.573   2.551  20.532 -1.5964 -0.0871  3.0615
 3451TIP3    H234549   5.718   2.508  20.538 -1.9947 -1.8645  1.2084
 3452TIP3   OH234550   1.960   3.564  18.457 -0.7605  0.2070  0.0211
 3452TIP3    H134551   2.031   3.523  18.506 -1.2871 -0.5323  0.2020
 3452TIP3    H234552   1.942   3.502  18.386 -2.7763 -0.8631  1.3318
 3453TIP3   OH234553   5.870   2.191  19.702 -0.1616  0.6157 -0.3936
 3453TIP3    H134554   5.899   2.125  19.639  0.2907  1.2952 -0.9156
 3453TIP3    H234555   5.891   2.153  19.788 -2.4603 -1.1388 -0.5086
 3454TIP3   OH234556   1.541   1.992  20.757 -0.6607 -0.0086 -0.1745
 3454TIP3    H134557   1.488   2.068  20.731  1.0292  1.2700 -0.0696
 3454TIP3    H234558   1.628   2.011  20.722 -0.1401 -1.8299  0.0341
 3455TIP3   OH234559   2.030   4.200  21.130  0.0165  0.3096 -0.2370
 3455TIP3    H134560   2.120   4.193  21.161  0.1760  2.3482 -0.0682
 3455TIP3    H234561   2.003   4.110  21.112  2.1279 -0.3281 -0.4432
 3456TIP3   OH234562   4.271   6.253  19.101 -0.2745  0.3067  0.0337
 3456TIP3    H134563   4.305   6.172  19.140 -1.8270 -1.3719 -1.8408
 3456TIP3    H234564   4.260   6.313  19.175 -0.9093 -1.8899  1.8412
 3457TIP3   OH234565   6.089   0.666  20.740  0.5137 -0.2472  0.1837
 3457TIP3    H134566   6.181   0.681  20.718  0.0044  1.0599 -1.1637
 3457TIP3    H234567   6.057   0.607  20.672  0.1099  0.0672  0.0963
 3458TIP3   OH234568   2.548   5.976  20.103 -0.0897  0.5973  0.3608
 3458TIP3    H134569   2.564   5.973  20.009 -3.0591 -0.9087 -0.2081
 3458TIP3    H234570   2.570   5.888  20.133 -0.8960  0.5170  0.7260
 3459TIP3   OH234571   3.618   3.721  19.210  0.0005 -0.2012 -0.6114
 3459TIP3    H134572   3.583   3.746  19.125  0.1821 -0.4403 -0.7582
 3459TIP3    H234573   3.595   3.793  19.268 -0.3305 -0.1460 -0.8099
 3460TIP3   OH234574   3.931   2.252  19.962  0.5860  0.6830  0.1157
 3460TIP3    H134575   3.917   2.251  20.057  1.0108 -0.9375  0.1979
 3460TIP3    H234576   3.992   2.324  19.947  1.6082  0.0925  1.2736
 3461TIP3   OH234577   6.155   2.891  18.329 -0.0173  0.2463  0.2441
 3461TIP3    H134578   6.236   2.905  18.377  0.1791  1.3795 -0.3766
 3461TIP3    H234579   6.144   2.796  18.327  2.5575 -0.1213 -1.6810
 3462TIP3   OH234580   0.728   6.181  19.713 -0.2397  0.3188  0.3893
 3462TIP3    H134581   0.757   6.097  19.677 -1.5838  0.2234 -0.5509
 3462TIP3    H234582   0.632   6.175  19.714 -0.3136  0.7635  2.9752
 3463TIP3   OH234583   0.532   0.417  18.923  0.1762  0.5569 -0.0232
 3463TIP3    H134584   0.579   0.378  18.849  1.9430  0.8145  0.8932
 3463TIP3    H234585   0.555   0.510  18.918  0.1201  0.6135  0.6999
 3464TIP3   OH234586   4.315   1.035  20.521 -0.5114  0.1831  0.4161
 3464TIP3    H134587   4.222   1.058  20.515 -0.0744  1.7038 -1.4853
 3464TIP3    H234588   4.356   1.080  20.447  1.4077 -2.2700 -0.1532
 3465TIP3   OH234589   1.817   2.789  18.576 -0.4218 -0.5242  0.2512
 3465TIP3    H134590   1.741   2.816  18.626  0.5356  0.6320  1.1341
 3465TIP3    H234591   1.825   2.854  18.507  0.2343 -0.1650  0.6587
 3466TIP3   OH234592   4.862   1.824  17.933 -0.1978 -0.3742 -0.7649
 3466TIP3    H134593   4.957   1.827  17.941  0.0358 -0.1805 -3.0364
 3466TIP3    H234594   4.845   1.747  17.878 -1.2675  0.2516 -1.3463
 3467TIP3   OH234595   3.146   2.031  20.026 -0.3979 -0.8261  0.0871
 3467TIP3    H134596   3.050   2.033  20.027 -0.3961  0.7584  0.4320
 3467TIP3    H234597   3.171   2.122  20.010  1.0544 -1.4108 -1.2568
 3468TIP3   OH234598   0.642   4.093  19.502 -0.5745 -0.4848 -0.0090
 3468TIP3    H134599   0.632   4.038  19.580 -0.6716  0.4639  0.6611
 3468TIP3    H234600   0.655   4.181  19.536  0.8232 -0.2627 -1.0445
 3469TIP3   OH234601   4.920   1.630  19.962  0.3282  0.7575 -0.5309
 3469TIP3    H134602   4.975   1.554  19.981  0.2869  1.1069  1.1209
 3469TIP3    H234603   4.955   1.665  19.880  0.7571 -0.6579 -0.9655
 3470TIP3   OH234604   1.094   0.526  19.004  0.2370  0.4466 -0.4656
 3470TIP3    H134605   1.165   0.475  18.966  0.2847 -0.1042  0.3385
 3470TIP3    H234606   1.117   0.536  19.096 -0.6058  0.4591 -0.2424
 3471TIP3   OH234607   5.788   2.742  18.514 -0.2326 -0.4856 -0.1872
 3471TIP3    H134608   5.823   2.791  18.590 -0.5767 -1.2284  0.4641
 3471TIP3    H234609   5.814   2.794  18.439  1.9200 -0.7447  0.2858
 3472TIP3   OH234610   2.314   4.274  18.263 -0.1661  0.6514 -0.1365
 3472TIP3    H134611   2.393   4.220  18.265 -0.8147 -0.3161  1.1174
 3472TIP3    H234612   2.293   4.283  18.170  1.1363  0.5173 -0.4650
 3473TIP3   OH234613   4.137   4.411  19.319  0.2762  0.0784  0.2633
 3473TIP3    H134614   4.206   4.372  19.265  0.0836 -1.5787  1.1564
 3473TIP3    H234615   4.093   4.473  19.261  0.3788 -1.2985 -1.3484
 3474TIP3   OH234616   0.913   2.531  19.689 -0.3055  0.2018  0.3385
 3474TIP3    H134617   0.928   2.553  19.597 -0.9759  1.9276  0.5908
 3474TIP3    H234618   0.981   2.579  19.736 -1.1306  0.9037  0.8497
 3475TIP3   OH234619   1.015   1.254  19.771 -0.8047 -0.2632 -0.0322
 3475TIP3    H134620   0.965   1.200  19.710  1.0816 -0.8627 -1.1039
 3475TIP3    H234621   1.075   1.194  19.814 -0.3563  0.5844  0.5689
 3476TIP3   OH234622   1.748   3.837  20.149  0.2671 -0.0644 -0.3762
 3476TIP3    H134623   1.761   3.743  20.137  0.4597 -0.1985  0.8151
 3476TIP3    H234624   1.790   3.857  20.232 -2.0043  0.5903  0.7016
 3477TIP3   OH234625   5.490   5.777  20.270  0.1427  0.1514  0.2487
 3477TIP3    H134626   5.514   5.849  20.212 -1.8041  0.0095 -0.8407
 3477TIP3    H234627   5.522   5.699  20.225 -0.8158  0.0937 -0.3695
 3478TIP3   OH234628   4.583   0.588  19.772 -0.2477  0.5528 -0.1593
 3478TIP3    H134629   4.516   0.521  19.759 -1.1272  0.9739  1.8327
 3478TIP3    H234630   4.666   0.543  19.754 -0.9084 -0.6784 -0.2312
 3479TIP3   OH234631   0.999   2.403  17.921 -0.0975 -0.2063  0.9693
 3479TIP3    H134632   0.909   2.373  17.936  0.5845 -2.5615  0.8215
 3479TIP3    H234633   1.004   2.488  17.964 -1.9880 -0.6551  2.2006
 3480TIP3   OH234634   1.617   1.124  18.563 -0.1200  0.5331 -0.1969
 3480TIP3    H134635   1.589   1.154  18.477  2.4164  0.0848 -1.2784
 3480TIP3    H234636   1.627   1.029  18.553 -0.6180  0.3510  0.8752
 3481TIP3   OH234637   3.938   2.271  20.229  0.0317  0.4048  0.4657
 3481TIP3    H134638   3.888   2.347  20.258  1.5102  1.5684  0.0208
 3481TIP3    H234639   3.991   2.247  20.305  2.1553  2.0126 -0.4159
 3482TIP3   OH234640   1.191   2.281  20.390  0.0882 -0.1640  0.3787
 3482TIP3    H134641   1.159   2.354  20.443 -1.1702 -1.2893  1.2623
 3482TIP3    H234642   1.115   2.255  20.337  1.3919  1.1692 -2.3983
 3483TIP3   OH234643   1.023   5.732  19.127 -0.2367  0.6357 -0.2873
 3483TIP3    H134644   0.941   5.753  19.171  0.1792 -0.0204  0.8606
 3483TIP3    H234645   1.068   5.816  19.121 -0.6774  0.8785 -0.2393
 3484TIP3   OH234646   5.534   6.192  18.065  0.2600 -0.1793  0.1579
 3484TIP3    H134647   5.578   6.110  18.084 -0.4047 -0.2530  1.4930
 3484TIP3    H234648   5.605   6.255  18.051  0.7690 -0.8645 -0.3589
 3485TIP3   OH234649   0.980   0.508  18.507 -0.3319 -0.2201 -0.2123
 3485TIP3    H134650   1.023   0.426  18.531 -0.5934  0.1972  1.8732
 3485TIP3    H234651   0.939   0.489  18.422  0.7747 -1.7915 -0.4482
 3486TIP3   OH234652   3.105   2.839  18.372  0.4869 -0.5644 -0.0087
 3486TIP3    H134653   3.070   2.777  18.436 -1.3121 -0.2021 -0.5713
 3486TIP3    H234654   3.136   2.913  18.425  1.4086 -1.3459  0.5782
 3487TIP3   OH234655   1.436   6.106  18.951 -0.6561 -0.4137  0.5457
 3487TIP3    H134656   1.388   6.154  19.018 -1.8186  1.1224 -1.2809
 3487TIP3    H234657   1.381   6.030  18.933 -1.6156  0.4390 -0.3133
 3488TIP3   OH234658   1.267   0.540  19.863 -0.0451 -0.4590  0.3619
 3488TIP3    H134659   1.307   0.555  19.948  0.1539  0.4388  0.1155
 3488TIP3    H234660   1.197   0.605  19.856 -0.6355 -1.0912  0.1941
 3489TIP3   OH234661   3.399   6.634  20.131  0.3736 -0.3602  0.7340
 3489TIP3    H134662   3.439   6.548  20.134  1.0467 -0.0903 -0.1063
 3489TIP3    H234663   3.432   6.678  20.210  2.0719 -0.0241 -0.1001
 3490TIP3   OH234664   2.155   2.737  18.619  0.0156 -0.0926  0.5728
 3490TIP3    H134665   2.159   2.756  18.713  0.5795 -1.3860  0.8241
 3490TIP3    H234666   2.200   2.811  18.578  0.2360  0.2135  1.3452
 3491TIP3   OH234667   5.610   1.229  20.775  0.3993  0.3602 -0.3303
 3491TIP3    H134668   5.591   1.296  20.710  3.4626  0.2671 -1.5052
 3491TIP3    H234669   5.704   1.239  20.793  0.7860 -2.9210  0.1748
 3492TIP3   OH234670   3.292   3.909  20.956 -0.5441 -0.3156  0.3339
 3492TIP3    H134671   3.203   3.875  20.952 -0.3907 -0.6323 -1.0240
 3492TIP3    H234672   3.321   3.910  20.865  1.3478 -1.5449  0.8737
 3493TIP3   OH234673   4.702   6.202  18.557 -0.1992 -0.0150 -0.1846
 3493TIP3    H134674   4.619   6.192  18.510  0.4039  1.5123 -1.6488
 3493TIP3    H234675   4.760   6.137  18.518 -0.1002  0.3206 -0.5930
 3494TIP3   OH234676   2.468   6.298  20.596  0.1806 -0.8635 -0.1261
 3494TIP3    H134677   2.451   6.217  20.644  2.5064 -2.1736 -1.3356
 3494TIP3    H234678   2.511   6.355  20.660  0.2362 -1.3087  0.2387
 3495TIP3   OH234679   0.319   5.285  20.284 -0.5662 -0.5498  0.1727
 3495TIP3    H134680   0.325   5.359  20.345  0.3130 -0.5890  0.1410
 3495TIP3    H234681   0.228   5.287  20.253 -0.3835  0.9151 -0.3187
 3496TIP3   OH234682   4.050   1.082  18.604 -0.0066 -0.1197 -0.1051
 3496TIP3    H134683   4.117   1.087  18.672  0.5463 -1.0537 -0.5645
 3496TIP3    H234684   4.010   0.996  18.616  3.0420 -2.3163 -3.5831
 3497TIP3   OH234685   3.045   3.098  19.849  0.2402  0.8502 -1.0811
 3497TIP3    H134686   3.027   3.095  19.943  1.9645  0.8909 -0.7012
 3497TIP3    H234687   2.967   3.138  19.810 -0.7367  0.3131  0.2551
 3498TIP3   OH234688   3.411   2.945  19.464  0.4963  0.2856  0.0583
 3498TIP3    H134689   3.316   2.939  19.465  0.3337  1.5318  3.1678
 3498TIP3    H234690   3.429   3.036  19.443  0.9097  0.4321  0.9967
 3499TIP3   OH234691   0.493   0.226  19.822 -0.2081 -0.2631 -0.3275
 3499TIP3    H134692   0.571   0.269  19.787 -0.9676  1.5897  0.1183
 3499TIP3    H234693   0.520   0.136  19.839  1.0541 -0.3865 -2.6870
 3500TIP3   OH234694   3.890   3.804  20.127 -0.4942 -0.3973  0.6619
 3500TIP3    H134695   3.862   3.886  20.086 -1.9776 -1.4856 -0.6798
 3500TIP3    H234696   3.983   3.797  20.106 -0.4807  0.6710  0.2983
 3501TIP3   OH234697   4.374   0.245  18.519  0.5515 -0.0775 -0.3102
 3501TIP3    H134698   4.367   0.241  18.424  1.5634 -2.2388 -0.3692
 3501TIP3    H234699   4.383   0.338  18.540  0.7345  0.3971 -2.3506
 3502TIP3   OH234700   1.392   4.918  18.201  0.0173 -0.7677  0.4579
 3502TIP3    H134701   1.350   4.898  18.117  2.6156 -2.7992 -0.5001
 3502TIP3    H234702   1.341   4.871  18.266 -1.2307 -0.2782 -0.1394
 3503TIP3   OH234703   0.191   1.221  19.321  1.0937 -0.4932  0.1625
 3503TIP3    H134704   0.201   1.152  19.387 -0.9155 -0.5682  0.4803
 3503TIP3    H234705   0.130   1.283  19.362  0.3135 -0.2043 -1.3543
 3504TIP3   OH234706   2.192   3.863  21.374  0.1868 -0.1910  0.0405
 3504TIP3    H134707   2.216   3.894  21.286  0.2922 -0.5926 -0.0742
 3504TIP3    H234708   2.260   3.899  21.431  0.1199  0.0705 -0.0433
 3505TIP3   OH234709   5.559   0.039  18.659  0.2150  0.3498  0.5497
 3505TIP3    H134710   5.546   0.013  18.568  1.8292  1.8820 -0.1678
 3505TIP3    H234711   5.542   0.133  18.660  2.4692  0.8206  1.2747
 3506TIP3   OH234712   1.961   2.206  18.783 -0.2639  0.0611  0.2212
 3506TIP3    H134713   1.930   2.233  18.869 -0.9407 -0.9759  0.3105
 3506TIP3    H234714   2.054   2.187  18.796  0.0340  1.4808  0.3410
 3507TIP3   OH234715   3.613   1.652  20.838  0.1933  0.0104  0.5989
 3507TIP3    H134716   3.591   1.582  20.777  1.2238 -0.1569  0.4010
 3507TIP3    H234717   3.697   1.686  20.806 -0.2046  1.2158  0.7960
 3508TIP3   OH234718   0.759   0.354  20.122  0.2661  0.0560  0.4899
 3508TIP3    H134719   0.797   0.385  20.040  0.0953 -0.1778  0.3171
 3508TIP3    H234720   0.741   0.433  20.173 -2.2734  0.4544 -0.8568
 3509TIP3   OH234721   6.004   4.240  18.955  0.1235 -0.6197 -0.5686
 3509TIP3    H134722   5.917   4.215  18.986  0.1569 -1.0474 -0.7964
 3509TIP3    H234723   6.046   4.281  19.030  0.1316 -1.4486 -0.1037
 3510TIP3   OH234724   4.923   1.028  19.436 -0.1314 -0.1211  0.2269
 3510TIP3    H134725   4.961   0.946  19.468 -1.3988 -0.3869  1.1456
 3510TIP3    H234726   4.924   1.086  19.512 -0.8786  0.1035  0.0762
 3511TIP3   OH234727   6.261   1.382  18.838  0.1614 -0.0708  0.2397
 3511TIP3    H134728   6.197   1.335  18.890 -0.5296  1.4348  0.8029
 3511TIP3    H234729   6.260   1.339  18.753 -1.5922 -0.0717  0.2440
 3512TIP3   OH234730   5.782   2.344  20.549  0.5965 -0.1217 -0.4482
 3512TIP3    H134731   5.797   2.294  20.629  0.8714 -1.7532 -1.4634
 3512TIP3    H234732   5.767   2.277  20.482 -1.6010  1.2013 -1.4075
 3513TIP3   OH234733   1.260   1.151  19.244 -0.4976 -0.1706  0.0607
 3513TIP3    H134734   1.335   1.155  19.184  0.3645  1.7517  1.1834
 3513TIP3    H234735   1.201   1.220  19.213 -0.6554 -0.0426  0.6367
 3514TIP3   OH234736   2.504   0.431  19.686 -0.0919 -0.6607 -0.0552
 3514TIP3    H134737   2.417   0.407  19.718  0.4837 -1.3207  1.0842
 3514TIP3    H234738   2.497   0.524  19.664 -1.1234 -0.7526 -0.1720
 3515TIP3   OH234739   2.805   1.371  18.856  0.0459  0.0830  0.3538
 3515TIP3    H134740   2.758   1.411  18.783 -0.1031  0.5050  0.6780
 3515TIP3    H234741   2.814   1.441  18.920  3.1117  0.6983 -0.5955
 3516TIP3   OH234742   1.778   6.247  20.254 -0.2722  0.2554 -0.2038
 3516TIP3    H134743   1.850   6.189  20.228  0.1494  0.7394 -0.1496
 3516TIP3    H234744   1.720   6.249  20.178  0.6103  1.1327 -0.8795
 3517TIP3   OH234745   3.127   2.975  19.456 -0.7185 -0.1805  0.1832
 3517TIP3    H134746   3.092   2.928  19.531 -0.6438  1.2450  1.1748
 3517TIP3    H234747   3.123   3.067  19.482  1.1826  0.2286 -0.7463
 3518TIP3   OH234748   0.357   3.086  20.592 -0.1837 -0.0307 -0.4771
 3518TIP3    H134749   0.274   3.086  20.640  0.4604 -0.7557  0.6678
 3518TIP3    H234750   0.377   2.993  20.579  1.0174  0.1032  0.2834
 3519TIP3   OH234751   4.250   5.759  21.046 -0.8267  0.3060 -0.2568
 3519TIP3    H134752   4.254   5.835  20.987 -1.5628  0.6592  0.1283
 3519TIP3    H234753   4.206   5.792  21.124  1.5169  0.2786  1.1745
 3520TIP3   OH234754   6.295   0.362  19.649 -0.5201 -0.2480  0.2947
 3520TIP3    H134755   6.286   0.455  19.670 -0.9284  0.2586 -1.8901
 3520TIP3    H234756   6.285   0.318  19.733 -1.0917  1.6354  1.2762
 3521TIP3   OH234757   3.992   6.010  20.097  0.2259 -0.2010 -0.4071
 3521TIP3    H134758   4.066   5.995  20.038 -0.9344 -1.3415 -1.6403
 3521TIP3    H234759   4.032   6.024  20.182  1.8440 -1.7502 -0.8547
 3522TIP3   OH234760   2.717   1.774  20.354 -0.2938  0.2162  0.5779
 3522TIP3    H134761   2.734   1.742  20.443  0.6012  2.1015  1.1305
 3522TIP3    H234762   2.802   1.805  20.323 -0.9184  1.1100 -0.2888
 3523TIP3   OH234763   4.812   3.321  20.561  0.0523  0.6252  0.6246
 3523TIP3    H134764   4.828   3.385  20.630 -0.7831 -0.6381  2.0433
 3523TIP3    H234765   4.801   3.374  20.482 -1.3778  2.3306  1.8618
 3524TIP3   OH234766   2.572   3.923  18.563  0.1155  0.4641 -0.6104
 3524TIP3    H134767   2.516   3.915  18.639  1.3978  1.1089  0.4494
 3524TIP3    H234768   2.557   3.843  18.513  0.6340 -0.8737  1.2823
 3525TIP3   OH234769   5.211   3.133  20.366  0.1135  0.0497  0.3465
 3525TIP3    H134770   5.212   3.190  20.289 -1.9293  0.6014  0.6760
 3525TIP3    H234771   5.284   3.164  20.420  0.2239  1.0903 -0.3685
 3526TIP3   OH234772   4.626   4.691  19.698  0.0894  0.1394 -0.4416
 3526TIP3    H134773   4.540   4.717  19.665 -0.1844 -1.2411 -0.8654
 3526TIP3    H234774   4.648   4.758  19.763 -1.7397  0.0030  0.3861
 3527TIP3   OH234775   2.767   6.529  18.274  0.0093  0.1075 -0.0647
 3527TIP3    H134776   2.791   6.461  18.211  0.2255  1.2453 -1.2399
 3527TIP3    H234777   2.717   6.593  18.224  0.4896  1.2187  0.8225
 3528TIP3   OH234778   2.741   5.685  20.712 -0.3457  0.0430 -0.7774
 3528TIP3    H134779   2.766   5.688  20.620  1.4175 -1.0364 -0.3839
 3528TIP3    H234780   2.721   5.776  20.735  2.7661  0.9746 -1.3296
 3529TIP3   OH234781   3.363   4.457  18.860 -0.1969  0.5919  0.1741
 3529TIP3    H134782   3.286   4.410  18.829  0.8608 -0.0820 -1.5922
 3529TIP3    H234783   3.424   4.387  18.886  0.4582  1.0403 -0.1229
 3530TIP3   OH234784   0.154   2.416  17.858  0.3988  0.0338  0.0328
 3530TIP3    H134785   0.223   2.365  17.815  0.5723 -1.5080  1.9972
 3530TIP3    H234786   0.072   2.380  17.823  0.5455 -0.0044 -0.2740
 3531TIP3   OH234787   5.090   3.687  18.611 -0.0402 -1.1402 -0.0083
 3531TIP3    H134788   5.023   3.633  18.569 -0.5684 -0.0853 -0.5649
 3531TIP3    H234789   5.070   3.777  18.583  1.8478 -0.8380 -0.5247
 3532TIP3   OH234790   3.775   0.074  20.689  0.3039 -0.3320 -0.0832
 3532TIP3    H134791   3.685   0.067  20.720  0.0580  0.7742 -0.5302
 3532TIP3    H234792   3.821   0.119  20.760  0.3123 -0.1075 -0.2323
 3533TIP3   OH234793   1.824   0.673  19.192 -0.2822 -0.4944 -0.3494
 3533TIP3    H134794   1.819   0.747  19.253  0.4811 -0.5309 -0.2318
 3533TIP3    H234795   1.835   0.714  19.106 -0.0584 -0.4592 -0.3058
 3534TIP3   OH234796   0.010   5.472  20.519 -0.2294  0.1029  0.1189
 3534TIP3    H134797  -0.070   5.523  20.534 -0.2882  0.6352 -1.7813
 3534TIP3    H234798  -0.020   5.394  20.473  0.3030  0.1626 -0.3312
 3535TIP3   OH234799   4.686   2.624  19.690  0.4965  0.1327  0.0425
 3535TIP3    H134800   4.613   2.672  19.729  2.0552  0.1970  3.2023
 3535TIP3    H234801   4.657   2.533  19.691 -0.0818  0.3084 -0.1109
 3536TIP3   OH234802   3.569   2.300  18.572  0.3256  0.1114 -0.2071
 3536TIP3    H134803   3.581   2.370  18.637  1.1087 -0.0279 -0.1895
 3536TIP3    H234804   3.558   2.346  18.489 -1.9533  0.3451  0.1552
 3537TIP3   OH234805   6.679   0.668  19.305  0.2700  0.4503  0.3497
 3537TIP3    H134806   6.678   0.660  19.210 -0.3176 -0.1971  0.4062
 3537TIP3    H234807   6.668   0.762  19.322  1.4269  0.7110 -0.2257
 3538TIP3   OH234808   2.868   6.086  19.734 -0.8799 -0.1035  0.4329
 3538TIP3    H134809   2.898   6.107  19.646 -1.6581 -1.6367 -0.2346
 3538TIP3    H234810   2.818   6.164  19.761 -1.1227  0.1545 -0.7149
 3539TIP3   OH234811   1.152   1.638  17.489  0.8068 -0.3990 -0.1029
 3539TIP3    H134812   1.111   1.691  17.557 -0.1025  0.3342 -1.1728
 3539TIP3    H234813   1.246   1.643  17.508  0.6009  0.2137  0.8008
 3540TIP3   OH234814   5.092   3.430  17.767  0.0227  0.6649 -0.2522
 3540TIP3    H134815   5.129   3.482  17.696 -0.5162  1.9176  0.3514
 3540TIP3    H234816   5.079   3.493  17.839 -3.0873  0.3022 -0.3544
 3541TIP3   OH234817   1.421   4.565  18.588 -0.4705 -0.0395  0.0941
 3541TIP3    H134818   1.514   4.569  18.566 -0.0792  0.4512  1.6866
 3541TIP3    H234819   1.384   4.643  18.547 -0.2212 -0.3025 -0.6567
 3542TIP3   OH234820   1.208   1.478  19.523  0.1664  0.2833 -0.7314
 3542TIP3    H134821   1.154   1.530  19.463  0.7699  3.6133  1.3553
 3542TIP3    H234822   1.169   1.492  19.609  1.6293 -1.0977  0.2205
 3543TIP3   OH234823   5.474   0.680  18.396  0.4412  0.0564 -0.6771
 3543TIP3    H134824   5.449   0.701  18.306  1.1906  0.1610 -0.8691
 3543TIP3    H234825   5.561   0.642  18.389 -0.3290 -1.9132 -0.1982
 3544TIP3   OH234826   4.685   4.523  20.958 -0.8213 -0.0421 -0.1047
 3544TIP3    H134827   4.636   4.562  20.885  0.2512 -1.0423 -1.4008
 3544TIP3    H234828   4.738   4.595  20.992  0.4880 -0.0744 -1.9181
 3545TIP3   OH234829   3.988   2.026  19.464 -0.0267 -0.1885  0.4059
 3545TIP3    H134830   3.895   2.044  19.447 -0.2007 -0.6119  0.9182
 3545TIP3    H234831   4.018   2.100  19.517 -0.4948 -0.8724  1.6576
 3546TIP3   OH234832   3.526   6.486  18.386  0.8214 -0.7254 -0.1412
 3546TIP3    H134833   3.602   6.436  18.415  2.1022 -0.9064 -3.4089
 3546TIP3    H234834   3.456   6.422  18.380  1.0742 -1.0711  0.4837
 3547TIP3   OH234835   6.588   1.692  18.622 -0.6258  0.2104  0.7380
 3547TIP3    H134836   6.605   1.715  18.531 -0.0214  1.1082  1.0626
 3547TIP3    H234837   6.550   1.605  18.618 -0.0582 -0.0078 -0.3355
 3548TIP3   OH234838   1.328   5.484  17.835 -0.4494 -0.2567 -0.2882
 3548TIP3    H134839   1.233   5.468  17.831 -0.6588  0.5884  0.8519
 3548TIP3    H234840   1.335   5.579  17.842  0.4624 -0.3689  0.4139
 3549TIP3   OH234841   2.208   3.904  20.861 -0.2793 -0.0869  0.2607
 3549TIP3    H134842   2.142   3.838  20.842  0.2111 -0.7320  0.7623
 3549TIP3    H234843   2.264   3.906  20.783 -1.4826  1.2287 -0.6250
 3550TIP3   OH234844   3.147   4.665  18.263  0.1392  0.3884  0.0882
 3550TIP3    H134845   3.074   4.608  18.288 -0.3358  0.9568 -0.0055
 3550TIP3    H234846   3.121   4.701  18.179  1.0012 -0.2222 -0.4577
 3551TIP3   OH234847   2.944   5.216  18.588  0.1374  0.1482  0.1385
 3551TIP3    H134848   2.995   5.233  18.668  1.5254 -0.6109 -0.5390
 3551TIP3    H234849   2.872   5.160  18.617 -0.4222  1.3526  1.1519
 3552TIP3   OH234850   3.467   1.508  18.142 -0.5587 -0.0112 -0.7448
 3552TIP3    H134851   3.406   1.581  18.134  2.0709  2.4037 -0.0998
 3552TIP3    H234852   3.535   1.525  18.077  1.3709 -0.5204  1.0139
 3553TIP3   OH234853   4.536   5.208  18.278 -0.9712  0.4186  0.1602
 3553TIP3    H134854   4.487   5.134  18.315  0.8645 -0.3940  1.0925
 3553TIP3    H234855   4.512   5.208  18.185 -2.9375  0.2687  0.6219
 3554TIP3   OH234856   0.039   5.126  19.082  0.1244 -0.0952  0.2443
 3554TIP3    H134857   0.086   5.043  19.090  3.5249  1.6505 -0.2070
 3554TIP3    H234858   0.096   5.182  19.029 -1.7902  2.7399  0.9285
 3555TIP3   OH234859   0.090   4.649  19.527  0.1998 -0.5273  0.1433
 3555TIP3    H134860   0.076   4.726  19.472  0.7251 -0.4752  0.0816
 3555TIP3    H234861   0.185   4.645  19.540  0.1405 -0.9343  0.4764
 3556TIP3   OH234862   4.681   2.019  17.862  0.4082 -0.4130 -0.3115
 3556TIP3    H134863   4.747   1.949  17.866 -0.6901 -1.5155 -0.8090
 3556TIP3    H234864   4.623   1.993  17.791  0.5203  1.5427 -1.1753
 3557TIP3   OH234865   5.313   0.430  20.424  0.2589 -0.3577 -0.7853
 3557TIP3    H134866   5.342   0.340  20.409 -0.8840 -0.8627 -0.1282
 3557TIP3    H234867   5.324   0.444  20.518  0.4391  0.2096 -0.8816
 3558TIP3   OH234868   0.715   4.278  20.179  0.2699  0.1628 -0.5701
 3558TIP3    H134869   0.778   4.227  20.129  2.1420  2.8475 -1.2156
 3558TIP3    H234870   0.764   4.308  20.255 -0.5188  1.4967 -0.5546
 3559TIP3   OH234871   5.819   1.139  19.961  0.1918 -0.5848 -0.3282
 3559TIP3    H134872   5.896   1.092  19.993 -1.0109 -1.6983  1.0491
 3559TIP3    H234873   5.779   1.080  19.897 -1.8027 -1.9813  2.0293
 3560TIP3   OH234874   1.037   0.660  21.115  0.2208 -0.2541  0.1661
 3560TIP3    H134875   1.029   0.630  21.205 -0.5023 -1.1703 -0.1816
 3560TIP3    H234876   1.063   0.752  21.122  2.1696 -0.8142  1.2878
 3561TIP3   OH234877   6.507   3.416  18.167 -0.0383 -0.2690  0.7250
 3561TIP3    H134878   6.592   3.456  18.151 -0.3948  0.0765 -0.4102
 3561TIP3    H234879   6.513   3.381  18.256  0.7385  1.1375  1.2510
 3562TIP3   OH234880   2.519   1.408  18.203 -0.2722 -0.1269 -0.7672
 3562TIP3    H134881   2.436   1.426  18.158 -1.2987 -1.1116  0.6586
 3562TIP3    H234882   2.522   1.472  18.274  0.6669  0.5113 -1.3570
 3563TIP3   OH234883   4.466   2.116  19.908  0.5520  0.2008  0.0966
 3563TIP3    H134884   4.439   2.026  19.929  0.8148  0.4521  1.5830
 3563TIP3    H234885   4.517   2.107  19.827 -1.2875 -0.6796 -1.0152
 3564TIP3   OH234886   6.316   5.308  19.423 -0.6780 -0.1501 -0.4904
 3564TIP3    H134887   6.407   5.279  19.426  0.1196  2.2278  0.4371
 3564TIP3    H234888   6.274   5.250  19.359  0.7668 -3.1011  1.0527
 3565TIP3   OH234889   0.555   6.150  18.086 -0.1877  0.8134 -0.5873
 3565TIP3    H134890   0.578   6.100  18.008 -0.5810  0.3911 -0.4347
 3565TIP3    H234891   0.630   6.207  18.101  1.3802 -1.4215  0.6578
 3566TIP3   OH234892   2.596   2.723  19.340 -0.0947  0.0349  0.3152
 3566TIP3    H134893   2.511   2.742  19.380  1.2341  2.0021  2.3948
 3566TIP3    H234894   2.642   2.807  19.340  0.8044 -0.2656 -3.6169
 3567TIP3   OH234895   6.642   2.902  18.142  0.2668 -0.0378  0.3143
 3567TIP3    H134896   6.635   2.937  18.053  0.9950  0.7510  0.5558
 3567TIP3    H234897   6.604   2.969  18.198 -1.3938 -1.0984  0.5073
 3568TIP3   OH234898   5.138   2.240  21.108 -0.0579  0.3217 -0.5492
 3568TIP3    H134899   5.186   2.165  21.073  1.7832  1.1172  0.1438
 3568TIP3    H234900   5.163   2.313  21.051  0.0901  0.8893  0.2293
 3569TIP3   OH234901   4.030   6.660  20.233  0.5100  0.1786 -0.3115
 3569TIP3    H134902   3.951   6.714  20.230  0.0170 -0.5251 -0.3907
 3569TIP3    H234903   4.072   6.674  20.148  0.9592  1.2548  0.0784
 3570TIP3   OH234904   1.913   1.030  21.174  0.5777  0.0869 -0.6331
 3570TIP3    H134905   2.005   1.026  21.147  1.0709  0.1846  0.8857
 3570TIP3    H234906   1.870   1.084  21.108  1.2529 -1.2807 -2.2514
 3571TIP3   OH234907   2.149   6.390  20.828 -0.2788  0.1038 -0.1473
 3571TIP3    H134908   2.112   6.404  20.915  0.6847 -0.5102  0.3773
 3571TIP3    H234909   2.081   6.419  20.767  0.0373  3.1723  0.7996
 3572TIP3   OH234910   4.774   3.299  18.532 -0.1132 -0.2496 -0.3631
 3572TIP3    H134911   4.757   3.231  18.466  0.1716 -1.7081  1.0025
 3572TIP3    H234912   4.689   3.339  18.548 -0.4954 -1.0047 -0.4495
 3573TIP3   OH234913   6.592   4.862  20.099  0.2553 -0.2620 -0.5683
 3573TIP3    H134914   6.667   4.895  20.148 -0.3136 -0.8327  0.7251
 3573TIP3    H234915   6.610   4.769  20.086 -0.2563 -0.4258 -0.1624
 3574TIP3   OH234916   3.801   1.785  19.844  0.2212  0.0498  0.5342
 3574TIP3    H134917   3.732   1.843  19.811  1.0337  0.3261 -0.7330
 3574TIP3    H234918   3.869   1.843  19.877  0.0624 -0.2220  1.3730
 3575TIP3   OH234919   3.313   3.583  19.866 -0.3557  0.0117 -0.2438
 3575TIP3    H134920   3.339   3.502  19.910  1.6691  0.8469  0.2438
 3575TIP3    H234921   3.390   3.640  19.875 -0.7980  1.1314 -2.6849
 3576TIP3   OH234922   1.048   1.645  19.353  0.3590  0.2546  0.3403
 3576TIP3    H134923   0.997   1.649  19.273 -0.9428  3.0326  1.1826
 3576TIP3    H234924   1.001   1.701  19.415  1.9532 -0.8051  2.6767
 3577TIP3   OH234925   2.573   4.041  20.164  0.3774  0.0848  0.1493
 3577TIP3    H134926   2.590   4.039  20.258  0.2303 -0.8144  0.1650
 3577TIP3    H234927   2.642   3.987  20.125 -0.4012 -0.7588 -0.1060
 3578TIP3   OH234928   2.302   1.249  20.381 -0.7808  0.0466  0.0120
 3578TIP3    H134929   2.394   1.261  20.401 -0.9217 -0.8242  1.3423
 3578TIP3    H234930   2.294   1.156  20.359 -1.1281  0.3967 -1.4392
 3579TIP3   OH234931   4.958   1.311  18.363  0.3791  0.1510 -0.8909
 3579TIP3    H134932   5.009   1.335  18.286  1.2983  0.5481 -0.1652
 3579TIP3    H234933   5.005   1.237  18.401  0.6579  0.7844  0.0203
 3580TIP3   OH234934   4.221   6.076  20.252  0.1064 -0.8336  0.1325
 3580TIP3    H134935   4.253   5.999  20.205  1.1300 -1.0732  1.1741
 3580TIP3    H234936   4.269   6.149  20.214  2.2790 -1.2252  1.8970
 3581TIP3   OH234937   1.841   5.915  20.334 -0.3265 -0.4065  0.0644
 3581TIP3    H134938   1.858   5.852  20.404  0.4561  0.3746  0.5874
 3581TIP3    H234939   1.769   5.969  20.367 -0.7557 -0.7838 -0.2366
 3582TIP3   OH234940   6.334   4.462  20.758 -0.0137  0.1582  0.1137
 3582TIP3    H134941   6.389   4.384  20.766  0.7456  0.5990 -0.7171
 3582TIP3    H234942   6.246   4.430  20.779  0.4854 -0.6184  1.1627
 3583TIP3   OH234943   0.794   5.833  20.269  0.1906  0.0626 -0.4542
 3583TIP3    H134944   0.889   5.850  20.270  0.4030 -1.0783 -0.0354
 3583TIP3    H234945   0.784   5.754  20.217 -0.6487  0.6932 -1.2759
 3584TIP3   OH234946   2.530   0.777  19.172  0.7372  0.1405 -0.3587
 3584TIP3    H134947   2.508   0.821  19.089 -2.7980  1.4510  1.0589
 3584TIP3    H234948   2.561   0.848  19.228 -0.2886 -0.0279  0.4553
 3585TIP3   OH234949   4.522   0.715  17.352 -0.2148 -0.1967 -0.1535
 3585TIP3    H134950   4.476   0.796  17.374 -0.2833 -0.5770  1.1929
 3585TIP3    H234951   4.608   0.724  17.393  0.0706 -0.4751 -0.6780
 3586TIP3   OH234952   1.534   5.605  18.734 -0.7193 -0.1678  0.1226
 3586TIP3    H134953   1.531   5.647  18.648  2.2416  0.1615  0.0805
 3586TIP3    H234954   1.539   5.678  18.796  0.5791 -0.3767  0.2987
 3587TIP3   OH234955   0.301   3.212  20.204  0.3410  0.0381  0.2657
 3587TIP3    H134956   0.369   3.174  20.260 -0.4167  0.2522  1.3600
 3587TIP3    H234957   0.265   3.284  20.255 -1.8705 -1.1208  0.4534
 3588TIP3   OH234958   4.979   5.170  21.028  0.0914  0.5822 -0.2583
 3588TIP3    H134959   4.893   5.154  21.069  0.0074 -0.9090 -0.9587
 3588TIP3    H234960   4.966   5.248  20.975 -1.2164 -0.3219 -1.3324
 3589TIP3   OH234961   4.143   6.568  18.271  0.1113 -0.1392  0.4939
 3589TIP3    H134962   4.176   6.498  18.216 -0.1929 -0.5882  0.8788
 3589TIP3    H234963   4.123   6.640  18.211  0.1270 -0.4938  0.0687
 3590TIP3   OH234964   4.958   4.385  20.688  0.4302  0.4763 -0.0615
 3590TIP3    H134965   4.894   4.313  20.691  0.6865  0.2575  0.2102
 3590TIP3    H234966   5.028   4.352  20.632  0.0275  0.9502 -0.8579
 3591TIP3   OH234967   0.990   3.550  20.651  0.4194 -0.2096 -0.2528
 3591TIP3    H134968   1.032   3.473  20.611 -0.3060  0.6388 -2.8761
 3591TIP3    H234969   0.901   3.521  20.670  0.1026 -0.0401 -1.3730
 3592TIP3   OH234970   3.395   2.936  19.738 -0.0177 -0.6175  0.5053
 3592TIP3    H134971   3.412   2.911  19.647 -0.0158  1.6245 -0.1612
 3592TIP3    H234972   3.344   2.863  19.774 -4.2121  0.4002 -2.6838
 3593TIP3   OH234973   4.996   0.481  20.705 -0.5403  0.0558 -0.0848
 3593TIP3    H134974   5.090   0.497  20.696 -0.7478  1.6991  0.2532
 3593TIP3    H234975   4.955   0.554  20.657 -1.6420 -0.3224  0.2441
 3594TIP3   OH234976   2.409   5.236  18.244  0.0557 -0.4205 -0.5934
 3594TIP3    H134977   2.490   5.217  18.290 -1.2343 -0.7943  1.6896
 3594TIP3    H234978   2.389   5.156  18.196  1.6543  0.1217 -2.2350
 3595TIP3   OH234979   1.501   6.481  21.213  0.3750 -0.5262  0.3254
 3595TIP3    H134980   1.443   6.411  21.183 -1.5107  0.3360  1.7370
 3595TIP3    H234981   1.457   6.562  21.187  0.1064  0.1834  2.7121
 3596TIP3   OH234982   5.923   4.855  18.852  0.3468  0.0317  0.0394
 3596TIP3    H134983   5.913   4.828  18.761  2.0385  0.2789 -0.2382
 3596TIP3    H234984   5.834   4.878  18.879 -0.0207  1.3716 -2.0066
 3597TIP3   OH234985   0.343   3.880  20.255  0.2152 -0.3607  0.0518
 3597TIP3    H134986   0.290   3.960  20.244  1.3165  0.1846 -1.6131
 3597TIP3    H234987   0.340   3.863  20.349 -1.2456  0.8103  0.2613
 3598TIP3   OH234988   5.678   1.620  17.852  0.0255 -0.6377  0.4160
 3598TIP3    H134989   5.696   1.526  17.859 -0.0984 -0.5489  2.7812
 3598TIP3    H234990   5.582   1.626  17.855  0.0611 -0.3958  1.2088
 3599TIP3   OH234991   5.094   6.462  20.987 -0.2267 -0.1378  1.3322
 3599TIP3    H134992   5.005   6.440  20.958  1.1073 -0.8690 -2.8957
 3599TIP3    H234993   5.088   6.554  21.012 -1.7545  0.5895 -1.3230
 3600TIP3   OH234994   4.672   1.758  18.811 -0.6387  0.3829  0.0254
 3600TIP3    H134995   4.735   1.695  18.777  0.9888  0.6626  2.3221
 3600TIP3    H234996   4.624   1.711  18.879 -1.7925  0.6567 -0.5793
 3601TIP3   OH234997   5.743   3.776  19.381  0.3192  0.1613 -0.2784
 3601TIP3    H134998   5.648   3.789  19.382  0.0459 -1.4239 -1.6475
 3601TIP3    H234999   5.759   3.706  19.444  0.2599 -1.1455 -1.6546
 3602TIP3   OH235000   5.390   6.106  18.768  0.3214  0.0067 -0.3716
 3602TIP3    H135001   5.362   6.042  18.834  0.1744  0.6727  0.2245
 3602TIP3    H235002   5.379   6.191  18.811  0.4221  0.4418 -1.1854
 3603TIP3   OH235003   1.076   5.447  19.617 -0.2146 -0.3048 -0.3326
 3603TIP3    H135004   1.143   5.410  19.559  1.8373  2.6491 -0.0849
 3603TIP3    H235005   1.095   5.408  19.703  0.5732 -0.3130 -0.4969
 3604TIP3   OH235006   5.999   6.406  20.456  0.1319 -0.3548  0.2779
 3604TIP3    H135007   5.978   6.339  20.390  1.8238 -0.5558 -0.1052
 3604TIP3    H235008   6.019   6.357  20.535 -2.2459 -0.0997  1.1314
 3605TIP3   OH235009   4.263   6.074  18.359  0.1333 -0.3049  0.2484
 3605TIP3    H135010   4.350   6.114  18.352  0.2193 -0.6190 -0.5698
 3605TIP3    H235011   4.204   6.147  18.377  0.2535  0.2451 -1.4911
 3606TIP3   OH235012   4.537   0.548  18.954 -0.7568  0.2302  0.3596
 3606TIP3    H135013   4.455   0.592  18.932 -0.6144  2.5500  3.7021
 3606TIP3    H235014   4.605   0.605  18.916 -0.6526  0.5755  1.0481
 3607TIP3   OH235015   0.362   4.738  20.248 -0.2377 -0.2502  0.7900
 3607TIP3    H135016   0.339   4.784  20.167  1.8849 -0.4318  0.0379
 3607TIP3    H235017   0.279   4.700  20.278 -0.9396 -0.9444 -1.7880
 3608TIP3   OH235018   1.387   2.523  18.872 -0.3477  0.2115 -0.1351
 3608TIP3    H135019   1.334   2.577  18.931 -1.2715  0.2307 -0.9604
 3608TIP3    H235020   1.376   2.564  18.786  0.0394 -0.4908 -0.5280
 3609TIP3   OH235021   6.384   3.849  21.130 -0.4102 -0.4096  0.0112
 3609TIP3    H135022   6.409   3.770  21.177  1.1851  0.9787  1.6315
 3609TIP3    H235023   6.462   3.874  21.081 -0.7453  0.4307 -0.1181
 3610TIP3   OH235024   6.349   4.391  17.862 -0.0036 -0.4130 -0.3087
 3610TIP3    H135025   6.417   4.372  17.798  1.1997 -0.6895  1.0280
 3610TIP3    H235026   6.287   4.319  17.853 -0.0640 -0.2473 -1.4057
 3611TIP3   OH235027   2.772   4.996  19.253 -0.4410  0.0892 -0.0036
 3611TIP3    H135028   2.821   5.057  19.198  0.4308 -0.6371 -0.0448
 3611TIP3    H235029   2.727   5.052  19.316  1.6494  0.7011  1.0184
 3612TIP3   OH235030   6.121   4.359  19.957 -0.0679  0.6599  0.3671
 3612TIP3    H135031   6.103   4.270  19.986 -0.6026  0.9159  0.8411
 3612TIP3    H235032   6.205   4.381  19.997  0.5688  0.0197 -0.5721
 3613TIP3   OH235033   4.489   3.239  18.289 -0.1558  0.0995  0.5302
 3613TIP3    H135034   4.445   3.302  18.233 -0.2200  1.0285  1.5886
 3613TIP3    H235035   4.417   3.188  18.329 -0.1523  0.0363  0.4554
 3614TIP3   OH235036   1.150   4.455  20.608 -0.5525  0.2510  0.4724
 3614TIP3    H135037   1.089   4.519  20.643 -1.9607 -2.5495  3.5900
 3614TIP3    H235038   1.216   4.444  20.677  1.2554  0.3046 -1.1634
 3615TIP3   OH235039   4.676   4.753  17.515 -0.2718  0.1176 -0.0629
 3615TIP3    H135040   4.588   4.715  17.511 -0.2520 -0.0496  0.9110
 3615TIP3    H235041   4.685   4.784  17.605  1.1026 -0.9390  0.1930
 3616TIP3   OH235042   5.136   5.228  18.866  0.1945  0.3292  0.5934
 3616TIP3    H135043   5.056   5.281  18.864  0.7561  1.2125 -1.5694
 3616TIP3    H235044   5.108   5.140  18.842 -0.2344  0.4837  0.5178
 3617TIP3   OH235045   6.226   2.500  19.481  0.1289  0.5046 -0.1244
 3617TIP3    H135046   6.263   2.444  19.413  0.0060  1.8853 -1.4101
 3617TIP3    H235047   6.135   2.513  19.453  0.2491  1.5858 -0.0526
 3618TIP3   OH235048   1.852   1.457  21.139  0.0493  0.0279  0.0309
 3618TIP3    H135049   1.885   1.428  21.225 -0.8188  0.5435  0.5548
 3618TIP3    H235050   1.821   1.546  21.155  0.0471  0.1907 -0.8753
 3619TIP3   OH235051   4.183   3.114  19.138  0.0642  0.0183 -0.0467
 3619TIP3    H135052   4.100   3.072  19.161 -1.2563  1.9026 -1.0994
 3619TIP3    H235053   4.200   3.086  19.048 -0.6293  1.3560 -0.6220
 3620TIP3   OH235054   0.976   2.081  19.496  0.1639 -0.2373  1.1023
 3620TIP3    H135055   0.974   2.025  19.573 -2.4488 -2.4429 -0.4123
 3620TIP3    H235056   1.005   2.024  19.425 -1.9402  0.3847 -0.3697
 3621TIP3   OH235057   0.672   4.766  20.795 -0.0223  0.1396 -0.1897
 3621TIP3    H135058   0.710   4.680  20.812  0.7590  0.5700  0.3126
 3621TIP3    H235059   0.613   4.752  20.721 -0.3252 -0.9314  0.2352
 3622TIP3   OH235060   1.674   0.307  18.578  0.0771 -0.2851  0.5470
 3622TIP3    H135061   1.586   0.299  18.540  0.0577 -0.2607  0.5853
 3622TIP3    H235062   1.691   0.401  18.579  0.1803 -0.3025  0.3680
 3623TIP3   OH235063   3.088   3.713  17.971 -0.3857 -0.0148 -0.0585
 3623TIP3    H135064   3.027   3.686  18.040  0.5597 -0.2910  0.6864
 3623TIP3    H235065   3.033   3.723  17.894 -0.9909 -3.1866 -0.1870
 3624TIP3   OH235066   3.552   2.054  17.960  0.0608  0.1148 -0.2280
 3624TIP3    H135067   3.586   1.972  17.995 -1.1202 -0.7375 -1.0353
 3624TIP3    H235068   3.625   2.090  17.909  1.4763  0.8925  2.1675
 3625TIP3   OH235069   3.611   0.272  20.933 -0.8573  0.0659 -0.0736
 3625TIP3    H135070   3.695   0.233  20.958 -0.2358  2.2289  1.5047
 3625TIP3    H235071   3.630   0.366  20.924 -2.9693  0.5143 -0.3534
 3626TIP3   OH235072   6.231   1.663  18.385 -0.0277 -0.4632  0.0990
 3626TIP3    H135073   6.159   1.610  18.419 -0.5489  0.5187  0.5497
 3626TIP3    H235074   6.190   1.745  18.357  0.6786 -0.4984 -1.1344
 3627TIP3   OH235075   4.549   4.267  20.955  0.0843  0.5183 -0.1726
 3627TIP3    H135076   4.597   4.350  20.960  1.7500 -0.4558  0.7913
 3627TIP3    H235077   4.551   4.232  21.044 -0.1260 -0.8192 -0.6717
 3628TIP3   OH235078   0.211   3.160  20.830  0.3867 -0.2692 -0.5295
 3628TIP3    H135079   0.200   3.255  20.833 -1.0647 -0.4363  1.2943
 3628TIP3    H235080   0.301   3.146  20.861 -0.3359  0.4300  2.1149
 3629TIP3   OH235081   3.187   4.874  19.527 -0.0179 -0.0330  0.0973
 3629TIP3    H135082   3.093   4.876  19.547 -0.5372  0.4799 -2.1592
 3629TIP3    H235083   3.225   4.941  19.584 -0.9442 -0.4920  1.2961
 3630TIP3   OH235084   0.945   4.686  20.606 -0.0782  0.1579  0.5520
 3630TIP3    H135085   0.911   4.766  20.566  2.2490  1.0026  0.0955
 3630TIP3    H235086   0.869   4.629  20.617 -1.7816  2.3792  0.7747
 3631TIP3   OH235087   6.165   3.429  17.904  0.4244 -0.1535 -0.7854
 3631TIP3    H135088   6.107   3.353  17.896 -0.3927  0.4727 -1.0149
 3631TIP3    H235089   6.151   3.478  17.823  0.9958  0.2002 -0.6732
 3632TIP3   OH235090   4.629   6.607  17.404 -0.1406 -0.2972 -0.2287
 3632TIP3    H135091   4.710   6.619  17.452 -0.1048  2.3025 -0.7526
 3632TIP3    H235092   4.567   6.666  17.447 -1.1736 -0.7619 -1.0396
 3633TIP3   OH235093   1.179   0.914  20.762  0.1603  0.4077 -0.3223
 3633TIP3    H135094   1.155   0.825  20.790 -2.9045  1.2090 -0.0198
 3633TIP3    H235095   1.144   0.970  20.831  0.2675  1.9655 -1.4919
 3634TIP3   OH235096   1.820   3.978  19.787  0.1885 -0.1159  0.4570
 3634TIP3    H135097   1.867   4.061  19.799 -0.9685  0.3584  2.1338
 3634TIP3    H235098   1.787   3.982  19.698 -0.5789  1.6563  0.7769
 3635TIP3   OH235099   3.623   2.242  17.173  0.2757 -0.7214 -0.7818
 3635TIP3    H135100   3.676   2.234  17.094  0.4271  0.8233 -0.8768
 3635TIP3    H235101   3.606   2.336  17.181 -0.4582 -0.9373  0.5567
 3636TIP3   OH235102   5.252   4.822  18.992  0.3358  0.1828  0.2192
 3636TIP3    H135103   5.174   4.850  18.943 -0.3587 -1.3690  0.3925
 3636TIP3    H235104   5.227   4.740  19.034  2.2654 -0.7012 -0.2307
 3637TIP3   OH235105   0.730   1.590  17.898  0.4350 -0.0081 -0.2074
 3637TIP3    H135106   0.693   1.610  17.985  1.1699 -0.9333  0.3362
 3637TIP3    H235107   0.789   1.663  17.880 -1.3683  1.3550 -0.9649
 3638TIP3   OH235108   5.522   4.227  19.260  0.1077 -0.4879  0.1758
 3638TIP3    H135109   5.529   4.255  19.168 -1.2396 -0.1968  0.1315
 3638TIP3    H235110   5.468   4.148  19.257 -0.5505 -0.0765  0.7616
 3639TIP3   OH235111   1.840   3.890  18.932 -0.3242 -0.2485 -0.3152
 3639TIP3    H135112   1.851   3.805  18.890 -0.0609 -0.0341 -0.6848
 3639TIP3    H235113   1.745   3.905  18.931 -0.3705 -0.5312 -0.2577
 3640TIP3   OH235114   1.001   2.606  17.692 -0.0541 -0.1338  0.0020
 3640TIP3    H135115   1.011   2.701  17.697  1.5524 -0.3086  0.6706
 3640TIP3    H235116   0.923   2.588  17.744  0.6687  0.6692  1.4223
 3641TIP3   OH235117   1.557   3.672  18.647  0.5384 -0.0244 -0.0899
 3641TIP3    H135118   1.570   3.693  18.740  0.5921  0.3934 -0.1897
 3641TIP3    H235119   1.631   3.616  18.625  0.5580 -0.0771  0.1053
 3642TIP3   OH235120   2.244   0.210  18.082  0.4171  0.0610 -0.6758
 3642TIP3    H135121   2.177   0.142  18.086 -0.2360  0.6661 -0.9418
 3642TIP3    H235122   2.238   0.243  17.992  1.5743 -0.3570 -0.9206
 3643TIP3   OH235123   3.724   2.875  20.708 -0.3369 -0.6032 -0.0604
 3643TIP3    H135124   3.810   2.832  20.701  0.1757  0.2559  0.7723
 3643TIP3    H235125   3.705   2.903  20.618  0.5151 -0.3219 -0.1667
 3644TIP3   OH235126   0.415   0.067  19.025 -0.0442  0.1464  0.0630
 3644TIP3    H135127   0.404   0.143  18.968 -0.5380  0.9924  1.2271
 3644TIP3    H235128   0.508   0.045  19.019  0.7722  2.5968  1.7390
 3645TIP3   OH235129   5.021   1.657  17.535 -0.3887 -0.0405 -0.0625
 3645TIP3    H135130   4.991   1.686  17.449 -1.8324 -0.3278  0.3170
 3645TIP3    H235131   5.056   1.569  17.521  0.6416  0.4314 -0.5734
 3646TIP3   OH235132   4.164   0.152  19.057 -0.1024  0.1995  0.1961
 3646TIP3    H135133   4.085   0.101  19.074  0.2988 -1.1425 -1.6908
 3646TIP3    H235134   4.221   0.133  19.131 -0.6427 -0.7261  0.3872
 3647TIP3   OH235135   1.939   2.903  17.526  0.9866  0.8364  0.3469
 3647TIP3    H135136   1.976   2.976  17.575  0.6849  0.6790  0.8133
 3647TIP3    H235137   1.847   2.899  17.553  0.6745  1.1015 -0.6592
 3648TIP3   OH235138   2.741   2.389  20.266  0.2665 -0.2258  0.2494
 3648TIP3    H135139   2.706   2.312  20.312 -0.3417  0.7637  1.4927
 3648TIP3    H235140   2.664   2.444  20.249  0.2956 -0.9352 -2.8523
 3649TIP3   OH235141   2.486   4.954  18.817 -0.0250 -0.5847  0.1199
 3649TIP3    H135142   2.449   4.869  18.794 -0.1147 -1.0586  1.8530
 3649TIP3    H235143   2.553   4.933  18.882 -0.6427  0.7325  1.2180
 3650TIP3   OH235144   4.459   3.813  18.707  0.0781  0.2476  0.4819
 3650TIP3    H135145   4.386   3.803  18.646 -0.2627  0.0841  0.9130
 3650TIP3    H235146   4.476   3.907  18.708 -0.8096  0.4131  1.1635
 3651TIP3   OH235147   5.550   5.899  19.956 -0.5057  0.6162  0.3995
 3651TIP3    H135148   5.568   5.965  20.023 -1.2448 -0.1646  1.4238
 3651TIP3    H235149   5.586   5.818  19.994 -1.0323  0.1438 -0.0960
 3652TIP3   OH235150   0.933   4.078  19.469  0.3198  1.0494 -0.1812
 3652TIP3    H135151   0.854   4.098  19.418  0.3534  2.6804  0.3493
 3652TIP3    H235152   0.901   4.050  19.554  0.2977  1.9590  0.1183
 3653TIP3   OH235153   1.433   5.118  17.674 -0.5819  0.2085 -0.3155
 3653TIP3    H135154   1.433   5.127  17.579  1.1901  1.0296 -0.2736
 3653TIP3    H235155   1.523   5.095  17.697 -0.9169  0.2599  1.1927
 3654TIP3   OH235156   6.096   3.526  17.661  0.5201 -0.5656  0.3794
 3654TIP3    H135157   6.056   3.602  17.617  1.0928 -0.6945 -0.3785
 3654TIP3    H235158   6.085   3.454  17.600 -0.0410 -1.1152  1.1087
 3655TIP3   OH235159   2.399   3.000  20.418  0.1622 -1.0809 -0.4504
 3655TIP3    H135160   2.484   2.998  20.461  0.0529 -0.2190 -0.1814
 3655TIP3    H235161   2.418   3.006  20.325  0.4065  0.3731 -0.3227
 3656TIP3   OH235162   3.004   0.714  20.885  0.5051 -0.0367 -0.0734
 3656TIP3    H135163   2.911   0.697  20.869  0.7754 -0.1378 -1.7380
 3656TIP3    H235164   3.046   0.629  20.872  0.7275 -0.3124  2.0301
 3657TIP3   OH235165   3.674   1.490  20.336  0.5612  0.0651  0.3645
 3657TIP3    H135166   3.683   1.582  20.311 -0.4440  0.0151 -0.2655
 3657TIP3    H235167   3.751   1.472  20.390  1.5416  0.8777 -0.6984
 3658TIP3   OH235168   5.105   2.748  20.875 -0.4172 -0.0033  0.5984
 3658TIP3    H135169   5.060   2.829  20.850  1.0435  0.3467 -1.1225
 3658TIP3    H235170   5.164   2.775  20.946  0.4413  0.6073 -0.3146
 3659TIP3   OH235171   1.584   4.952  19.326  0.3225  0.2905 -0.1852
 3659TIP3    H135172   1.522   4.901  19.275 -1.7791  0.4760  2.0101
 3659TIP3    H235173   1.646   4.888  19.360 -0.6656 -0.4163  0.3096
 3660TIP3   OH235174   2.215   5.057  19.019  0.1394 -0.0395 -0.1231
 3660TIP3    H135175   2.264   5.097  18.947  0.1410 -1.2108 -0.8031
 3660TIP3    H235176   2.282   5.023  19.078  0.1523 -0.1812 -0.2159
 3661TIP3   OH235177   6.047   1.516  19.686 -0.0385  0.1846  0.0706
 3661TIP3    H135178   6.054   1.440  19.628 -2.0984 -0.7286  0.9202
 3661TIP3    H235179   6.051   1.592  19.627  0.4224 -0.6197 -0.9717
 3662TIP3   OH235180   4.336   6.092  21.104 -0.4651 -0.2123 -0.1050
 3662TIP3    H135181   4.339   6.124  21.194 -1.4666  0.3124 -0.2504
 3662TIP3    H235182   4.402   6.144  21.058  0.9937 -1.3877  0.5860
 3663TIP3   OH235183   6.119   3.093  21.202  0.1744 -0.1068 -0.8551
 3663TIP3    H135184   6.090   3.016  21.253 -1.1566  1.3153  0.6488
 3663TIP3    H235185   6.056   3.100  21.131 -0.0532 -0.0524 -0.6477
 3664TIP3   OH235186   6.551   5.606  18.652  0.2116 -0.2934  0.4723
 3664TIP3    H135187   6.556   5.683  18.708  0.1272  1.1574 -1.4427
 3664TIP3    H235188   6.527   5.639  18.566  1.3650 -2.3069 -0.7124
 3665TIP3   OH235189   0.428   3.909  20.519  0.2059  0.0929 -0.1380
 3665TIP3    H135190   0.486   3.975  20.556  1.5566 -1.2965  0.3468
 3665TIP3    H235191   0.441   3.832  20.575 -1.7477 -0.4133 -0.3332
 3666TIP3   OH235192   4.703   3.030  19.666  0.5043 -0.6115 -0.3496
 3666TIP3    H135193   4.684   3.098  19.730  0.7498 -0.7981 -0.0734
 3666TIP3    H235194   4.797   3.013  19.677  1.0073  0.7249 -2.1019
 3667TIP3   OH235195   4.419   1.090  18.513  0.0888 -0.0813  0.4222
 3667TIP3    H135196   4.377   1.161  18.561  2.6014  1.8899 -0.0884
 3667TIP3    H235197   4.465   1.039  18.581 -0.3542 -0.2297  0.6129
 3668TIP3   OH235198   5.999   2.474  20.137 -0.1250  0.7756  0.5359
 3668TIP3    H135199   6.017   2.523  20.057 -0.9464  0.9364  0.4450
 3668TIP3    H235200   5.935   2.527  20.184  0.3132  0.6581  1.2850
 3669TIP3   OH235201   1.954   2.865  17.851 -0.1437 -0.2610  0.4376
 3669TIP3    H135202   1.988   2.948  17.817  3.0836 -1.2474  0.9445
 3669TIP3    H235203   1.868   2.856  17.811  0.2388  2.3644 -1.1919
 3670TIP3   OH235204   1.176   1.060  21.274 -0.2783 -0.2897  0.1950
 3670TIP3    H135205   1.120   1.064  21.352  0.3738 -0.5918  0.6842
 3670TIP3    H235206   1.261   1.030  21.306  0.2829  0.5302 -0.4782
 3671TIP3   OH235207   0.542   2.682  21.279  0.1110  0.1561 -0.3117
 3671TIP3    H135208   0.476   2.693  21.211  0.9089 -0.5905 -1.2351
 3671TIP3    H235209   0.545   2.767  21.324 -2.4224 -0.1877  0.6827
 3672TIP3   OH235210   4.019   4.702  20.564 -0.3756  0.5280 -0.0173
 3672TIP3    H135211   3.981   4.629  20.613 -0.7131  0.9198  0.3155
 3672TIP3    H235212   3.981   4.780  20.604 -0.2041  0.8793 -0.5241
 3673TIP3   OH235213   3.116   1.333  20.235 -0.1756 -0.4150  0.0422
 3673TIP3    H135214   3.135   1.400  20.169 -2.1054 -0.5048 -0.6513
 3673TIP3    H235215   3.095   1.383  20.314  1.4100 -0.2985  0.4293
 3674TIP3   OH235216   5.303   6.520  18.464 -0.9405 -0.2482  0.5000
 3674TIP3    H135217   5.394   6.493  18.458 -0.1231  2.2990  0.1812
 3674TIP3    H235218   5.261   6.478  18.389  0.4252  0.0326 -0.4663
 3675TIP3   OH235219   2.783   3.794  19.611 -0.0908  0.7782  0.0384
 3675TIP3    H135220   2.811   3.820  19.699  1.2102 -1.5589  0.3862
 3675TIP3    H235221   2.863   3.797  19.558 -0.2589 -0.6286 -0.3323
 3676TIP3   OH235222   0.701   3.154  21.080 -0.5135 -0.2254 -0.8517
 3676TIP3    H135223   0.772   3.216  21.100  0.1941 -0.4204 -2.5494
 3676TIP3    H235224   0.651   3.197  21.011 -1.7827 -0.3042  0.0022
 3677TIP3   OH235225   6.635   4.593  20.137  0.0061 -0.2821  0.4952
 3677TIP3    H135226   6.655   4.562  20.048  0.1143 -2.4842  1.2114
 3677TIP3    H235227   6.548   4.557  20.155 -1.4180  2.7268  0.2279
 3678TIP3   OH235228   1.296   5.574  20.079  0.1279  0.3139  0.2244
 3678TIP3    H135229   1.263   5.484  20.082 -1.5871  0.8025 -1.5782
 3678TIP3    H235230   1.385   5.565  20.046 -0.4672 -0.7078 -1.2698
 3679TIP3   OH235231   6.385   0.463  20.665  0.0115  0.1103 -0.4690
 3679TIP3    H135232   6.448   0.394  20.686  0.6544  0.4541 -1.2125
 3679TIP3    H235233   6.299   0.422  20.679  0.3895 -0.4504  0.2781
 3680TIP3   OH235234   4.232   0.391  20.846  0.8050  0.4078 -0.4226
 3680TIP3    H135235   4.248   0.409  20.939  1.4110  0.9166 -0.6184
 3680TIP3    H235236   4.206   0.475  20.810  1.3106  0.3797 -0.8678
 3681TIP3   OH235237   3.197   4.474  19.952 -0.6183  0.5313  0.4248
 3681TIP3    H135238   3.261   4.530  19.995  0.5063 -0.1225 -0.3483
 3681TIP3    H235239   3.143   4.534  19.901 -0.4782  1.0700  0.9006
 3682TIP3   OH235240   5.987   0.897  21.096 -0.0232  0.1374  0.1661
 3682TIP3    H135241   6.047   0.918  21.025 -0.9196  1.0918 -0.3367
 3682TIP3    H235242   5.948   0.981  21.120  1.1903  0.0655  2.6870
 3683TIP3   OH235243   0.408   2.536  20.829  0.0810  0.0204 -0.0877
 3683TIP3    H135244   0.403   2.516  20.736 -0.4020  0.3428 -0.1351
 3683TIP3    H235245   0.364   2.462  20.872 -1.0601  0.6161 -0.2168
 3684TIP3   OH235246   0.848   3.424  19.825  0.0288  0.2628 -0.0511
 3684TIP3    H135247   0.919   3.454  19.768  0.4921 -3.4220 -1.6744
 3684TIP3    H235248   0.780   3.394  19.765  0.1206 -2.8228  1.1942
 3685TIP3   OH235249   2.349   0.082  20.780  0.5866 -0.4518 -0.0239
 3685TIP3    H135250   2.289   0.102  20.852  0.4429 -0.5570 -0.1120
 3685TIP3    H235251   2.436   0.086  20.819  0.4449 -1.9171  0.5040
 3686TIP3   OH235252   0.288   6.458  18.400  0.0893  0.0571 -0.6039
 3686TIP3    H135253   0.294   6.427  18.491 -0.8735  0.5768 -0.3572
 3686TIP3    H235254   0.293   6.378  18.348  0.1624 -0.2870 -0.0808
 3687TIP3   OH235255   5.058   2.029  19.575 -0.2584  0.0955 -0.4725
 3687TIP3    H135256   5.125   2.092  19.547 -0.4940  0.6801  0.2541
 3687TIP3    H235257   5.084   2.004  19.663 -1.4162  0.9512  0.1409
 3688TIP3   OH235258   5.529   2.396  20.865 -0.1736  0.2859 -0.0111
 3688TIP3    H135259   5.503   2.473  20.914  3.1810  1.2028  0.5290
 3688TIP3    H235260   5.501   2.322  20.919 -3.1447  1.0098 -0.3967
 3689TIP3   OH235261   2.598   5.125  18.638 -0.2390  0.3353  0.3052
 3689TIP3    H135262   2.540   5.058  18.672 -0.2061  0.2453  0.1795
 3689TIP3    H235263   2.584   5.200  18.696 -2.3469  1.2006 -1.2207
 3690TIP3   OH235264   4.564   3.546  20.456 -0.0960 -0.6021  0.1273
 3690TIP3    H135265   4.639   3.511  20.408  1.9010  2.1920  0.9805
 3690TIP3    H235266   4.593   3.548  20.547 -1.5612 -0.2884  0.6079
 3691TIP3   OH235267   2.060   4.350  20.798 -0.5326  0.4285 -0.0085
 3691TIP3    H135268   2.064   4.258  20.824 -1.6695  0.4520  0.2692
 3691TIP3    H235269   1.968   4.367  20.781 -0.2516  1.3420 -0.7359
 3692TIP3   OH235270   4.289   6.079  17.410 -0.0703 -0.0459  0.0802
 3692TIP3    H135271   4.246   6.014  17.465  1.5339 -0.7481  0.5414
 3692TIP3    H235272   4.381   6.076  17.436  0.0197  2.6551  0.3700
 3693TIP3   OH235273   5.968   5.125  19.532 -0.4314  0.3146  0.2809
 3693TIP3    H135274   6.034   5.060  19.506  0.0193  1.1149 -0.6554
 3693TIP3    H235275   6.018   5.203  19.552 -0.8918  0.1440  2.3411
 3694TIP3   OH235276   1.535   1.816  20.406 -0.1874  0.1204 -0.1984
 3694TIP3    H135277   1.595   1.796  20.478 -1.1686 -0.5048  0.4656
 3694TIP3    H235278   1.580   1.883  20.355  1.3016 -0.6939 -0.0092
 3695TIP3   OH235279   6.111   1.334  20.579  0.0407 -0.2646  0.3226
 3695TIP3    H135280   6.199   1.352  20.611  0.0756 -1.4004  0.8745
 3695TIP3    H235281   6.124   1.274  20.506 -0.2199  0.3851 -0.2753
 3696TIP3   OH235282   2.923   6.422  20.002 -0.3272 -0.1634  0.0356
 3696TIP3    H135283   2.972   6.441  20.082 -0.5556  0.2972  0.0711
 3696TIP3    H235284   2.969   6.348  19.962  0.6833  0.5627 -0.1818
 3697TIP3   OH235285   0.662   0.128  18.884  0.0053  0.0995 -0.2638
 3697TIP3    H135286   0.713   0.196  18.927 -1.4032 -0.1048  1.8693
 3697TIP3    H235287   0.685   0.136  18.791  0.5960  2.8409  0.0343
 3698TIP3   OH235288   3.197   0.479  18.197 -0.5679 -0.6338  0.2977
 3698TIP3    H135289   3.269   0.445  18.144  1.1724  2.0552  0.7437
 3698TIP3    H235290   3.134   0.513  18.133  0.2730  0.2110 -0.1058
 3699TIP3   OH235291   6.396   4.901  18.555 -0.1012  0.1904  0.2517
 3699TIP3    H135292   6.435   4.889  18.642 -1.5730  1.2782  1.1024
 3699TIP3    H235293   6.312   4.944  18.572 -1.0261 -0.7852 -1.6289
 3700TIP3   OH235294   4.332   2.119  18.462 -0.0823 -0.5223  0.5342
 3700TIP3    H135295   4.425   2.098  18.453 -0.0595 -0.4980  0.7226
 3700TIP3    H235296   4.329   2.214  18.467 -0.0446 -0.5625  1.3999
 3701TIP3   OH235297   1.085   4.412  20.330  0.1751 -0.6799 -0.0363
 3701TIP3    H135298   1.135   4.426  20.411  1.0646 -0.0814 -0.6802
 3701TIP3    H235299   1.123   4.473  20.267 -2.7449  1.4053  0.0182
 3702TIP3   OH235300   5.548   1.526  20.184 -0.2287  0.0732 -0.1248
 3702TIP3    H135301   5.583   1.448  20.142  1.6576  1.0241 -0.4135
 3702TIP3    H235302   5.558   1.595  20.118 -1.1368  0.7305  0.4044
 3703TIP3   OH235303   0.943   0.826  19.872 -0.0738 -0.4222  0.1883
 3703TIP3    H135304   0.850   0.815  19.852 -0.4411  2.6308 -0.2623
 3703TIP3    H235305   0.987   0.819  19.787 -0.0588 -0.5927  0.2115
 3704TIP3   OH235306   5.931   0.206  20.957 -0.3738  0.0045  0.1777
 3704TIP3    H135307   5.980   0.259  21.020  0.9379  1.4718 -1.9566
 3704TIP3    H235308   5.842   0.241  20.961 -0.3930 -0.1259  1.3677
 3705TIP3   OH235309   5.800   5.812  18.384 -0.6245 -0.3078 -0.1853
 3705TIP3    H135310   5.710   5.832  18.361 -0.9468 -2.1853 -0.7443
 3705TIP3    H235311   5.848   5.817  18.302  0.0208  1.5793  0.2457
 3706TIP3   OH235312   1.817   4.451  19.754 -0.2168  0.1712 -0.7172
 3706TIP3    H135313   1.724   4.433  19.772 -1.0278  1.6194 -3.0133
 3706TIP3    H235314   1.831   4.539  19.787 -0.0643  0.4638 -1.5259
 3707TIP3   OH235315   3.110   4.290  20.227  0.0547  0.2857 -0.3242
 3707TIP3    H135316   3.078   4.299  20.137 -0.3527  0.6202 -0.1466
 3707TIP3    H235317   3.063   4.357  20.276 -0.0821 -0.2247  0.2412
 3708TIP3   OH235318   2.608   4.792  18.556 -0.3487  0.5266  0.4961
 3708TIP3    H135319   2.526   4.744  18.573 -0.4119 -0.1388 -1.4311
 3708TIP3    H235320   2.580   4.873  18.515 -0.0706  0.6796  0.6086
 3709TIP3   OH235321   3.692   1.416  19.190  0.4426 -0.2642 -0.1674
 3709TIP3    H135322   3.649   1.487  19.238  1.3797  0.3572 -0.2227
 3709TIP3    H235323   3.657   1.422  19.101  0.6582  0.2453 -0.2162
 3710TIP3   OH235324   0.017   4.727  21.140 -0.5031  0.5962 -0.4257
 3710TIP3    H135325   0.012   4.796  21.073  1.0980 -1.2358 -2.6225
 3710TIP3    H235326  -0.068   4.685  21.137 -1.0785  1.6997  0.0565
 3711TIP3   OH235327   3.618   5.508  18.615  0.6708  0.2396  0.4360
 3711TIP3    H135328   3.709   5.489  18.640  1.3238  0.4159 -1.6038
 3711TIP3    H235329   3.618   5.503  18.519 -1.5352  0.0621  0.3997
 3712TIP3   OH235330   0.893   2.378  20.054  0.3673  0.6493  0.3770
 3712TIP3    H135331   0.881   2.355  19.962  1.1984  0.9410  0.1854
 3712TIP3    H235332   0.988   2.374  20.067  0.3705  1.9015  0.8691
 3713TIP3   OH235333   3.352   2.194  18.089 -0.0313 -0.3776  0.4182
 3713TIP3    H135334   3.333   2.167  18.179  0.1890  1.6199  1.1106
 3713TIP3    H235335   3.416   2.131  18.058  1.5539  0.1317  2.4516
 3714TIP3   OH235336   5.106   0.519  19.629  0.2595  0.1633  0.3055
 3714TIP3    H135337   5.150   0.482  19.552 -0.4774  0.9283 -0.5026
 3714TIP3    H235338   5.178   0.541  19.689  0.8968  0.1990 -0.4498
 3715TIP3   OH235339   0.269   0.809  20.261  0.6624  0.0745 -0.2697
 3715TIP3    H135340   0.239   0.869  20.329 -1.3969 -2.1648  0.9195
 3715TIP3    H235341   0.222   0.837  20.182  1.2042  1.1659 -0.2271
 3716TIP3   OH235342   2.748   0.582  20.713 -1.3221  0.0158 -0.1105
 3716TIP3    H135343   2.694   0.656  20.685  1.6167  2.7362  0.7436
 3716TIP3    H235344   2.837   0.605  20.685 -0.0642 -2.6491  1.2736
 3717TIP3   OH235345   3.391   5.384  18.092  0.7210 -0.3628 -0.0523
 3717TIP3    H135346   3.302   5.412  18.113  0.2591 -0.9419 -1.1378
 3717TIP3    H235347   3.383   5.289  18.076  1.4251 -0.3299 -0.6822
 3718TIP3   OH235348   1.296   1.713  19.231  0.0600 -0.2819 -0.1818
 3718TIP3    H135349   1.207   1.720  19.267  0.0387 -1.5970  0.0772
 3718TIP3    H235350   1.284   1.712  19.136 -0.2361 -0.8544 -0.1388
 3719TIP3   OH235351   1.582   2.390  18.733  0.0670  0.3487 -0.2011
 3719TIP3    H135352   1.526   2.363  18.661  1.1845  0.7317 -1.2547
 3719TIP3    H235353   1.522   2.428  18.798 -1.4413 -3.3328  0.8264
 3720TIP3   OH235354   2.921   4.904  19.618  0.0052 -0.1131  0.1612
 3720TIP3    H135355   2.849   4.903  19.555 -0.9381  2.4722  1.0684
 3720TIP3    H235356   2.889   4.853  19.692 -0.0964 -0.5978 -0.2079
 3721TIP3   OH235357   4.164   2.455  18.809 -0.4752 -0.1346  0.9328
 3721TIP3    H135358   4.087   2.435  18.756 -0.6153  1.6927  0.3982
 3721TIP3    H235359   4.166   2.550  18.814  0.9128 -0.1985  2.2070
 3722TIP3   OH235360   5.133   6.152  19.605  0.1934 -0.3058 -1.1834
 3722TIP3    H135361   5.108   6.200  19.684  1.8780  0.1940 -0.9213
 3722TIP3    H235362   5.116   6.060  19.626  1.2584 -0.2528  0.0565
 3723TIP3   OH235363   3.064   3.041  18.952  0.2077 -1.3171 -0.0781
 3723TIP3    H135364   3.000   3.107  18.927  0.7721 -0.0849  1.5390
 3723TIP3    H235365   3.036   2.962  18.907 -0.9112 -0.1693 -1.4928
 3724TIP3   OH235366   4.201   1.372  20.889  0.3481 -0.3885  0.6611
 3724TIP3    H135367   4.235   1.284  20.872  0.9436 -0.2265  0.9679
 3724TIP3    H235368   4.279   1.427  20.896  0.1667 -0.3358  3.3363
 3725TIP3   OH235369   2.548   2.582  20.192  0.2291 -0.2902 -0.1962
 3725TIP3    H135370   2.588   2.656  20.238  0.0262 -1.2919  1.7235
 3725TIP3    H235371   2.456   2.584  20.220  0.5024 -1.9996  0.9834
 3726TIP3   OH235372   6.214   2.482  20.329 -0.2416  0.0924  0.1514
 3726TIP3    H135373   6.136   2.481  20.385 -1.3657 -0.4959 -1.3432
 3726TIP3    H235374   6.184   2.443  20.247  1.5855  0.0907 -0.5486
 3727TIP3   OH235375   2.216   5.291  20.396 -0.0952 -0.4536 -0.5371
 3727TIP3    H135376   2.128   5.326  20.395 -0.0175 -0.2202  0.0981
 3727TIP3    H235377   2.266   5.346  20.336 -0.5353 -1.0201 -1.4376
 3728TIP3   OH235378   6.559   3.281  20.211  0.3054 -0.5829 -0.4883
 3728TIP3    H135379   6.604   3.237  20.283  0.4598  0.3961  0.0298
 3728TIP3    H235380   6.496   3.338  20.254 -1.2591 -1.7129 -1.1958
 3729TIP3   OH235381   4.810   0.524  20.176 -0.4387  0.1341  0.1401
 3729TIP3    H135382   4.903   0.516  20.196 -0.6122  0.6095  1.2047
 3729TIP3    H235383   4.805   0.597  20.114 -0.1238  0.2470  0.2462
 3730TIP3   OH235384   4.251   3.815  20.301 -0.1254 -0.0300  0.4777
 3730TIP3    H135385   4.180   3.753  20.318  0.2623 -1.0707 -1.3994
 3730TIP3    H235386   4.310   3.805  20.376 -1.7255  0.5908  1.8758
 3731TIP3   OH235387   4.987   0.447  19.032 -0.0935 -0.2400 -0.3554
 3731TIP3    H135388   4.983   0.526  19.085  2.7299  1.1848 -2.0417
 3731TIP3    H235389   4.900   0.408  19.040 -0.9096  1.8357  2.2568
 3732TIP3   OH235390   1.881   5.697  18.589 -0.1108  0.0036 -0.0229
 3732TIP3    H135391   1.859   5.700  18.496 -0.2944 -0.4587  0.0027
 3732TIP3    H235392   1.871   5.787  18.619  1.3732  0.4524 -0.7756
 3733TIP3   OH235393   1.772   5.673  18.312  0.0062  0.5122 -0.5885
 3733TIP3    H135394   1.689   5.713  18.283  0.3438  0.2516 -1.9706
 3733TIP3    H235395   1.763   5.581  18.289  0.3000  0.2915  0.1662
 3734TIP3   OH235396   4.988   1.147  18.095 -0.0013 -0.2015 -0.5971
 3734TIP3    H135397   5.074   1.188  18.081  0.1478 -0.7349 -1.3360
 3734TIP3    H235398   4.928   1.220  18.106  0.3732  0.2124 -1.2056
 3735TIP3   OH235399   4.225   4.495  17.746  0.4635  0.2145 -0.6695
 3735TIP3    H135400   4.176   4.441  17.808  0.1294  0.7787 -0.4371
 3735TIP3    H235401   4.245   4.436  17.673 -1.9266  0.3409 -1.5291
 3736TIP3   OH235402   1.125   3.854  18.838  0.2328  0.2585  0.1198
 3736TIP3    H135403   1.112   3.771  18.791 -0.0727  0.0343  0.5913
 3736TIP3    H235404   1.048   3.906  18.817 -1.1053 -0.7537  2.2528
 3737TIP3   OH235405   2.242   4.180  18.920  0.6654 -0.3453  0.3698
 3737TIP3    H135406   2.165   4.221  18.959  0.7094  2.4435 -2.0889
 3737TIP3    H235407   2.309   4.185  18.989 -0.7382 -0.9715  1.8482
 3738TIP3   OH235408   2.882   2.761  19.526 -0.2621  0.0672  0.4795
 3738TIP3    H135409   2.928   2.788  19.606 -0.0632 -0.1318  0.4332
 3738TIP3    H235410   2.876   2.840  19.473  1.1127 -0.1571 -0.0497
 3739TIP3   OH235411   0.200   2.762  20.826  0.2509  0.0516 -0.3386
 3739TIP3    H135412   0.278   2.773  20.772 -0.4401 -0.2329 -1.4102
 3739TIP3    H235413   0.213   2.825  20.898  1.2683  0.2962 -0.7107
 3740TIP3   OH235414   4.583   2.340  19.079 -0.2607  0.8299 -0.1606
 3740TIP3    H135415   4.592   2.348  19.174  0.5804 -2.8674  0.2108
 3740TIP3    H235416   4.488   2.337  19.065 -0.3858 -0.0772  0.7606
 3741TIP3   OH235417   2.263   2.264  18.519  1.0205 -0.4337 -0.2691
 3741TIP3    H135418   2.323   2.313  18.574  1.8458 -0.1496 -1.3930
 3741TIP3    H235419   2.315   2.239  18.443 -0.1561 -0.6076 -1.0401
 3742TIP3   OH235420   3.379   6.309  19.552 -0.1207  0.2223 -0.2057
 3742TIP3    H135421   3.420   6.389  19.518 -1.8208  1.1537 -0.1690
 3742TIP3    H235422   3.434   6.239  19.519  1.3292  1.3818 -0.3889
 3743TIP3   OH235423   1.127   2.253  18.379 -0.0930 -0.1680 -0.0741
 3743TIP3    H135424   1.173   2.242  18.462 -0.0414  0.5092 -0.0023
 3743TIP3    H235425   1.193   2.237  18.312 -0.1167 -0.6409  0.0154
 3744TIP3   OH235426   3.487   1.471  20.658  0.1384  0.5958 -0.2432
 3744TIP3    H135427   3.507   1.392  20.609 -0.3950  0.0478  0.4057
 3744TIP3    H235428   3.466   1.537  20.592  1.3155  0.4207 -0.8254
 3745TIP3   OH235429   4.047   6.482  19.832  0.1545  0.1375  0.4148
 3745TIP3    H135430   4.069   6.524  19.749  0.1091 -0.0299  0.3176
 3745TIP3    H235431   3.956   6.507  19.848  0.2397  0.3753  0.5396
 3746TIP3   OH235432   0.890   4.214  18.627  0.0334  0.0992  0.0128
 3746TIP3    H135433   0.876   4.244  18.537 -0.8344  0.4010  0.2431
 3746TIP3    H235434   0.902   4.119  18.618  1.3547  0.2911 -0.5572
 3747TIP3   OH235435   0.030   1.772  18.860  0.3536 -0.5782  0.0775
 3747TIP3    H135436   0.001   1.712  18.929 -0.6977  2.1297  2.1888
 3747TIP3    H235437  -0.007   1.735  18.780 -2.1769 -1.5796  1.5667
 3748TIP3   OH235438   1.749   2.558  20.424 -0.2445 -0.1913 -0.2507
 3748TIP3    H135439   1.789   2.492  20.366 -0.5518  0.9125 -1.7851
 3748TIP3    H235440   1.736   2.512  20.507  2.7827 -1.0612 -0.1361
 3749TIP3   OH235441   5.927   5.011  21.087  0.6214  0.2344  0.6200
 3749TIP3    H135442   5.841   5.038  21.057  0.8827  0.9159  0.4591
 3749TIP3    H235443   5.910   4.942  21.152  0.0193 -0.4987 -0.3013
 3750TIP3   OH235444   2.966   1.605  20.050 -0.0424 -0.1005 -0.6017
 3750TIP3    H135445   2.909   1.580  20.122 -0.5527  0.9412 -0.6325
 3750TIP3    H235446   3.053   1.575  20.077 -0.6158 -2.0632 -0.7315
 3751TIP3   OH235447   5.440   5.321  21.076  0.5833 -0.2644 -0.1858
 3751TIP3    H135448   5.387   5.396  21.105  1.5379  0.6382 -0.7147
 3751TIP3    H235449   5.376   5.251  21.061 -0.2172  0.1022  1.3442
 3752TIP3   OH235450   2.921   1.106  20.794  0.0003 -0.2835 -0.3827
 3752TIP3    H135451   2.873   1.052  20.857 -1.5754  0.4205 -0.9345
 3752TIP3    H235452   2.947   1.046  20.725  1.4473 -0.9973  0.7235
 3753TIP3   OH235453   5.186   3.653  19.240 -0.3648  0.2010  0.5403
 3753TIP3    H135454   5.176   3.558  19.249 -1.3767  0.1729 -0.6224
 3753TIP3    H235455   5.096   3.685  19.228  0.0598  1.1989 -0.0139
 3754TIP3   OH235456   0.237   4.820  21.347  0.2799  0.0313 -0.1074
 3754TIP3    H135457   0.252   4.896  21.291 -0.4538 -0.1065 -0.5008
 3754TIP3    H235458   0.158   4.780  21.312  0.3864 -0.6354  0.4046
 3755TIP3   OH235459   2.167   5.057  19.904 -0.4007  0.0073  0.8492
 3755TIP3    H135460   2.182   5.033  19.996  1.2646  1.5219  1.0278
 3755TIP3    H235461   2.079   5.095  19.903 -0.1536  0.6515  1.9665
 3756TIP3   OH235462   3.391   4.697  18.395  0.1288 -0.3567  0.2970
 3756TIP3    H135463   3.364   4.762  18.460  1.3097 -0.7606  1.2238
 3756TIP3    H235464   3.309   4.671  18.352 -0.6328  0.1882  1.3629
 3757TIP3   OH235465   5.658   1.750  17.479  0.2121 -0.0664  0.0087
 3757TIP3    H135466   5.684   1.797  17.400 -0.3178  0.1832 -0.0216
 3757TIP3    H235467   5.691   1.661  17.466 -0.9237 -0.3756 -1.0684
 3758TIP3   OH235468   6.218   4.414  19.249  0.3382 -0.5198  0.1801
 3758TIP3    H135469   6.273   4.473  19.198 -1.2171 -0.9241 -2.1757
 3758TIP3    H235470   6.252   4.418  19.338  1.0377  2.9526 -0.1365
 3759TIP3   OH235471   4.892   2.875  17.878 -0.5048  0.2231  0.0050
 3759TIP3    H135472   4.914   2.797  17.930 -3.1812  0.3355  1.5021
 3759TIP3    H235473   4.970   2.891  17.825  0.6623 -2.6489  0.6478
 3760TIP3   OH235474   6.186   6.239  21.086 -0.6313 -0.0084 -0.1946
 3760TIP3    H135475   6.209   6.199  21.170  1.4284  1.6328  0.1064
 3760TIP3    H235476   6.129   6.175  21.044 -3.0561 -0.2689  3.0582
 3761TIP3   OH235477   4.733   2.118  19.007 -0.2011 -0.0797 -0.4990
 3761TIP3    H135478   4.655   2.066  19.025 -0.0864 -0.6756 -1.6575
 3761TIP3    H235479   4.701   2.209  19.009 -0.5116 -0.2067  0.9754
 3762TIP3   OH235480   4.056   5.773  19.866 -0.0825 -0.7522  0.0096
 3762TIP3    H135481   4.048   5.822  19.784  0.5164 -2.2472 -0.9880
 3762TIP3    H235482   4.135   5.807  19.907  1.0273 -1.6826 -1.2744
 3763TIP3   OH235483   2.747   0.282  19.751 -0.0764 -0.4813  0.4946
 3763TIP3    H135484   2.747   0.188  19.732 -0.5818 -0.1215 -1.4587
 3763TIP3    H235485   2.671   0.316  19.703  1.3452  1.2428 -0.6284
 3764TIP3   OH235486   6.339   4.775  18.323 -0.3117  0.4193 -0.5691
 3764TIP3    H135487   6.367   4.810  18.408 -0.2478  0.9169 -0.7848
 3764TIP3    H235488   6.417   4.781  18.268 -0.4075  0.2946 -0.7185
 3765TIP3   OH235489   1.484   3.896  18.444 -0.4132  0.2337  0.5163
 3765TIP3    H135490   1.498   3.820  18.501 -0.0004  1.4881  2.1560
 3765TIP3    H235491   1.562   3.951  18.457  0.1074  0.1993 -1.9329
 3766TIP3   OH235492   3.371   2.104  19.015 -0.0904 -0.0224  0.2017
 3766TIP3    H135493   3.358   2.033  18.952  0.5770 -0.5263  0.6135
 3766TIP3    H235494   3.341   2.068  19.098  0.4821  0.0788  0.4594
 3767TIP3   OH235495   2.030   3.747  19.379  0.2842  0.2347  0.0938
 3767TIP3    H135496   2.055   3.797  19.301  1.7077  0.2900  0.5552
 3767TIP3    H235497   2.098   3.767  19.443  0.0171 -1.0675  0.8168
 3768TIP3   OH235498   5.663   0.308  18.359 -0.3389 -0.0436 -0.0925
 3768TIP3    H135499   5.686   0.219  18.385 -0.8633 -0.1181  0.1163
 3768TIP3    H235500   5.598   0.298  18.289 -1.6026  0.1717  1.0197
 3769TIP3   OH235501   3.937   1.360  20.222  0.3433  0.1326  0.4357
 3769TIP3    H135502   3.907   1.445  20.189 -0.6574  0.1850  1.4529
 3769TIP3    H235503   4.022   1.378  20.262  1.1940  0.2229 -1.2899
 3770TIP3   OH235504   4.499   4.908  20.373 -0.4424  0.3817 -0.0965
 3770TIP3    H135505   4.506   4.977  20.307  0.2164  0.3491 -0.0745
 3770TIP3    H235506   4.432   4.849  20.339  0.1299  0.1781 -0.9255
 3771TIP3   OH235507   4.344   3.350  19.060 -0.3777 -0.6961 -0.3143
 3771TIP3    H135508   4.397   3.362  18.981 -0.1252 -1.0319 -0.1999
 3771TIP3    H235509   4.288   3.275  19.039  0.3935 -1.4281  0.1856
 3772TIP3   OH235510   5.884   4.992  20.811  0.1398 -0.0309 -0.1615
 3772TIP3    H135511   5.927   4.948  20.737  0.0851 -2.1754  1.0054
 3772TIP3    H235512   5.953   5.001  20.877 -0.1296  0.6713  0.0331
 3773TIP3   OH235513   3.039   2.527  19.407 -0.3433 -0.1720 -0.1344
 3773TIP3    H135514   3.014   2.604  19.458  0.4666 -0.8419  1.3449
 3773TIP3    H235515   3.096   2.562  19.338 -0.4976  0.6217  0.1271
 3774TIP3   OH235516   3.310   6.026  17.864 -0.1500  0.3074 -0.0788
 3774TIP3    H135517   3.309   6.069  17.778  0.0209  1.4301  0.4609
 3774TIP3    H235518   3.294   5.934  17.845  0.6525  0.4109 -1.3924
 3775TIP3   OH235519   5.865   4.046  20.063 -0.1137  0.3055 -0.0008
 3775TIP3    H135520   5.933   4.109  20.082 -0.9238  1.0505  0.4756
 3775TIP3    H235521   5.808   4.090  20.000  0.2276 -0.5813 -0.9678
 3776TIP3   OH235522   0.869   2.569  20.278  0.2116 -0.3236 -0.6134
 3776TIP3    H135523   0.896   2.483  20.245 -1.9355 -1.1266 -0.3881
 3776TIP3    H235524   0.850   2.554  20.371 -0.7893  0.2227 -0.7167
 3777TIP3   OH235525   1.208   6.164  19.997 -0.2983 -0.2655 -0.1944
 3777TIP3    H135526   1.249   6.078  19.995  0.6823  0.1717  0.2686
 3777TIP3    H235527   1.181   6.181  19.907  1.0374 -0.3467 -0.6250
 3778TIP3   OH235528   6.647   0.009  19.978 -0.1493  0.3278 -0.5398
 3778TIP3    H135529   6.727   0.041  19.938 -0.8608  1.9947 -0.6864
 3778TIP3    H235530   6.674  -0.068  20.028  1.0254 -0.8921 -2.9105
 3779TIP3   OH235531   4.007   1.852  18.163 -0.3158  0.1184 -0.8752
 3779TIP3    H135532   4.019   1.939  18.201  0.9344 -0.1897 -0.5277
 3779TIP3    H235533   4.046   1.858  18.075  0.9175 -0.4195 -0.3826
 3780TIP3   OH235534   3.562   0.766  20.998  0.3035 -0.0090 -0.2740
 3780TIP3    H135535   3.469   0.747  20.988  0.5159 -1.3218  0.0307
 3780TIP3    H235536   3.570   0.799  21.088  0.1443  0.0539 -0.2824
 3781TIP3   OH235537   5.484   1.798  18.809 -0.1055  0.4560  0.6476
 3781TIP3    H135538   5.447   1.748  18.882 -1.5523  1.8015  0.8865
 3781TIP3    H235539   5.495   1.886  18.844  0.9478  0.6930 -0.2293
 3782TIP3   OH235540   1.450   2.658  18.632 -0.2797 -0.3171 -0.2457
 3782TIP3    H135541   1.498   2.720  18.687  0.4703 -0.6126 -0.5455
 3782TIP3    H235542   1.506   2.647  18.555  0.6563 -2.9240  0.6920
 3783TIP3   OH235543   1.445   3.255  19.842  0.4102 -0.1290 -0.6142
 3783TIP3    H135544   1.428   3.319  19.912  3.4798  0.3925 -0.2024
 3783TIP3    H235545   1.473   3.309  19.768 -1.2072 -0.7985 -1.7739
 3784TIP3   OH235546   0.047   3.597  19.765  0.2738 -0.3843 -0.4579
 3784TIP3    H135547   0.133   3.641  19.760 -0.2594  0.5793 -1.8212
 3784TIP3    H235548   0.048   3.553  19.850  2.7113 -1.6615 -1.0320
 3785TIP3   OH235549   3.485   6.189  20.616  0.2290 -0.0131 -0.2488
 3785TIP3    H135550   3.514   6.276  20.590  1.7366 -0.3827  0.0528
 3785TIP3    H235551   3.466   6.145  20.533 -0.6037  0.6039 -0.3985
 3786TIP3   OH235552   2.816   4.427  19.938  0.1829 -0.7822 -0.5584
 3786TIP3    H135553   2.741   4.371  19.955  0.0695 -1.1368 -2.0705
 3786TIP3    H235554   2.885   4.392  19.995 -0.4217 -1.2735 -0.1131
 3787TIP3   OH235555   2.878   3.521  18.641  0.3030 -0.0704 -0.5796
 3787TIP3    H135556   2.783   3.514  18.653  0.4754  0.6694  1.7658
 3787TIP3    H235557   2.888   3.587  18.572 -0.8642 -1.7519 -2.4364
 3788TIP3   OH235558   4.288   2.849  21.011 -0.1227  0.0473  0.0796
 3788TIP3    H135559   4.351   2.897  21.066  1.4370 -2.0349  0.2200
 3788TIP3    H235560   4.321   2.860  20.922 -0.4284  0.1714 -0.0207
 3789TIP3   OH235561   5.655   2.496  18.481 -0.3321 -0.6839  0.0649
 3789TIP3    H135562   5.713   2.571  18.480 -0.5157 -0.5201  0.8338
 3789TIP3    H235563   5.567   2.532  18.468 -0.3258 -0.8627 -0.4819
 3790TIP3   OH235564   2.309   1.084  19.212 -0.2748 -0.2483  0.1331
 3790TIP3    H135565   2.232   1.034  19.240 -2.0335  1.5623 -1.2210
 3790TIP3    H235566   2.361   1.021  19.162  0.6174 -2.2654  3.3131
 3791TIP3   OH235567   1.327   3.716  18.030  0.5677 -0.3625 -0.4435
 3791TIP3    H135568   1.363   3.632  18.000  0.6744 -0.2929 -0.5154
 3791TIP3    H235569   1.287   3.754  17.952  0.2076 -0.5059 -0.3268
 3792TIP3   OH235570   0.318   3.733  17.854  0.1101 -0.5164 -0.0814
 3792TIP3    H135571   0.407   3.698  17.853  0.4585  0.3314  0.3144
 3792TIP3    H235572   0.265   3.663  17.892  0.9178 -0.3878  1.3677
 3793TIP3   OH235573   0.518   2.379  18.148 -0.3097  0.1607 -0.0363
 3793TIP3    H135574   0.587   2.342  18.203 -0.9456 -2.7330 -1.0417
 3793TIP3    H235575   0.443   2.321  18.159 -0.7206 -0.1438 -3.3072
 3794TIP3   OH235576   4.093   5.123  20.881 -0.1898  0.1018  0.7042
 3794TIP3    H135577   4.177   5.164  20.862 -0.0861 -0.5404 -0.3153
 3794TIP3    H235578   4.039   5.193  20.915  0.4312  0.7589  0.3658
 3795TIP3   OH235579   2.033   1.303  20.969 -0.0770 -0.2476  0.7857
 3795TIP3    H135580   1.962   1.364  20.947 -2.2886 -1.7472  3.1843
 3795TIP3    H235581   2.015   1.225  20.916 -0.0074 -0.5146  1.1546
 3796TIP3   OH235582   3.323   1.726  19.857 -0.3085  0.3978 -0.4824
 3796TIP3    H135583   3.255   1.671  19.817 -0.0726 -0.4393  0.2238
 3796TIP3    H235584   3.310   1.813  19.818 -0.0076 -0.3902 -2.4503
 3797TIP3   OH235585   0.373   3.671  18.542  0.6409  0.2875  0.0451
 3797TIP3    H135586   0.353   3.764  18.531 -1.1774 -0.0372  0.3997
 3797TIP3    H235587   0.352   3.632  18.458  0.6733  0.0703  0.1383
 3798TIP3   OH235588   6.204   4.805  18.820  0.9199  0.1694 -0.3731
 3798TIP3    H135589   6.123   4.846  18.791  0.3397 -1.1715 -0.7450
 3798TIP3    H235590   6.249   4.872  18.871 -0.6160  0.8008  0.1970
 3799TIP3   OH235591   3.174   3.866  19.083  0.0767  0.2265 -0.5144
 3799TIP3    H135592   3.154   3.908  19.000 -0.9933  2.5601  0.8342
 3799TIP3    H235593   3.154   3.773  19.068  0.4060  0.4980 -2.9693
 3800TIP3   OH235594   5.040   4.980  19.788 -0.3807  0.3364  0.2618
 3800TIP3    H135595   5.010   4.900  19.745 -1.3254  0.2342  1.0691
 3800TIP3    H235596   5.029   4.962  19.882 -0.1542  1.2329  0.4689
 3801TIP3   OH235597   5.060   1.301  18.715 -0.1236  0.3174 -0.0166
 3801TIP3    H135598   5.013   1.318  18.796 -0.3096  1.6503 -0.3816
 3801TIP3    H235599   5.031   1.215  18.687 -1.6393  0.7162  0.2661
 3802TIP3   OH235600   2.320   1.425  17.952  0.1855 -0.0045 -0.0080
 3802TIP3    H135601   2.367   1.401  17.872  3.3317  1.8114  1.0787
 3802TIP3    H235602   2.331   1.520  17.958 -3.2354  0.4759  0.7599
 3803TIP3   OH235603   1.286   4.832  20.094 -0.1425  0.1131  0.1093
 3803TIP3    H135604   1.274   4.927  20.100 -0.7919  0.0162  0.3607
 3803TIP3    H235605   1.315   4.806  20.181  0.6520  0.1586 -0.1306
 3804TIP3   OH235606   2.667   3.046  20.299  0.5699 -0.3721  0.2533
 3804TIP3    H135607   2.680   3.072  20.208  0.7011 -2.3774 -0.3635
 3804TIP3    H235608   2.743   3.082  20.345  0.0170  1.4858 -0.1924
 3805TIP3   OH235609   0.731   5.925  20.704  0.8656 -0.0207  0.5237
 3805TIP3    H135610   0.752   6.014  20.732  2.8102 -0.3584  0.2238
 3805TIP3    H235611   0.711   5.879  20.786 -0.4030  0.7068  0.6628
 3806TIP3   OH235612   3.834   1.734  19.009 -0.3851 -0.5444 -0.1885
 3806TIP3    H135613   3.791   1.700  18.930 -1.0454 -1.1260  0.4045
 3806TIP3    H235614   3.770   1.794  19.047 -0.4385 -0.9545  0.3788
 3807TIP3   OH235615   6.408   1.198  20.058 -0.5935  0.1210  0.0517
 3807TIP3    H135616   6.376   1.249  19.983 -0.8302 -0.5432 -0.3051
 3807TIP3    H235617   6.335   1.143  20.083 -0.1140 -0.5781 -0.0423
 3808TIP3   OH235618   2.097   4.852  20.258  0.0894 -0.4723  0.2860
 3808TIP3    H135619   2.153   4.928  20.270 -0.0333 -0.0363 -1.5982
 3808TIP3    H235620   2.128   4.811  20.177  1.2037 -3.4163  2.0372
 3809TIP3   OH235621   6.660   3.506  19.528  0.6862 -0.3386 -0.1439
 3809TIP3    H135622   6.658   3.411  19.540  1.1527 -0.2687  0.5874
 3809TIP3    H235623   6.688   3.540  19.613  3.6731  0.2684 -1.2344
 3810TIP3   OH235624   0.431   4.932  18.316 -0.2642 -0.0161  0.7203
 3810TIP3    H135625   0.339   4.927  18.289 -0.4105 -0.1600  1.2409
 3810TIP3    H235626   0.464   5.011  18.272 -0.5717 -0.0829  0.3553
 3811TIP3   OH235627   4.240   2.785  19.251  0.2734  0.1300  0.4084
 3811TIP3    H135628   4.163   2.838  19.269  0.2390  0.7013 -1.2454
 3811TIP3    H235629   4.295   2.795  19.328  1.0392  4.0099 -0.4466
 3812TIP3   OH235630   5.388   0.391  19.995 -0.2459 -0.3314 -0.0436
 3812TIP3    H135631   5.391   0.437  20.078  1.0506  0.3384 -0.4323
 3812TIP3    H235632   5.466   0.335  19.995 -1.3539 -1.9720  0.0669
 3813TIP3   OH235633   2.566   6.020  21.019 -0.6005  0.4818 -0.0896
 3813TIP3    H135634   2.481   5.977  21.007 -0.5604  0.4842 -0.3875
 3813TIP3    H235635   2.544   6.112  21.034 -0.6558  0.4693 -0.0940
 3814TIP3   OH235636   4.820   0.432  19.741  0.0353 -0.2202 -0.2295
 3814TIP3    H135637   4.850   0.399  19.826 -1.1198  0.5180  0.4911
 3814TIP3    H235638   4.899   0.467  19.699  0.4950  0.1060  0.8744
 3815TIP3   OH235639   4.691   1.714  19.726 -0.1324 -0.5923 -0.1369
 3815TIP3    H135640   4.669   1.659  19.801  1.0740 -0.9730 -0.0419
 3815TIP3    H235641   4.615   1.707  19.667 -1.3349  0.1454  1.2671
 3816TIP3   OH235642   6.386   5.596  18.162 -0.1248 -0.2147  0.1157
 3816TIP3    H135643   6.310   5.553  18.124 -0.3239 -1.1869  1.5543
 3816TIP3    H235644   6.443   5.613  18.087 -1.0965 -0.8204 -0.7910
 3817TIP3   OH235645   2.253   3.058  19.359 -0.1297 -0.0992 -0.2480
 3817TIP3    H135646   2.253   2.971  19.318 -0.6328 -0.1494 -0.1486
 3817TIP3    H235647   2.200   3.112  19.300  0.8688  0.3526 -0.7478
 3818TIP3   OH235648   6.180   6.493  20.944  0.3313  0.1674  0.2635
 3818TIP3    H135649   6.155   6.416  20.996  0.2993  0.2733  0.4041
 3818TIP3    H235650   6.112   6.558  20.962  0.2665  0.1706  0.0121
 3819TIP3   OH235651   1.590   2.469  18.232  0.3715 -0.0833  0.0639
 3819TIP3    H135652   1.546   2.384  18.234  0.6823 -0.3497 -1.8645
 3819TIP3    H235653   1.669   2.457  18.285  1.9618 -2.0164 -2.4757
 3820TIP3   OH235654   3.902   3.677  19.376 -0.5407  0.0839 -0.1091
 3820TIP3    H135655   3.847   3.733  19.321  1.0084  0.6338 -1.1876
 3820TIP3    H235656   3.943   3.738  19.438 -0.7293 -0.2489  0.3540
 3821TIP3   OH235657   5.917   5.604  18.535 -0.6079  0.0730 -0.0919
 3821TIP3    H135658   5.968   5.651  18.601  2.0558 -0.8746 -1.3474
 3821TIP3    H235659   5.857   5.671  18.500  0.8983  1.7213  0.3218
 3822TIP3   OH235660   0.519   2.580  20.369 -0.0415 -0.3927 -0.2722
 3822TIP3    H135661   0.554   2.668  20.385 -0.9691 -0.0416 -0.0691
 3822TIP3    H235662   0.560   2.552  20.288  0.5429  0.0804 -0.1470
 3823TIP3   OH235663   3.270   3.421  19.605 -0.6849 -0.6212  0.1037
 3823TIP3    H135664   3.293   3.508  19.573 -0.8019  0.1506  2.0090
 3823TIP3    H235665   3.347   3.391  19.653 -1.0745 -1.0589  0.4744
 3824TIP3   OH235666   2.923   3.904  19.821 -0.4420 -0.5583  0.0019
 3824TIP3    H135667   2.957   3.985  19.783 -1.7664 -0.3813 -0.8575
 3824TIP3    H235668   2.998   3.845  19.821  0.2734  0.3192 -0.3483
 3825TIP3   OH235669   1.854   5.242  19.525 -0.5777  0.0335 -0.1457
 3825TIP3    H135670   1.857   5.271  19.434  1.5243 -0.4470 -0.2636
 3825TIP3    H235671   1.896   5.312  19.575 -0.1069 -0.5002  0.2193
 3826TIP3   OH235672   3.642   0.246  18.012 -0.3046  0.0087  0.3807
 3826TIP3    H135673   3.603   0.159  18.005 -0.1907  0.0155 -0.5281
 3826TIP3    H235674   3.719   0.233  18.068  0.5586 -0.7977 -0.9271
 3827TIP3   OH235675   4.149   0.934  18.832 -0.7095 -0.3151  0.0751
 3827TIP3    H135676   4.129   0.863  18.893 -0.0178 -0.0531  0.6143
 3827TIP3    H235677   4.140   1.014  18.883  1.5146 -0.1747  0.3166
 3828TIP3   OH235678   5.499   2.141  20.949  0.3302 -0.1667 -0.0767
 3828TIP3    H135679   5.419   2.094  20.971  0.8726 -0.8834  0.4158
 3828TIP3    H235680   5.562   2.073  20.927  0.6824  0.4128 -0.8898
 3829TIP3   OH235681   1.416   1.522  19.376 -0.1043 -0.8762  0.6592
 3829TIP3    H135682   1.348   1.502  19.441  0.3518  2.2730  2.3190
 3829TIP3    H235683   1.377   1.591  19.322  1.8657  1.6480  2.2042
 3830TIP3   OH235684   0.385   5.371  18.912 -0.1525 -0.1567  0.2720
 3830TIP3    H135685   0.430   5.343  18.832 -1.3085 -0.3240 -0.3401
 3830TIP3    H235686   0.396   5.466  18.912  2.5471 -0.3830  1.6037
 3831TIP3   OH235687   0.896   4.024  18.928  0.2869 -0.7136  0.3769
 3831TIP3    H135688   0.892   4.085  18.854 -0.0814 -0.2179  0.7988
 3831TIP3    H235689   0.808   3.985  18.931 -0.6017  1.2072  2.1533
 3832TIP3   OH235690   4.507   1.367  19.253  0.2118  0.4495  0.0461
 3832TIP3    H135691   4.485   1.323  19.335 -0.0121 -0.2802 -0.3942
 3832TIP3    H235692   4.422   1.379  19.209  0.2411  1.5278  0.2521
 3833TIP3   OH235693   5.245   3.552  19.699  0.4062  0.0146  0.4461
 3833TIP3    H135694   5.295   3.571  19.619  0.3049 -0.5477  0.2520
 3833TIP3    H235695   5.168   3.504  19.669  1.1920 -1.6973  1.0261
 3834TIP3   OH235696   1.060   1.060  19.572  0.2993 -0.1660  0.5595
 3834TIP3    H135697   1.114   1.133  19.541 -3.7522  3.5977  1.4305
 3834TIP3    H235698   1.006   1.036  19.497 -0.1955 -0.4488  0.9972
 3835TIP3   OH235699   1.305   6.282  21.128 -0.2120 -0.0840 -0.4232
 3835TIP3    H135700   1.241   6.336  21.175 -0.6805  0.6185 -1.8153
 3835TIP3    H235701   1.291   6.193  21.160 -0.3654  0.3977  0.9049
 3836TIP3   OH235702   4.309   4.600  19.107  0.8314 -0.2910 -0.0007
 3836TIP3    H135703   4.389   4.634  19.148  0.4236 -0.3654  0.8765
 3836TIP3    H235704   4.257   4.678  19.090  0.9221 -0.2766 -0.2154
 3837TIP3   OH235705   5.755   2.085  20.476  0.1308 -0.2648 -0.0240
 3837TIP3    H135706   5.838   2.108  20.517  1.1264 -1.0500 -1.5355
 3837TIP3    H235707   5.763   1.992  20.455 -1.4449 -0.5518  0.4840
 3838TIP3   OH235708   1.183   2.351  20.873  0.3359 -0.2405 -0.0074
 3838TIP3    H135709   1.204   2.258  20.879 -0.1128 -0.3621 -0.2172
 3838TIP3    H235710   1.096   2.353  20.831 -0.2721  0.2042  1.2359
 3839TIP3   OH235711   0.337   1.436  19.988  0.4887 -0.1323 -0.1849
 3839TIP3    H135712   0.294   1.358  19.950 -0.1053 -0.6467  1.4531
 3839TIP3    H235713   0.291   1.450  20.071  2.1553  0.5464  0.6643
 3840TIP3   OH235714   5.805   4.740  21.085  0.2711  0.2669  0.2520
 3840TIP3    H135715   5.835   4.655  21.117  0.9425 -0.1089 -1.3006
 3840TIP3    H235716   5.713   4.745  21.112 -0.0535 -1.3634 -0.4342
 3841TIP3   OH235717   4.231   0.279  19.536  0.2146 -0.6954  0.3464
 3841TIP3    H135718   4.154   0.272  19.592 -0.7297  2.2327 -0.3875
 3841TIP3    H235719   4.229   0.200  19.482 -1.0828 -1.6648  1.7320
 3842TIP3   OH235720   4.905   2.179  18.795 -0.4590  0.1283 -0.5521
 3842TIP3    H135721   4.825   2.164  18.845 -0.2028  3.1154  0.9731
 3842TIP3    H235722   4.972   2.127  18.840 -0.5537  1.6177  1.4363
 3843TIP3   OH235723   4.536   2.642  18.941  0.4104  0.2279 -0.0910
 3843TIP3    H135724   4.504   2.592  19.016  2.5951 -0.4628  0.4399
 3843TIP3    H235725   4.592   2.581  18.893 -0.5859  0.7798 -2.0908
 3844TIP3   OH235726   4.218   4.135  18.788  0.1257 -0.1590  0.8503
 3844TIP3    H135727   4.153   4.165  18.725 -0.3678 -1.0614  0.9290
 3844TIP3    H235728   4.300   4.174  18.757 -0.4722  1.1840  0.8933
 3845TIP3   OH235729   1.735   2.636  19.345  0.2277 -0.5529  0.0047
 3845TIP3    H135730   1.674   2.697  19.387 -2.8677 -2.3363 -1.5415
 3845TIP3    H235731   1.697   2.621  19.258  3.3797 -1.2109 -1.3993
 3846TIP3   OH235732   4.617   6.288  20.231  0.3298 -0.1585  0.1400
 3846TIP3    H135733   4.669   6.368  20.223 -1.0576  0.6532 -1.2445
 3846TIP3    H235734   4.674   6.218  20.200  0.2068  0.9075 -2.7913
 3847TIP3   OH235735   1.428   2.227  20.226  0.2181  0.0522 -0.1334
 3847TIP3    H135736   1.452   2.319  20.235 -1.1015  0.3637  0.4891
 3847TIP3    H235737   1.339   2.222  20.261  0.0868 -1.3736 -0.6013
 3848TIP3   OH235738   3.829   3.115  17.914  0.1758 -0.1425 -0.3300
 3848TIP3    H135739   3.778   3.190  17.882  1.9914  0.8419 -1.0888
 3848TIP3    H235740   3.852   3.066  17.835  0.0182 -0.8487  0.0532
 3849TIP3   OH235741   4.484   1.265  18.862  0.1241 -0.3937  0.3234
 3849TIP3    H135742   4.563   1.310  18.830 -0.2507  0.5009  0.6432
 3849TIP3    H235743   4.412   1.308  18.817 -0.2175 -1.0117  0.2602
 3850TIP3   OH235744   5.171   5.076  19.467 -0.2588  0.1062  0.1981
 3850TIP3    H135745   5.194   5.007  19.405 -0.0608  1.6080 -1.4652
 3850TIP3    H235746   5.095   5.120  19.428 -0.9366  0.3032  1.6547
 3851TIP3   OH235747   0.028   6.190  18.292  0.4444  0.6084  0.0195
 3851TIP3    H135748   0.120   6.188  18.264  0.6090  0.0380  0.5757
 3851TIP3    H235749  -0.006   6.104  18.268 -0.6601  1.6434 -2.4434
 3852TIP3   OH235750   2.659   4.598  20.134 -0.1713  0.2678 -0.5946
 3852TIP3    H135751   2.639   4.600  20.228 -1.3893  1.0422 -0.8477
 3852TIP3    H235752   2.753   4.611  20.129 -0.2211  1.2195  0.4904
 3853TIP3   OH235753   5.670   5.662  20.069  0.4954  0.0479  0.0209
 3853TIP3    H135754   5.762   5.681  20.084  0.6407 -0.3763 -0.3294
 3853TIP3    H235755   5.654   5.580  20.117  0.3461  0.0234 -0.0694
 3854TIP3   OH235756   4.581   2.249  18.755 -0.0840  0.4562 -0.4706
 3854TIP3    H135757   4.518   2.237  18.827  2.3840 -0.0153  1.7816
 3854TIP3    H235758   4.604   2.342  18.759  0.3009  0.3597 -0.4098
 3855TIP3   OH235759   6.423   0.842  18.307 -0.7328  0.6186 -0.3940
 3855TIP3    H135760   6.374   0.777  18.357 -2.0144  0.2957 -1.9965
 3855TIP3    H235761   6.508   0.800  18.291 -0.5135  0.5001  0.9542
 3856TIP3   OH235762   4.680   2.843  18.249  0.5745 -0.2398 -0.1518
 3856TIP3    H135763   4.633   2.769  18.286 -0.1360 -0.1130 -0.7796
 3856TIP3    H235764   4.773   2.824  18.265  0.2940  0.0252  2.0906
 3857TIP3   OH235765   3.499   3.589  18.816  0.1535 -0.0664  0.3433
 3857TIP3    H135766   3.554   3.510  18.816 -1.1154 -0.9994  1.7247
 3857TIP3    H235767   3.440   3.577  18.890 -1.2847  1.3606 -0.5112
 3858TIP3   OH235768   3.703   4.188  17.727 -0.0538  0.1203 -0.3329
 3858TIP3    H135769   3.671   4.111  17.773 -0.2066  0.9871  1.0530
 3858TIP3    H235770   3.794   4.197  17.755  0.1593  0.0892 -0.9896
 3859TIP3   OH235771   0.096   6.299  17.986  0.1032  0.6357  0.3252
 3859TIP3    H135772   0.090   6.242  17.909  2.3522  1.9858 -0.9585
 3859TIP3    H235773   0.006   6.307  18.017 -0.8824 -0.0457 -2.1034
 3860TIP3   OH235774   4.298   3.207  20.797  0.3231 -0.4518 -0.5836
 3860TIP3    H135775   4.372   3.261  20.767  0.8041 -1.3610 -1.0881
 3860TIP3    H235776   4.309   3.203  20.892 -0.1428  0.9216 -0.4451
 3861TIP3   OH235777   5.286   5.277  20.797 -0.3244  0.4641 -0.1266
 3861TIP3    H135778   5.359   5.339  20.803 -1.7089  2.2233 -0.3994
 3861TIP3    H235779   5.281   5.238  20.884  0.5845  0.7457  0.0659
 3862TIP3   OH235780   5.720   1.805  19.803  0.3692  0.7224  0.1007
 3862TIP3    H135781   5.805   1.848  19.790 -0.6079  2.0283 -2.9982
 3862TIP3    H235782   5.700   1.767  19.717 -2.7962  1.6823  0.3057
 3863TIP3   OH235783   3.521   1.898  20.938  0.1452 -0.7795 -0.6216
 3863TIP3    H135784   3.541   1.805  20.932  1.4170 -0.5078 -0.8658
 3863TIP3    H235785   3.512   1.927  20.847  1.3015 -0.3632 -0.6211
 3864TIP3   OH235786   1.434   6.594  20.660  0.0603 -0.1935 -0.5422
 3864TIP3    H135787   1.509   6.638  20.699  0.2046  1.0170 -2.1071
 3864TIP3    H235788   1.380   6.567  20.735  1.9309 -0.9189  0.5965
 3865TIP3   OH235789   0.084   2.252  17.324  0.0777 -0.2632  0.0405
 3865TIP3    H135790   0.148   2.202  17.274 -1.0091 -0.5073 -1.1422
 3865TIP3    H235791   0.034   2.187  17.373  0.1638 -0.1462  0.2865
 3866TIP3   OH235792   6.404   1.524  20.078  0.4428 -0.3387  0.3055
 3866TIP3    H135793   6.327   1.471  20.058  1.5976 -1.7783 -0.5258
 3866TIP3    H235794   6.385   1.564  20.162 -0.8521 -1.3857  0.5342
 3867TIP3   OH235795   5.860   5.801  20.856  0.7873 -0.6024  0.1694
 3867TIP3    H135796   5.930   5.839  20.910  0.0231  2.5911 -0.8685
 3867TIP3    H235797   5.901   5.727  20.813  1.9957 -2.0448  3.4594
 3868TIP3   OH235798   6.410   5.356  18.700 -0.1302  0.0856  0.1023
 3868TIP3    H135799   6.320   5.376  18.724 -0.7134 -1.0354 -0.9949
 3868TIP3    H235800   6.453   5.441  18.691 -1.2351  0.6551  0.0949
 3869TIP3   OH235801   5.184   2.424  18.105 -0.0539  0.7364 -0.3950
 3869TIP3    H135802   5.164   2.510  18.068  1.7560  0.3383 -2.5400
 3869TIP3    H235803   5.218   2.443  18.193 -3.4683  1.8079  0.8481
 3870TIP3   OH235804   0.573   1.640  19.286 -0.1655  0.3564  0.1123
 3870TIP3    H135805   0.589   1.728  19.318 -0.3071  0.4019  0.0586
 3870TIP3    H235806   0.486   1.617  19.320 -0.0748  0.1889  0.2356
 3871TIP3   OH235807   2.412   0.914  17.846  0.1726  0.3705  0.4501
 3871TIP3    H135808   2.319   0.935  17.833  0.1669  0.3423  0.4451
 3871TIP3    H235809   2.435   0.860  17.770  0.5594  1.5689 -0.3102
 3872TIP3   OH235810   2.547   5.451  18.123 -0.1292  0.7422 -0.1115
 3872TIP3    H135811   2.485   5.403  18.177 -0.9281  2.4227  0.5351
 3872TIP3    H235812   2.608   5.384  18.092 -1.2095 -0.6791  0.6809
 3873TIP3   OH235813   3.562   5.224  20.424  0.1113 -0.0467  0.2131
 3873TIP3    H135814   3.641   5.276  20.411 -0.4149  1.3710  2.2008
 3873TIP3    H235815   3.592   5.147  20.472  0.2105  1.0617  2.0576
 3874TIP3   OH235816   4.889   0.977  18.949  0.3596  0.1203 -0.2244
 3874TIP3    H135817   4.947   1.024  19.009 -0.4804 -0.7645  1.3395
 3874TIP3    H235818   4.801   0.993  18.984 -0.1654 -0.3648 -1.2736
 3875TIP3   OH235819   0.052   6.076  19.216  0.3425  0.2099  0.1991
 3875TIP3    H135820   0.017   6.143  19.275  0.8632 -0.7633  1.6624
 3875TIP3    H235821   0.110   6.125  19.157  0.9634  1.0440  1.4357
 3876TIP3   OH235822   0.440   6.578  20.361  0.5350  0.1008 -0.1946
 3876TIP3    H135823   0.345   6.583  20.354  0.5200 -1.0482 -1.2004
 3876TIP3    H235824   0.463   6.643  20.428 -1.2402 -1.6468  2.3098
 3877TIP3   OH235825   0.256   5.057  19.811  0.3985 -0.4932 -0.3399
 3877TIP3    H135826   0.282   5.147  19.794  1.9856 -1.0433 -1.0239
 3877TIP3    H235827   0.161   5.057  19.806  0.4431  0.9222 -1.4497
 3878TIP3   OH235828   0.777   3.524  20.265 -0.3726 -0.3051 -0.3211
 3878TIP3    H135829   0.772   3.570  20.349  0.1834  1.7172 -1.3413
 3878TIP3    H235830   0.818   3.587  20.206 -0.4742 -1.7998 -2.0453
 3879TIP3   OH235831   0.888   5.278  18.897 -0.2912 -0.1103  0.3852
 3879TIP3    H135832   0.869   5.216  18.968 -1.9062 -1.4219 -1.1234
 3879TIP3    H235833   0.978   5.260  18.873  0.6328  0.9943  2.6421
 3880TIP3   OH235834   6.170   2.827  18.775  0.0453  0.2607  0.2808
 3880TIP3    H135835   6.173   2.737  18.808 -0.2640  0.1094 -0.0927
 3880TIP3    H235836   6.144   2.817  18.683  0.0248  0.7306  0.2379
 3881TIP3   OH235837   5.294   4.544  18.157 -0.0044  0.0762 -0.0898
 3881TIP3    H135838   5.320   4.472  18.214  0.2401  0.1497 -0.1032
 3881TIP3    H235839   5.317   4.624  18.205  0.3348  0.1378 -0.3444
 3882TIP3   OH235840   2.907   3.070  18.270 -0.1003  0.4723 -0.3168
 3882TIP3    H135841   2.825   3.039  18.230  0.7221 -1.3970 -0.6859
 3882TIP3    H235842   2.903   3.035  18.359  1.0159 -1.1603 -0.8538
 3883TIP3   OH235843   2.799   3.204  18.515 -0.2562  0.2158  0.0543
 3883TIP3    H135844   2.735   3.194  18.445 -0.6472  1.1770  0.2482
 3883TIP3    H235845   2.758   3.268  18.575  1.4252  1.8784 -0.4837
 3884TIP3   OH235846   1.556   3.024  21.076  0.4892 -0.3836  0.6757
 3884TIP3    H135847   1.650   3.043  21.076  0.5716 -0.7043 -0.5405
 3884TIP3    H235848   1.534   3.010  20.984 -0.4897 -1.5984  1.0568
 3885TIP3   OH235849   5.009   1.176  19.646  0.4185  0.0876 -0.4921
 3885TIP3    H135850   5.098   1.210  19.634  0.9868 -0.6353  1.2512
 3885TIP3    H235851   5.007   1.148  19.738 -1.4609 -0.3775 -0.6401
 3886TIP3   OH235852   3.442   3.533  20.781 -0.4362 -0.4879  0.2734
 3886TIP3    H135853   3.452   3.594  20.707 -1.2000  0.3347  0.8304
 3886TIP3    H235854   3.377   3.469  20.750  0.1186 -0.8412 -0.1883
 3887TIP3   OH235855   2.513   5.033  19.668  0.0734 -0.2281  0.0824
 3887TIP3    H135856   2.430   5.070  19.636  0.1511 -0.3988 -0.3227
 3887TIP3    H235857   2.491   4.942  19.690  0.3776 -0.5752 -0.9862
 3888TIP3   OH235858   6.241   3.456  18.166 -0.5990 -0.0550  0.6335
 3888TIP3    H135859   6.205   3.443  18.079  0.1826  2.4536 -0.1547
 3888TIP3    H235860   6.334   3.433  18.158 -0.1617  1.6562  0.3133
 3889TIP3   OH235861   1.444   5.274  20.243 -0.3046 -0.1400  0.0164
 3889TIP3    H135862   1.426   5.358  20.286  0.8770 -0.2401  0.7527
 3889TIP3    H235863   1.530   5.287  20.202 -0.0379 -1.0280  0.2697
 3890TIP3   OH235864   4.074   0.946  17.771  0.1381 -0.0792 -0.6226
 3890TIP3    H135865   4.119   0.990  17.699 -1.5703  0.5533 -1.3611
 3890TIP3    H235866   3.995   0.909  17.731  0.0958 -1.3370  0.5660
 3891TIP3   OH235867   6.603   1.078  20.554  0.2945 -0.0601  0.4338
 3891TIP3    H135868   6.603   1.150  20.490  0.8102  1.1628  1.7636
 3891TIP3    H235869   6.624   1.000  20.502 -0.6053  0.6686 -1.1052
 3892TIP3   OH235870   4.212   1.762  20.249  0.1014 -0.0171  0.1092
 3892TIP3    H135871   4.286   1.706  20.225  0.8558  1.4488 -1.1685
 3892TIP3    H235872   4.228   1.844  20.203 -1.8362  0.6893  0.5904
 3893TIP3   OH235873   2.966   1.883  19.734  0.2481 -0.2075  0.0079
 3893TIP3    H135874   2.946   1.877  19.827 -1.2968 -0.5487 -0.3228
 3893TIP3    H235875   2.917   1.960  19.704 -1.3007 -1.4945 -0.9771
 3894TIP3   OH235876   0.702   3.512  19.182 -0.1181  0.1675  0.7041
 3894TIP3    H135877   0.684   3.455  19.106  0.2392 -2.7106  2.5984
 3894TIP3    H235878   0.678   3.599  19.153  1.1654 -0.5456 -3.1546
 3895TIP3   OH235879   3.169   4.360  18.640  0.1806 -0.0506 -0.1716
 3895TIP3    H135880   3.097   4.300  18.659  0.4834 -0.3456  0.0492
 3895TIP3    H235881   3.136   4.415  18.568 -0.0083 -0.6401 -0.5460
 3896TIP3   OH235882   6.501   0.513  21.018 -0.1676 -0.3663  0.4191
 3896TIP3    H135883   6.444   0.452  20.972 -0.0891  1.4010 -2.2901
 3896TIP3    H235884   6.443   0.584  21.047  0.2336  0.0758  0.1640
 3897TIP3   OH235885   1.409   2.033  17.438 -0.3042  0.4304  0.1326
 3897TIP3    H135886   1.321   1.996  17.428  0.4658 -1.1112 -1.7882
 3897TIP3    H235887   1.448   1.982  17.508 -0.1616 -0.6295 -0.6801
 3898TIP3   OH235888   0.249   4.247  18.426 -0.0765  0.0810  0.4137
 3898TIP3    H135889   0.232   4.184  18.356  1.7167  1.0486 -0.9979
 3898TIP3    H235890   0.248   4.332  18.382  0.8063  0.7547  1.6137
 3899TIP3   OH235891   0.693   2.776  17.626 -0.5826 -0.2866  0.3510
 3899TIP3    H135892   0.626   2.830  17.586 -0.8081 -0.1367  0.9295
 3899TIP3    H235893   0.773   2.795  17.576 -0.9260 -0.3366 -0.2215
 3900TIP3   OH235894   5.140   2.231  20.277 -0.0764  0.3702  0.3689
 3900TIP3    H135895   5.165   2.161  20.337  1.9504  1.3965  0.8199
 3900TIP3    H235896   5.121   2.306  20.333 -1.5789  0.4027 -0.1416
 3901TIP3   OH235897   0.108   4.842  19.344 -0.4771  0.0509  0.4478
 3901TIP3    H135898   0.024   4.887  19.329 -0.6038  0.7396  2.8442
 3901TIP3    H235899   0.173   4.911  19.339 -0.1810 -0.2704 -0.1777
 3902TIP3   OH235900   5.122   0.748  20.201  0.2433 -0.6248  0.3072
 3902TIP3    H135901   5.100   0.841  20.191  0.2039 -0.7226 -0.6352
 3902TIP3    H235902   5.202   0.748  20.252  1.8510  0.1066 -2.0445
 3903TIP3   OH235903   2.446   6.658  18.219 -0.0615  0.5326  0.5558
 3903TIP3    H135904   2.414   6.745  18.245 -0.9852  0.3485  0.0918
 3903TIP3    H235905   2.377   6.624  18.162  1.4320  0.5346 -1.3939
 3904TIP3   OH235906   2.526   1.952  20.330  0.3342  0.0027  0.2437
 3904TIP3    H135907   2.554   2.003  20.254 -1.0542  2.3997  1.2339
 3904TIP3    H235908   2.591   1.881  20.336  0.8217  0.0560 -2.7675
 3905TIP3   OH235909   2.157   5.053  20.814 -0.4750  0.1635 -0.5371
 3905TIP3    H135910   2.093   4.987  20.791 -0.9912  0.8907 -1.2523
 3905TIP3    H235911   2.231   5.037  20.755  0.2877 -1.0659  0.7129
 3906TIP3   OH235912   2.772   0.819  18.861 -0.0454  0.3010 -0.4243
 3906TIP3    H135913   2.862   0.803  18.833 -0.0403  0.8170 -0.7201
 3906TIP3    H235914   2.718   0.777  18.795 -0.0294  1.0627 -0.9259
 3907TIP3   OH235915   0.186   4.105  20.232  0.0458  0.3780  0.1745
 3907TIP3    H135916   0.197   4.180  20.290  0.3822 -0.2636  0.9657
 3907TIP3    H235917   0.091   4.095  20.224 -0.0037  0.5438  0.5311
 3908TIP3   OH235918   2.028   5.352  19.877  0.0202 -0.0169  0.2908
 3908TIP3    H135919   2.088   5.356  19.951  1.0668  0.4588 -0.5496
 3908TIP3    H235920   1.994   5.263  19.879  1.3721 -0.5667  0.3420
 3909TIP3   OH235921   3.471   2.570  18.478  0.2447 -0.4849  0.1807
 3909TIP3    H135922   3.467   2.577  18.383  1.1726  0.6589  0.1973
 3909TIP3    H235923   3.382   2.546  18.505 -0.1812 -0.1770 -0.9170
 3910TIP3   OH235924   0.915   1.751  18.451 -0.0732 -0.2671  0.1563
 3910TIP3    H135925   0.997   1.790  18.483 -0.7035  1.6162 -0.3564
 3910TIP3    H235926   0.890   1.689  18.519  0.1545  1.4617  1.9138
 3911TIP3   OH235927   1.574   0.915  20.665  0.0100 -0.4233 -0.0622
 3911TIP3    H135928   1.520   0.886  20.592 -0.5777  0.3386  0.0658
 3911TIP3    H235929   1.656   0.865  20.655 -0.5414 -1.2589 -0.5040
 3912TIP3   OH235930   2.444   5.636  18.952  0.1533 -0.0256 -0.3877
 3912TIP3    H135931   2.510   5.702  18.931 -0.2819 -0.0011 -1.8056
 3912TIP3    H235932   2.360   5.682  18.944 -0.1297 -0.6173 -0.9329
 3913TIP3   OH235933   4.595   1.843  17.078  0.1936  0.0404 -0.0801
 3913TIP3    H135934   4.655   1.787  17.029  0.9991  0.8038 -0.0042
 3913TIP3    H235935   4.651   1.909  17.118 -0.7068  0.8004 -0.0274
 3914TIP3   OH235936   4.703   2.517  18.715  0.2256 -0.2313 -0.3002
 3914TIP3    H135937   4.780   2.460  18.715 -0.3520 -1.0671  1.3628
 3914TIP3    H235938   4.737   2.602  18.743  0.6601 -0.4207 -0.2395
 3915TIP3   OH235939   3.678   3.027  19.337  0.9367  0.1910  0.3724
 3915TIP3    H135940   3.624   3.106  19.341  1.2453  0.4584 -0.5417
 3915TIP3    H235941   3.764   3.054  19.368  1.2643  0.4272 -0.6961
 3916TIP3   OH235942   4.486   3.037  20.209 -0.0917 -0.0195 -0.1562
 3916TIP3    H135943   4.490   3.117  20.262  1.6481  1.3085 -2.1283
 3916TIP3    H235944   4.535   3.059  20.129 -0.6081 -2.6794 -1.2959
 3917TIP3   OH235945   4.873   2.561  20.420  0.3312  0.4634  0.4239
 3917TIP3    H135946   4.862   2.510  20.340 -0.4891  0.6855  0.3843
 3917TIP3    H235947   4.953   2.612  20.405  0.6149 -0.0840  0.0712
 3918TIP3   OH235948   0.220   3.947  19.704  0.5044 -0.3599 -0.4993
 3918TIP3    H135949   0.278   3.980  19.636 -1.3621  0.5437 -1.7219
 3918TIP3    H235950   0.243   3.854  19.713  3.0033  0.2472  0.0462
 3919TIP3   OH235951   5.886   4.776  18.560 -0.2629  0.6389 -0.1850
 3919TIP3    H135952   5.895   4.682  18.574 -0.2666  0.7553  0.6693
 3919TIP3    H235953   5.941   4.795  18.484 -0.7300 -0.1410 -0.7446
 3920TIP3   OH235954   1.039   0.802  19.614 -0.3581  0.0426 -0.2902
 3920TIP3    H135955   1.123   0.757  19.609 -1.2039 -1.5690 -0.6598
 3920TIP3    H235956   1.057   0.890  19.581  1.4651  0.2013  0.9771
 3921TIP3   OH235957   0.981   2.592  20.915 -0.1262  0.3847 -0.0799
 3921TIP3    H135958   0.968   2.520  20.853 -0.2036  0.3376 -0.0110
 3921TIP3    H235959   1.057   2.640  20.882  0.4739 -0.2444  0.3446
 3922TIP3   OH235960   4.559   3.401  20.008 -0.1002  0.2387  0.0368
 3922TIP3    H135961   4.568   3.488  20.047 -0.0914  1.2605 -2.0781
 3922TIP3    H235962   4.477   3.367  20.042 -0.9365  1.7945 -0.3201
 3923TIP3   OH235963   6.465   4.672  19.588 -0.0551  0.2522 -0.1960
 3923TIP3    H135964   6.472   4.733  19.661  0.2302  1.5024 -1.2279
 3923TIP3    H235965   6.477   4.726  19.510 -0.9808 -0.9394 -1.2062
 3924TIP3   OH235966   2.546   5.213  19.094 -0.1836 -0.4052  0.0209
 3924TIP3    H135967   2.517   5.143  19.153  2.0982 -1.0398  0.4972
 3924TIP3    H235968   2.491   5.288  19.117 -0.8613 -1.2734  1.3922
 3925TIP3   OH235969   4.559   4.209  20.231  0.1316 -0.5461 -0.0748
 3925TIP3    H135970   4.491   4.143  20.220 -2.8126  2.1638  0.4686
 3925TIP3    H235971   4.556   4.260  20.150  1.7747 -0.5330 -0.1584
 3926TIP3   OH235972   1.794   0.053  20.435 -0.1842  0.8345 -0.5097
 3926TIP3    H135973   1.700   0.066  20.422 -0.3459  1.6828  1.1631
 3926TIP3    H235974   1.805   0.051  20.530  1.5989  1.5417 -0.6598
 3927TIP3   OH235975   1.058   1.516  18.850 -0.0449  0.0286 -0.0840
 3927TIP3    H135976   1.145   1.545  18.823 -0.5413  0.9293 -0.7749
 3927TIP3    H235977   1.063   1.421  18.849  1.4150  0.0460  1.5352
 3928TIP3   OH235978   3.984   0.799  20.651  0.1672 -0.2568 -0.3150
 3928TIP3    H135979   4.001   0.876  20.597  1.8723  0.9182  1.7508
 3928TIP3    H235980   3.922   0.829  20.717  0.8979 -0.6031  0.5485
 3929TIP3   OH235981   4.535   4.656  20.748  0.3386 -0.1157  0.4008
 3929TIP3    H135982   4.450   4.615  20.729  1.3629 -3.0591  1.5855
 3929TIP3    H235983   4.534   4.738  20.697 -3.1062 -0.0867  0.2740
 3930TIP3   OH235984   4.674   0.593  20.603 -0.6348  0.0750 -0.2443
 3930TIP3    H135985   4.654   0.683  20.629 -1.6001  0.1633 -1.1870
 3930TIP3    H235986   4.757   0.600  20.556 -1.0527  0.6079 -0.9360
 3931TIP3   OH235987   3.334   6.133  20.891 -0.3034  0.5796 -0.0798
 3931TIP3    H135988   3.343   6.130  20.795 -1.8178 -2.1911 -0.2363
 3931TIP3    H235989   3.241   6.117  20.907 -0.5235  3.1748  1.8846
 3932TIP3   OH235990   1.816   1.965  18.364 -0.6711  1.2523  0.2056
 3932TIP3    H135991   1.892   1.917  18.332 -0.1285  2.3051 -0.1387
 3932TIP3    H235992   1.745   1.901  18.364 -0.0510  0.5504 -0.5589
 3933TIP3   OH235993   2.240   3.935  18.405  0.2083 -0.3147 -0.5637
 3933TIP3    H135994   2.278   3.951  18.318  2.6243  0.0575  0.4693
 3933TIP3    H235995   2.227   4.022  18.442 -0.9198 -0.4711 -0.5710
 3934TIP3   OH235996   0.850   6.308  18.962 -0.0421  0.4239  0.0917
 3934TIP3    H135997   0.834   6.395  18.926 -2.0550  0.2772  0.5253
 3934TIP3    H235998   0.852   6.250  18.886  0.7909  0.7507 -0.1530
 3935TIP3   OH235999   0.541   3.168  19.832 -0.4740  0.7581  0.0669
 3935TIP3    H136000   0.506   3.088  19.795 -1.1184  0.6411  0.8904
 3935TIP3    H236001   0.540   3.231  19.760 -0.0279  0.0538 -0.5610
 3936TIP3   OH236002   5.476   0.686  19.887 -0.2940  0.5536  0.4856
 3936TIP3    H136003   5.557   0.700  19.935 -0.2820  0.2486  0.5611
 3936TIP3    H236004   5.430   0.619  19.937  0.2710 -0.6719 -0.5669
 3937TIP3   OH236005   5.421   2.616  21.064 -0.1200  0.3440  0.2273
 3937TIP3    H136006   5.376   2.685  21.113 -0.4788 -1.6653  2.9514
 3937TIP3    H236007   5.452   2.555  21.131  0.3825 -2.0510 -2.0194
 3938TIP3   OH236008   2.730   1.558  19.659 -0.2321  0.1272 -0.0516
 3938TIP3    H136009   2.638   1.562  19.634 -0.3890  0.4991  0.6010
 3938TIP3    H236010   2.772   1.626  19.606 -0.2358 -0.3877 -0.7348
 3939TIP3   OH236011   2.889   2.063  18.354  0.0652 -0.0458  0.3716
 3939TIP3    H136012   2.966   2.044  18.300  1.3671  2.0482  1.3513
 3939TIP3    H236013   2.896   2.002  18.428  1.5893  0.9722  1.1291
 3940TIP3   OH236014   6.283   6.552  20.303 -0.1636 -0.5588  0.0304
 3940TIP3    H136015   6.301   6.531  20.395  1.0214  0.4035  0.0480
 3940TIP3    H236016   6.307   6.472  20.255  0.2125 -0.7101  0.4673
 3941TIP3   OH236017   0.568   1.797  20.990 -0.3825  0.3495 -0.5435
 3941TIP3    H136018   0.584   1.866  21.055  1.3851 -0.8960  0.4311
 3941TIP3    H236019   0.532   1.724  21.041  0.2332 -0.3540 -1.0840
 3942TIP3   OH236020   4.885   1.694  20.405  0.6078 -0.9324  0.2191
 3942TIP3    H136021   4.908   1.785  20.423  1.6613 -1.4394  1.6176
 3942TIP3    H236022   4.790   1.695  20.394  0.4338  0.1444  1.5778
 3943TIP3   OH236023   5.572   3.121  19.477  0.3944  0.4024  0.5363
 3943TIP3    H136024   5.529   3.173  19.409 -1.9356 -1.3595  0.5107
 3943TIP3    H236025   5.600   3.185  19.542 -0.8881  1.8170 -0.2446
 3944TIP3   OH236026   6.665   3.460  19.999 -0.4278  0.4876  0.6062
 3944TIP3    H136027   6.750   3.480  20.038  0.3709 -1.8234  0.1896
 3944TIP3    H236028   6.621   3.406  20.065 -1.0448  0.6194  0.3010
 3945TIP3   OH236029   4.141   2.596  21.052 -0.4674  0.4252  0.5872
 3945TIP3    H136030   4.189   2.674  21.082  0.7167 -0.6830  1.7087
 3945TIP3    H236031   4.051   2.627  21.040  0.0849  2.0956  0.4463
 3946TIP3   OH236032   4.842   2.313  17.838 -0.0940  0.1080  0.6407
 3946TIP3    H136033   4.885   2.251  17.897  2.3436 -0.5764 -1.6441
 3946TIP3    H236034   4.807   2.259  17.767 -2.8946  0.9056  1.2931
 3947TIP3   OH236035   5.508   1.431  20.585  0.0610 -0.2701 -0.7270
 3947TIP3    H136036   5.478   1.506  20.534 -0.3114  0.2619  0.2433
 3947TIP3    H236037   5.538   1.368  20.520  1.9746  1.3605 -1.5297
 3948TIP3   OH236038   1.654   4.951  21.124 -0.6180  0.2467 -0.2688
 3948TIP3    H136039   1.570   4.940  21.078 -0.4025  2.0648 -1.1665
 3948TIP3    H236040   1.704   5.011  21.069 -0.6372  3.2071  2.6455
 3949TIP3   OH236041   5.127   0.055  20.715  0.0846  0.5157 -0.5186
 3949TIP3    H136042   5.119  -0.021  20.773  1.4150  0.3554 -0.5105
 3949TIP3    H236043   5.052   0.110  20.738  0.0416  0.0015  0.6886
 3950TIP3   OH236044   0.816   2.345  19.255  0.4116  0.3010  0.4160
 3950TIP3    H136045   0.764   2.273  19.291 -0.4159  0.7862  0.2140
 3950TIP3    H236046   0.881   2.302  19.199 -2.3785 -0.2051 -2.7470
 3951TIP3   OH236047   1.477   2.155  18.511  0.0133  0.2804 -0.3590
 3951TIP3    H136048   1.462   2.077  18.457  0.7495 -0.3913  0.3858
 3951TIP3    H236049   1.566   2.145  18.544  0.1845  1.5394 -0.3942
 3952TIP3   OH236050   4.792   5.587  18.658  0.3507  0.3513 -0.8797
 3952TIP3    H136051   4.862   5.600  18.594  1.0925 -0.2830 -0.2298
 3952TIP3    H236052   4.774   5.674  18.693 -2.0558  1.2210 -3.8904
 3953TIP3   OH236053   1.758   3.833  21.260  0.2167  0.7363  0.1355
 3953TIP3    H136054   1.817   3.788  21.321 -0.0970  1.0357  0.6654
 3953TIP3    H236055   1.721   3.763  21.207  0.1737  0.4198  0.5744
 3954TIP3   OH236056   5.244   5.756  19.800 -0.0177 -0.5994 -0.1446
 3954TIP3    H136057   5.286   5.752  19.714 -0.7568  0.0262 -0.5421
 3954TIP3    H236058   5.164   5.805  19.785  0.6003  0.8917  1.1970
 3955TIP3   OH236059   1.454   0.270  20.790  0.2836  0.0118 -0.6876
 3955TIP3    H136060   1.365   0.251  20.761 -1.0442  3.0770  0.9384
 3955TIP3    H236061   1.490   0.325  20.720  0.6333 -0.5907 -0.9846
 3956TIP3   OH236062   5.149   6.328  18.700  0.8234 -0.2761  0.4049
 3956TIP3    H136063   5.073   6.290  18.743  0.9845 -0.3728  0.6067
 3956TIP3    H236064   5.125   6.331  18.608  0.9849 -1.2992  0.3189
 3957TIP3   OH236065   6.673   0.657  18.523  0.4896 -0.0543  0.4036
 3957TIP3    H136066   6.748   0.703  18.485  0.5748 -0.7342 -0.2647
 3957TIP3    H236067   6.620   0.631  18.448  0.7115 -1.5174  0.7351
 3958TIP3   OH236068   4.543   1.940  19.097 -0.0390  0.0183  0.5966
 3958TIP3    H136069   4.459   1.984  19.115 -0.0700 -0.1241  0.8087
 3958TIP3    H236070   4.520   1.869  19.037 -0.1051 -0.1463  0.8139
 3959TIP3   OH236071   0.012   0.121  20.985  0.0929  0.0171  0.1550
 3959TIP3    H136072   0.025   0.063  21.060  0.1010 -0.3029 -0.0920
 3959TIP3    H236073  -0.052   0.076  20.930 -0.4578  0.5802  0.3131
 3960TIP3   OH236074   5.288   2.883  21.014  0.3253  0.0031  0.5496
 3960TIP3    H136075   5.284   2.958  21.073 -0.7210  0.9157 -0.6323
 3960TIP3    H236076   5.360   2.903  20.954 -0.5941  0.5451 -0.3841
 3961TIP3   OH236077   4.919   4.262  19.975 -0.0713  0.1246  0.3637
 3961TIP3    H136078   4.902   4.230  20.063  1.4614 -0.4374  0.4856
 3961TIP3    H236079   4.972   4.194  19.934 -1.1253  0.1714 -1.1612
 3962TIP3   OH236080   4.291   5.735  18.495  0.3526  0.3676 -0.3914
 3962TIP3    H136081   4.288   5.813  18.550  2.0527 -0.5793  1.1578
 3962TIP3    H236082   4.340   5.763  18.417 -0.3301  1.2002 -0.5379
 3963TIP3   OH236083   4.119   1.337  19.948  0.8596  0.1124  0.3058
 3963TIP3    H136084   4.045   1.331  19.887 -0.8789 -1.9671  2.4053
 3963TIP3    H236085   4.113   1.426  19.984 -0.6466  0.0035  0.3991
 3964TIP3   OH236086   2.081   0.289  20.694 -0.2924  0.4058  0.0112
 3964TIP3    H136087   2.066   0.195  20.696  1.1409  0.1165 -1.3627
 3964TIP3    H236088   2.098   0.309  20.602  0.7988  1.7797  0.4825
 3965TIP3   OH236089   5.207   6.368  20.057 -0.2742 -0.2049  0.2710
 3965TIP3    H136090   5.119   6.347  20.086  0.1273 -0.0267  1.6988
 3965TIP3    H236091   5.238   6.434  20.119  0.0107  1.5429 -1.6375
 3966TIP3   OH236092   3.445   5.374  18.798  0.1502 -0.0848  0.0647
 3966TIP3    H136093   3.510   5.434  18.762 -0.0401  0.5459  0.7457
 3966TIP3    H236094   3.489   5.334  18.873 -1.5859  3.8238  3.6120
 3967TIP3   OH236095   3.943   5.376  20.964 -0.1681 -0.6417 -0.0567
 3967TIP3    H136096   3.963   5.460  20.924  1.0773 -0.4722  0.8662
 3967TIP3    H236097   3.852   5.383  20.992 -0.2567  0.1729 -0.5288
 3968TIP3   OH236098   4.393   3.814  19.002  0.2000  0.1535 -0.6829
 3968TIP3    H136099   4.298   3.827  19.003 -0.2709 -2.7426 -0.6830
 3968TIP3    H236100   4.413   3.786  18.913  0.8780 -0.3290 -0.3935
 3969TIP3   OH236101   5.386   0.421  18.020  0.2302  0.5609  0.7635
 3969TIP3    H136102   5.423   0.502  18.056  0.6990  1.2956 -1.2757
 3969TIP3    H236103   5.292   0.438  18.014 -0.2090 -0.3429  3.4568
 3970TIP3   OH236104   5.314   3.064  18.085  0.2472 -0.1380  0.0106
 3970TIP3    H136105   5.287   2.978  18.119  0.6092 -0.7242 -1.1500
 3970TIP3    H236106   5.261   3.126  18.135 -2.3326 -1.1746 -1.2661
 3971TIP3   OH236107   1.062   4.864  18.872  0.3879  0.1760  0.0734
 3971TIP3    H136108   0.995   4.899  18.814 -0.2448 -1.6520 -0.3590
 3971TIP3    H236109   1.094   4.785  18.827  1.2477 -0.2203  1.3149
 3972TIP3   OH236110   0.679   5.246  19.706  0.2709  0.3937 -0.1473
 3972TIP3    H136111   0.594   5.289  19.711 -0.3872 -0.7978 -0.4675
 3972TIP3    H236112   0.661   5.164  19.659  1.6928  0.3562 -0.6745
 3973TIP3   OH236113   5.038   0.645  19.943 -0.9716 -0.2862  0.0748
 3973TIP3    H136114   5.041   0.697  20.024 -1.7162 -0.7678  0.4284
 3973TIP3    H236115   5.012   0.707  19.876 -1.2067 -0.0502  0.3758
 3974TIP3   OH236116   2.195   4.021  19.833 -0.1578  0.1501 -0.5867
 3974TIP3    H136117   2.205   4.083  19.905  0.4820 -0.5443 -0.0620
 3974TIP3    H236118   2.281   4.019  19.791 -0.2172 -0.2747 -0.6891
 3975TIP3   OH236119   0.279   4.187  20.923  0.2663 -0.0731  0.2319
 3975TIP3    H136120   0.316   4.100  20.908  2.7162  0.8514  0.3745
 3975TIP3    H236121   0.300   4.207  21.014 -1.1241  0.3152  0.4895
 3976TIP3   OH236122   4.117   3.432  20.998  0.9495  0.0254 -0.4672
 3976TIP3    H136123   4.038   3.422  21.051  0.4327  0.4093 -1.1454
 3976TIP3    H236124   4.187   3.391  21.050  0.7767  1.7245  1.1899
 3977TIP3   OH236125   2.380   0.255  18.316 -0.0042 -0.3866  0.3358
 3977TIP3    H136126   2.343   0.337  18.350  3.2159  1.9404 -1.2296
 3977TIP3    H236127   2.356   0.254  18.224  0.2819 -0.9905  0.2644
 3978TIP3   OH236128   1.095   4.209  18.331  0.3118  0.1553 -0.0887
 3978TIP3    H136129   1.151   4.226  18.255  0.0781  1.8362  0.0634
 3978TIP3    H236130   1.134   4.133  18.374  1.8165  0.5940 -0.6145
 3979TIP3   OH236131   3.672   4.998  19.139 -0.1219  0.1144 -0.4776
 3979TIP3    H136132   3.656   5.039  19.223 -0.7841 -1.2133  0.0746
 3979TIP3    H236133   3.605   4.929  19.132  1.1971 -1.1606 -1.1435
 3980TIP3   OH236134   6.429   4.580  21.093 -0.6789  0.1034  0.3382
 3980TIP3    H136135   6.477   4.501  21.121 -0.9441  0.2259  1.1777
 3980TIP3    H236136   6.339   4.550  21.081 -0.6616  0.1576  0.0654
 3981TIP3   OH236137   1.323   3.535  18.524  0.0738  0.4535  0.1617
 3981TIP3    H136138   1.273   3.507  18.600  0.4107 -0.2869  0.1179
 3981TIP3    H236139   1.408   3.561  18.559  0.2644  0.0132  0.0274
 3982TIP3   OH236140   4.055   5.326  20.365  0.1899 -0.1048  0.1292
 3982TIP3    H136141   4.112   5.394  20.401  1.0327 -0.1490 -1.0530
 3982TIP3    H236142   3.979   5.325  20.423  0.1756  1.8137  0.1852
 3983TIP3   OH236143   1.343   1.772  20.209 -0.4369  0.3622  0.3715
 3983TIP3    H136144   1.329   1.858  20.171  0.2531 -0.3373 -1.6464
 3983TIP3    H236145   1.404   1.787  20.281 -1.0763  1.6613  0.6642
 3984TIP3   OH236146   5.406   0.585  20.219 -0.4446 -0.1288  0.3254
 3984TIP3    H136147   5.490   0.564  20.179  0.0698  0.2732  1.1723
 3984TIP3    H236148   5.393   0.516  20.285 -1.9637 -1.6285 -1.4379
 3985TIP3   OH236149   3.626   4.385  20.977  0.6519 -0.1939  0.3705
 3985TIP3    H136150   3.707   4.411  21.020 -1.2145  1.3997  3.3025
 3985TIP3    H236151   3.620   4.291  20.992  2.5418 -0.6031 -1.1121
 3986TIP3   OH236152   3.994   4.187  19.877 -0.5295  0.0945 -0.6137
 3986TIP3    H136153   3.939   4.262  19.852 -0.5888  0.3555  0.2502
 3986TIP3    H236154   4.079   4.226  19.899 -0.0692 -0.2799 -1.6871
 3987TIP3   OH236155   0.983   4.756  20.939  0.4925  0.4259 -0.2924
 3987TIP3    H136156   1.064   4.718  20.905  0.2441  0.8688 -1.4216
 3987TIP3    H236157   0.914   4.711  20.891  0.0547  0.0740  0.6408
 3988TIP3   OH236158   3.681   3.813  18.680  0.2499 -0.0767  0.3865
 3988TIP3    H136159   3.629   3.744  18.721  0.0538 -0.8991 -1.1727
 3988TIP3    H236160   3.693   3.879  18.749 -1.0684 -0.8407  1.3814
 3989TIP3   OH236161   1.722   0.162  20.164  0.0558  0.2587 -0.3276
 3989TIP3    H136162   1.804   0.116  20.181  0.5960  0.7271 -1.5381
 3989TIP3    H236163   1.665   0.096  20.125  0.4668  0.3424 -1.0912
 3990TIP3   OH236164   6.245   6.166  18.567  0.1097  0.2399 -0.1110
 3990TIP3    H136165   6.253   6.252  18.610 -1.3583  0.1678  0.3607
 3990TIP3    H236166   6.291   6.177  18.484  1.5161  0.9171  0.7302
 3991TIP3   OH236167   2.785   2.126  17.190 -1.0465  0.6779  1.2281
 3991TIP3    H136168   2.753   2.036  17.188 -0.6643  0.5512  0.2259
 3991TIP3    H236169   2.860   2.123  17.250  0.0741 -0.0660 -0.1666
 3992TIP3   OH236170   4.999   2.416  18.718 -0.1581 -0.1171 -0.8931
 3992TIP3    H136171   4.977   2.328  18.748 -0.2320  0.1294 -0.2212
 3992TIP3    H236172   5.087   2.431  18.750  0.8051 -0.8347 -2.9980
 3993TIP3   OH236173   4.802   6.089  20.107 -0.2238  0.1013  0.6130
 3993TIP3    H136174   4.753   6.114  20.029  0.6161 -1.8416 -0.5914
 3993TIP3    H236175   4.810   5.994  20.101  2.7192  0.2267  1.3393
 3994TIP3   OH236176   6.430   2.706  20.951 -0.1444  0.4649  0.3530
 3994TIP3    H136177   6.348   2.659  20.967 -0.0855  0.4452  0.5956
 3994TIP3    H236178   6.416   2.792  20.990 -0.1669  0.5715  0.1107
 3995TIP3   OH236179   5.757   4.523  18.381 -0.4419  0.5137 -0.4457
 3995TIP3    H136180   5.752   4.559  18.470 -0.2150 -1.1251  0.2797
 3995TIP3    H236181   5.766   4.599  18.324  0.7043  1.5573  1.0526
 3996TIP3   OH236182   3.773   1.220  17.773  0.5739 -0.3976 -0.0429
 3996TIP3    H136183   3.868   1.229  17.768  0.6468 -0.3014  1.3028
 3996TIP3    H236184   3.741   1.264  17.693  1.7240 -2.5730 -1.8203
 3997TIP3   OH236185   3.538   3.746  19.718 -0.6553 -0.4394 -0.3807
 3997TIP3    H136186   3.564   3.655  19.731 -1.1287 -0.6182 -0.6464
 3997TIP3    H236187   3.487   3.745  19.637 -0.8394  0.0265 -0.2726
 3998TIP3   OH236188   4.624   4.145  18.616  0.3788 -0.2383 -0.3731
 3998TIP3    H136189   4.707   4.104  18.641  0.8291  1.3436  0.8295
 3998TIP3    H236190   4.586   4.174  18.698 -1.7429 -1.5278 -0.8358
 3999TIP3   OH236191   3.669   5.486  20.915 -0.3687  0.5892 -0.4087
 3999TIP3    H136192   3.601   5.450  20.972  0.8336 -0.0960  0.6513
 3999TIP3    H236193   3.631   5.482  20.827 -1.4402 -0.4180  0.0699
 4000TIP3   OH236194   3.909   3.772  20.615  0.1089  0.3423 -0.6078
 4000TIP3    H136195   3.869   3.852  20.580 -0.6281 -0.1453 -0.9020
 4000TIP3    H236196   3.840   3.732  20.668  1.3049  1.2371  1.7704
 4001TIP3   OH236197   3.795   2.647  17.639  0.2712 -0.2496 -0.4420
 4001TIP3    H136198   3.711   2.645  17.593 -1.5848  0.3989  2.6144
 4001TIP3    H236199   3.837   2.728  17.609 -0.3830 -0.3593 -1.6936
 4002TIP3   OH236200   1.471   2.292  21.090 -1.0049  0.2401  0.3274
 4002TIP3    H136201   1.399   2.350  21.113 -0.1634  1.7446 -0.6634
 4002TIP3    H236202   1.540   2.350  21.058  0.9199 -1.0852  1.8040
 4003TIP3   OH236203   2.424   0.950  18.663 -0.0071  0.1697  0.0174
 4003TIP3    H136204   2.485   1.022  18.643  0.2109 -0.4941 -2.0010
 4003TIP3    H236205   2.472   0.871  18.637 -0.2670 -0.7336  2.1398
 4004TIP3   OH236206   5.493   0.969  19.640  0.2847  0.5707 -0.4675
 4004TIP3    H136207   5.407   1.011  19.631 -0.2542  0.0027  1.4856
 4004TIP3    H236208   5.524   0.995  19.727  0.6048 -1.7882  0.2005
 4005TIP3   OH236209   3.927   4.992  20.232 -0.3267 -0.3315 -0.5755
 4005TIP3    H136210   3.862   4.941  20.184 -1.5740  0.1766  0.5209
 4005TIP3    H236211   3.985   4.927  20.271 -0.3626 -0.8057 -1.3032
 4006TIP3   OH236212   2.892   1.447  18.203 -0.0517 -1.0315 -0.0954
 4006TIP3    H136213   2.919   1.441  18.294  0.7113 -1.2617 -0.3300
 4006TIP3    H236214   2.817   1.387  18.196 -0.2274 -0.8754  0.4122
 4007TIP3   OH236215   5.634   4.608  20.445 -0.1762 -0.3936  0.0409
 4007TIP3    H136216   5.555   4.597  20.391 -0.0601 -2.3115  0.2030
 4007TIP3    H236217   5.602   4.640  20.529 -0.4284  1.9286 -0.8480
 4008TIP3   OH236218   4.615   5.885  18.694 -0.3903  0.0485 -0.2041
 4008TIP3    H136219   4.660   5.952  18.746  0.3955  0.2392 -1.0960
 4008TIP3    H236220   4.531   5.873  18.738  0.3586 -0.0173  1.2695
 4009TIP3   OH236221   2.635   5.144  19.429 -0.1748  0.2386  0.8553
 4009TIP3    H136222   2.585   5.125  19.509 -2.9597  1.7521 -0.3710
 4009TIP3    H236223   2.663   5.234  19.439 -1.3765  0.7643 -0.1966
 4010TIP3   OH236224   1.021   5.722  20.097 -0.5297  0.4128  0.4075
 4010TIP3    H136225   1.069   5.640  20.092 -1.7612 -0.2955 -0.1818
 4010TIP3    H236226   1.088   5.788  20.112  0.4794 -0.7001  0.9753
 4011TIP3   OH236227   0.022   0.923  18.685 -0.2436  0.4049  0.4346
 4011TIP3    H136228  -0.070   0.910  18.708 -0.3295 -0.2018 -0.2164
 4011TIP3    H236229   0.042   1.012  18.716 -1.1358  0.6681  0.2874
 4012TIP3   OH236230   0.186   1.517  20.645  0.3910 -0.1056  0.3324
 4012TIP3    H136231   0.273   1.476  20.654  0.7678  0.8960  1.6101
 4012TIP3    H236232   0.125   1.443  20.641  1.3883 -0.8800 -2.2934
 4013TIP3   OH236233   4.448   4.090  19.814 -0.0276 -0.2913 -0.1504
 4013TIP3    H136234   4.516   4.155  19.832  0.4265 -1.0647  1.0592
 4013TIP3    H236235   4.369   4.128  19.854 -0.2040  0.3363 -1.0490
 4014TIP3   OH236236   3.287   2.718  19.099 -0.0884 -0.6903  0.3458
 4014TIP3    H136237   3.212   2.768  19.131  0.5017 -1.2605  2.8088
 4014TIP3    H236238   3.358   2.782  19.093 -0.6311 -0.1892 -1.8148
 4015TIP3   OH236239   0.569   6.026  20.293  0.2219  0.3284 -0.1380
 4015TIP3    H136240   0.558   6.094  20.359  1.2395  1.4519 -1.0807
 4015TIP3    H236241   0.626   5.961  20.334 -0.9745 -0.1249  0.8689
 4016TIP3   OH236242   5.088   0.798  18.178 -0.0728 -0.1580  0.2805
 4016TIP3    H136243   5.112   0.734  18.245  1.0139 -0.0568  0.0108
 4016TIP3    H236244   5.026   0.752  18.122 -1.9686  0.1433  2.0115
 4017TIP3   OH236245   0.957   2.212  20.276  0.1300 -0.2821  0.1831
 4017TIP3    H136246   0.982   2.127  20.240  0.2047  0.4841 -1.6504
 4017TIP3    H236247   0.899   2.251  20.210  1.3711  1.7521  0.2122
 4018TIP3   OH236248   6.175   1.966  18.510 -0.2366  0.2386  0.3354
 4018TIP3    H136249   6.247   1.989  18.569  0.5639 -0.0507 -0.5065
 4018TIP3    H236250   6.192   2.018  18.431  0.0566 -1.1568 -0.5502
 4019TIP3   OH236251   2.298   2.615  18.310 -0.3065 -0.6566 -0.1761
 4019TIP3    H136252   2.236   2.688  18.308 -0.1348 -0.4660 -3.1757
 4019TIP3    H236253   2.257   2.547  18.256 -0.7258 -3.1170  2.9861
 4020TIP3   OH236254   2.110   3.262  18.852 -0.3241 -0.0465  0.4746
 4020TIP3    H136255   2.066   3.250  18.936  0.4015 -1.8752  0.6405
 4020TIP3    H236256   2.200   3.282  18.875  0.0986 -1.5153  0.1506
 4021TIP3   OH236257   1.118   4.544  20.052  0.5887  0.6543 -0.0168
 4021TIP3    H136258   1.073   4.459  20.055  1.6641  0.0633  0.2010
 4021TIP3    H236259   1.211   4.521  20.051  1.0111  1.8508  2.6613
 4022TIP3   OH236260   2.059   4.760  19.127 -0.1550  0.5732  0.1488
 4022TIP3    H136261   2.074   4.834  19.187 -2.8315  3.1801 -2.1092
 4022TIP3    H236262   2.027   4.800  19.047  0.5415 -2.9667 -2.1279
 4023TIP3   OH236263   1.336   5.814  19.609  0.5426  0.1064 -0.0042
 4023TIP3    H136264   1.421   5.822  19.653  1.0781  0.0905 -0.9928
 4023TIP3    H236265   1.276   5.786  19.677  1.6035 -1.1710  0.4414
 4024TIP3   OH236266   1.508   3.679  20.151  0.4528 -0.3516  0.8367
 4024TIP3    H136267   1.424   3.721  20.135  0.2327 -1.0241  0.1645
 4024TIP3    H236268   1.568   3.752  20.167  0.1492  0.2626 -0.6348
 4025TIP3   OH236269   2.511   3.064  21.208  0.2707 -0.1515  0.0690
 4025TIP3    H136270   2.460   2.985  21.192  0.5980 -0.1122 -1.2683
 4025TIP3    H236271   2.492   3.087  21.299 -0.3019 -1.4185  0.2868
 4026TIP3   OH236272   3.413   6.149  18.677  0.4276  0.4975 -0.7112
 4026TIP3    H136273   3.468   6.093  18.732  0.0227  0.1534 -0.6522
 4026TIP3    H236274   3.383   6.092  18.606 -0.4137  0.4952 -0.3666
 4027TIP3   OH236275   2.474   1.431  19.889  0.2681 -0.9529 -0.7708
 4027TIP3    H136276   2.403   1.406  19.948  1.0425 -1.8756 -0.2109
 4027TIP3    H236277   2.463   1.373  19.813 -1.4739  1.0529 -2.1686
 4028TIP3   OH236278   6.375   5.595  19.432 -0.2478 -0.1037 -0.5528
 4028TIP3    H136279   6.326   5.514  19.420 -0.2027 -0.1890 -0.1851
 4028TIP3    H236280   6.311   5.664  19.421 -0.6162 -0.2303  0.6248
 4029TIP3   OH236281   0.703   2.783  18.541  0.5138  0.0955 -0.4853
 4029TIP3    H136282   0.609   2.784  18.522  0.0778 -1.3373  1.2645
 4029TIP3    H236283   0.720   2.868  18.581 -0.0995  0.2879 -0.6218
 4030TIP3   OH236284   5.094   4.933  20.843 -0.1670 -0.2872 -0.1993
 4030TIP3    H136285   5.081   5.015  20.892 -0.3943 -0.2870 -0.2581
 4030TIP3    H236286   5.006   4.899  20.832  0.0693 -1.9778  2.2595
 4031TIP3   OH236287   5.090   1.598  20.659 -0.1275 -0.0250  0.5107
 4031TIP3    H136288   5.091   1.514  20.612  0.2862 -0.1015  0.6477
 4031TIP3    H236289   4.998   1.624  20.660 -0.3733 -0.8550  1.1287
 4032TIP3   OH236290   3.773   4.361  18.856 -0.3717 -0.4096  0.4983
 4032TIP3    H136291   3.806   4.329  18.772 -0.5156 -1.3249  0.7758
 4032TIP3    H236292   3.699   4.303  18.876  0.3422 -0.9150  1.7791
 4033TIP3   OH236293   1.911   1.777  18.598 -0.0356  0.0206  0.3431
 4033TIP3    H136294   1.878   1.809  18.682  1.4367 -1.5948  1.6280
 4033TIP3    H236295   1.973   1.844  18.570 -1.0746  0.9234  0.1530
 4034TIP3   OH236296   4.965   6.319  20.161  0.5132 -0.5115  0.1244
 4034TIP3    H136297   4.972   6.401  20.209  1.3285 -0.0418 -0.7663
 4034TIP3    H236298   4.948   6.253  20.229  0.0961  0.3431  0.8698
 4035TIP3   OH236299   5.679   5.218  19.599  0.1485 -0.2059  0.1982
 4035TIP3    H136300   5.749   5.179  19.651  0.6943 -1.0232 -1.1102
 4035TIP3    H236301   5.719   5.297  19.561  0.5523 -0.9537 -0.9718
 4036TIP3   OH236302   5.700   4.478  19.347 -0.5008 -0.1217  0.2715
 4036TIP3    H136303   5.672   4.505  19.259 -0.1578  1.7131  0.6886
 4036TIP3    H236304   5.767   4.412  19.331 -0.8101 -0.1929 -0.8379
 4037TIP3   OH236305   5.980   1.176  20.265  0.3564 -0.2980 -0.5404
 4037TIP3    H136306   5.972   1.271  20.258  1.4424 -0.2665 -1.7570
 4037TIP3    H236307   5.890   1.145  20.279 -0.3039  0.7594 -2.1567
 4038TIP3   OH236308   5.441   6.206  19.275 -0.8341 -0.3232  0.0997
 4038TIP3    H136309   5.351   6.189  19.303 -0.3387 -1.1298  1.3029
 4038TIP3    H236310   5.452   6.153  19.196 -1.4611 -0.1104 -0.1325
 4039TIP3   OH236311   6.011   0.504  20.280 -0.2413 -0.1908  0.0509
 4039TIP3    H136312   6.103   0.517  20.254 -0.3011  0.4320  0.1230
 4039TIP3    H236313   5.989   0.417  20.249  1.1678 -1.4394  2.2624
 4040TIP3   OH236314   5.117   2.653  19.211  0.0149 -0.6961  0.1435
 4040TIP3    H136315   5.037   2.618  19.172  0.4114 -1.2188 -0.2132
 4040TIP3    H236316   5.107   2.637  19.305 -1.5472  1.7718  0.4776
 4041TIP3   OH236317   1.347   0.007  21.124  0.0443  0.0302  0.0471
 4041TIP3    H136318   1.275   0.009  21.060 -0.0987  0.2079  0.2136
 4041TIP3    H236319   1.422   0.043  21.075  0.1933 -0.7723 -0.3294
 4042TIP3   OH236320   2.777   6.603  18.566 -0.2519  0.1422  0.0596
 4042TIP3    H136321   2.748   6.604  18.475  1.5736 -1.5393 -0.6255
 4042TIP3    H236322   2.845   6.670  18.570 -1.8366  1.7883  0.8252
 4043TIP3   OH236323   1.153   6.529  20.396  0.2464 -0.7874  0.4193
 4043TIP3    H136324   1.093   6.455  20.407  0.1988 -0.8701 -0.3961
 4043TIP3    H236325   1.115   6.597  20.451 -1.2773 -0.4459 -0.9737
 4044TIP3   OH236326   2.571   1.926  19.463  0.4650 -0.1352  0.1827
 4044TIP3    H136327   2.663   1.902  19.449  0.1639 -0.4038 -1.6279
 4044TIP3    H236328   2.575   2.001  19.523  1.8233 -0.4629  0.5451
 4045TIP3   OH236329   0.245   0.484  20.215 -0.3047 -0.2177  0.3971
 4045TIP3    H136330   0.251   0.479  20.119  0.6944 -1.1454  0.4892
 4045TIP3    H236331   0.225   0.576  20.232  0.5159  0.1877 -0.6740
 4046TIP3   OH236332   2.284   4.108  20.570  0.5653  0.4720 -0.4074
 4046TIP3    H136333   2.342   4.179  20.599  0.4634  0.3620  0.0786
 4046TIP3    H236334   2.297   4.039  20.635  1.2451 -0.2663 -1.3090
 4047TIP3   OH236335   2.734   0.675  18.277 -0.2174  0.4035  0.1094
 4047TIP3    H136336   2.690   0.657  18.194  0.0560  0.2308  0.0029
 4047TIP3    H236337   2.697   0.759  18.306  1.1016  1.4548 -1.1421
 4048TIP3   OH236338   6.390   3.477  20.648 -0.2223 -0.3035 -0.0246
 4048TIP3    H136339   6.437   3.502  20.569  0.6584 -0.0839  0.5629
 4048TIP3    H236340   6.458   3.452  20.710 -0.7004  1.8057  1.4698
 4049TIP3   OH236341   3.545   5.145  18.434 -0.2041  0.0779  0.0804
 4049TIP3    H136342   3.478   5.210  18.457 -0.9947 -0.7795  0.2329
 4049TIP3    H236343   3.503   5.088  18.370  0.6251 -0.0466 -0.3755
 4050TIP3   OH236344   3.711   2.675  18.307 -0.1165  0.1909 -0.1147
 4050TIP3    H136345   3.617   2.658  18.297 -0.2385  1.2308 -0.8105
 4050TIP3    H236346   3.743   2.688  18.218  1.1201 -2.1878 -0.0779
 4051TIP3   OH236347   1.419   2.244  18.201 -0.4834  0.2007 -0.5543
 4051TIP3    H136348   1.458   2.159  18.219 -0.9962 -0.5559 -2.7912
 4051TIP3    H236349   1.330   2.226  18.173 -0.9734  1.5679  0.0113
 4052TIP3   OH236350   4.684   5.278  19.551  0.2004  0.1127  0.0861
 4052TIP3    H136351   4.671   5.289  19.646 -1.3747  1.0539 -0.1957
 4052TIP3    H236352   4.679   5.367  19.516 -0.0244 -0.2973 -0.9644
 4053TIP3   OH236353   1.176   1.887  18.138  0.3067  0.2235  0.2817
 4053TIP3    H136354   1.115   1.819  18.165  0.2458  0.5161  0.9164
 4053TIP3    H236355   1.226   1.848  18.067  1.0498 -0.8927  1.3695
 4054TIP3   OH236356   0.731   5.230  20.968  0.1887 -0.0364 -0.8221
 4054TIP3    H136357   0.758   5.212  21.058 -0.8379 -0.4555 -0.5736
 4054TIP3    H236358   0.735   5.145  20.924 -3.2154 -0.7703 -0.0474
 4055TIP3   OH236359   5.595   6.243  19.784  0.4181  0.3496  0.2407
 4055TIP3    H136360   5.600   6.212  19.693 -0.2147 -4.0395  1.4862
 4055TIP3    H236361   5.503   6.236  19.807  0.8858 -0.9161  1.8780
 4056TIP3   OH236362   1.558   1.605  20.970 -0.4354  0.3813 -0.1888
 4056TIP3    H136363   1.603   1.621  21.053 -1.6975 -0.2815  0.6652
 4056TIP3    H236364   1.569   1.511  20.955 -1.1013  0.3047 -0.2201
 4057TIP3   OH236365   3.466   5.637  18.000  0.0946 -0.7567  0.0658
 4057TIP3    H136366   3.554   5.665  18.023 -0.4831 -0.2113  1.7447
 4057TIP3    H236367   3.458   5.549  18.036 -0.4456 -0.3236  1.0431
 4058TIP3   OH236368   4.526   3.706  20.724  0.2515 -0.4939  0.1446
 4058TIP3    H136369   4.502   3.762  20.798  0.7644 -0.0037 -0.0476
 4058TIP3    H236370   4.609   3.666  20.750  0.5196 -0.1904 -0.2217
 4059TIP3   OH236371   3.889   4.482  19.789  0.1644  0.3177 -0.0780
 4059TIP3    H136372   3.938   4.439  19.719 -0.2983  0.8762 -0.7699
 4059TIP3    H236373   3.939   4.562  19.807  0.5425 -0.0581  0.5792
 4060TIP3   OH236374   3.946   2.929  19.209 -0.0801  0.6225 -0.1695
 4060TIP3    H136375   3.899   2.851  19.180  2.2579 -0.8626 -0.2362
 4060TIP3    H236376   3.925   2.936  19.303  0.1164 -0.4221 -0.0367
 4061TIP3   OH236377   5.618   3.699  19.812  0.0111 -0.1990  0.2111
 4061TIP3    H136378   5.592   3.622  19.862 -0.7998  0.1499  0.3498
 4061TIP3    H236379   5.645   3.763  19.879 -0.0066 -0.1200  0.1432
 4062TIP3   OH236380   5.188   2.355  19.154  0.4217  0.3294  0.2879
 4062TIP3    H136381   5.177   2.262  19.173  0.6740 -0.0098 -1.1419
 4062TIP3    H236382   5.101   2.392  19.168  0.4116 -0.0266  1.2779
 4063TIP3   OH236383   4.630   2.733  17.977 -0.3959  0.2250 -0.2811
 4063TIP3    H136384   4.648   2.747  18.070  0.3756  0.1299 -0.4080
 4063TIP3    H236385   4.554   2.675  17.976  0.2370 -0.6545  0.3093
 4064TIP3   OH236386   3.696   1.306  17.512  0.2752  0.2394  0.0914
 4064TIP3    H136387   3.692   1.343  17.424 -1.9784  0.9070  0.4015
 4064TIP3    H236388   3.758   1.234  17.505  1.2385  1.1557 -1.6763
 4065TIP3   OH236389   0.223   3.352  18.471  0.3659  0.0073  0.1392
 4065TIP3    H136390   0.201   3.259  18.464 -2.2607  0.6600 -4.4104
 4065TIP3    H236391   0.262   3.374  18.386  0.1733  3.2021  0.7598
 4066TIP3   OH236392   6.643   2.602  20.811 -0.1731 -0.3234  0.1009
 4066TIP3    H136393   6.580   2.641  20.872 -0.2207 -1.4177  0.7706
 4066TIP3    H236394   6.724   2.651  20.826  0.0393 -1.1048  1.6524
 4067TIP3   OH236395   2.313   0.998  20.597 -0.9547 -0.0019  0.1940
 4067TIP3    H136396   2.233   1.049  20.609 -0.8949 -0.1371  1.2171
 4067TIP3    H236397   2.301   0.955  20.512 -1.1904  1.3509 -0.5003
 4068TIP3   OH236398   2.609   3.100  18.346 -0.2646 -0.7971  0.2329
 4068TIP3    H136399   2.553   3.174  18.323  0.3323 -0.0787  1.0270
 4068TIP3    H236400   2.619   3.051  18.264 -0.3622  0.2051 -0.3930
 4069TIP3   OH236401   1.493   5.708  20.744  0.3960 -0.0257  0.0700
 4069TIP3    H136402   1.499   5.719  20.839  3.1409  0.8260 -0.1103
 4069TIP3    H236403   1.466   5.794  20.711  1.1048  0.1712 -0.0109
 4070TIP3   OH236404   4.155   3.338  20.572  1.2728 -0.4010 -0.1109
 4070TIP3    H136405   4.195   3.380  20.647  1.8262 -0.1442 -0.5412
 4070TIP3    H236406   4.109   3.408  20.526 -0.8466 -0.9039  1.0768
 4071TIP3   OH236407   3.947   3.225  19.326  0.0349 -0.3665  0.1150
 4071TIP3    H136408   3.941   3.176  19.408 -0.2983 -0.8671 -0.1978
 4071TIP3    H236409   4.040   3.222  19.303  0.5293  1.7146  1.6138
 4072TIP3   OH236410   0.728   3.827  19.969  0.3238 -0.0050 -0.5221
 4072TIP3    H136411   0.697   3.762  19.906 -0.9022  0.6317 -0.6216
 4072TIP3    H236412   0.665   3.821  20.041  1.4951 -0.4646  0.4831
 4073TIP3   OH236413   2.616   3.039  17.901 -0.6234  0.0202  0.0157
 4073TIP3    H136414   2.616   3.120  17.851 -0.6097 -0.5892 -1.0065
 4073TIP3    H236415   2.599   2.971  17.835  0.0410 -0.8635  0.7446
 4074TIP3   OH236416   1.976   4.128  18.979  0.2728 -0.1112  0.2260
 4074TIP3    H136417   1.964   4.132  18.884 -0.4139 -0.9827  0.2603
 4074TIP3    H236418   1.925   4.052  19.006 -0.5364  0.8367  1.4512
 4075TIP3   OH236419   3.870   6.278  19.721 -0.3801  0.1689 -0.7344
 4075TIP3    H136420   3.810   6.351  19.705  0.0375  0.5276 -0.6841
 4075TIP3    H236421   3.942   6.293  19.660 -1.4841 -1.6156 -2.6109
 4076TIP3   OH236422   3.519   2.625  19.692 -0.5584 -0.4316  0.1172
 4076TIP3    H136423   3.497   2.634  19.600  1.4221  0.0780 -0.3588
 4076TIP3    H236424   3.435   2.625  19.737 -1.5435 -0.0754 -1.6305
 4077TIP3   OH236425   2.531   0.474  17.532  0.5991  0.2054  0.4293
 4077TIP3    H136426   2.544   0.395  17.584  0.5345  0.1463  0.3564
 4077TIP3    H236427   2.475   0.529  17.586  1.4138  0.6009  0.8959
 4078TIP3   OH236428   3.197   3.405  18.458 -0.0500 -0.0226 -0.2817
 4078TIP3    H136429   3.133   3.355  18.509  0.4238 -0.9882 -0.6078
 4078TIP3    H236430   3.260   3.437  18.523  1.6996 -2.9274 -0.3407
 4079TIP3   OH236431   4.592   1.990  19.359 -0.4196  0.1321 -0.0010
 4079TIP3    H136432   4.591   1.986  19.263  1.3710 -2.6404 -0.0118
 4079TIP3    H236433   4.676   1.952  19.384 -0.5446  1.3971  2.6927
 4080TIP3   OH236434   6.080   1.154  19.782 -0.1264 -0.1391 -0.4209
 4080TIP3    H136435   6.145   1.178  19.716  1.6882 -1.1139  0.9213
 4080TIP3    H236436   6.010   1.218  19.771  0.7681  0.5860 -2.3248
 4081TIP3   OH236437   6.011   5.930  19.653  0.3310  0.6447  0.8082
 4081TIP3    H136438   5.969   6.011  19.682 -1.2173  0.2414 -0.1666
 4081TIP3    H236439   5.955   5.860  19.686  0.6316  0.0478  0.0946
 4082TIP3   OH236440   0.570   3.543  18.713 -0.1528  0.3889  0.1282
 4082TIP3    H136441   0.658   3.563  18.684 -0.4810  0.1979 -1.0329
 4082TIP3    H236442   0.513   3.572  18.641 -0.9025 -1.1734  0.0486
 4083TIP3   OH236443   3.433   2.931  18.477 -0.4455 -0.0965  0.0066
 4083TIP3    H136444   3.528   2.922  18.465 -0.3221 -0.0491  0.8611
 4083TIP3    H236445   3.406   2.846  18.511 -0.4229  0.4025  1.3531
 4084TIP3   OH236446   5.065   5.248  20.432  0.0616 -0.2073  0.5099
 4084TIP3    H136447   5.122   5.305  20.483 -0.2601  0.2152  0.3956
 4084TIP3    H236448   5.076   5.277  20.342  0.8172 -1.1144  0.2929
 4085TIP3   OH236449   2.762   2.536  19.637 -0.0591  0.5590  0.2042
 4085TIP3    H136450   2.787   2.614  19.588 -2.0351  0.4241 -1.1157
 4085TIP3    H236451   2.674   2.555  19.668  0.1356 -0.4504  1.4469
 4086TIP3   OH236452   5.025   3.398  19.597  0.3782  0.3032  0.5208
 4086TIP3    H136453   4.971   3.321  19.577 -0.3950  1.3439 -1.8954
 4086TIP3    H236454   4.966   3.457  19.645 -0.2302  0.8116 -0.7863
 4087TIP3   OH236455   5.740   6.129  17.817 -0.4260 -0.1898  0.2675
 4087TIP3    H136456   5.744   6.192  17.888  0.5229  0.2970 -0.1957
 4087TIP3    H236457   5.684   6.170  17.751 -0.9599 -0.4571  0.5475
 4088TIP3   OH236458   1.778   4.767  20.521  0.4366 -0.4147 -0.2371
 4088TIP3    H136459   1.714   4.838  20.530  0.3268 -0.5967  0.5124
 4088TIP3    H236460   1.730   4.688  20.545  1.0247 -0.5147  0.6462
 4089TIP3   OH236461   0.038   3.140  20.358  0.4004 -0.2919  0.3403
 4089TIP3    H136462   0.090   3.075  20.309  0.8244 -0.9005  1.5644
 4089TIP3    H236463   0.084   3.150  20.441 -0.3593  0.6657  0.6674
 4090TIP3   OH236464   2.891   1.309  19.586 -0.3479 -0.1904 -0.0642
 4090TIP3    H136465   2.890   1.400  19.615 -1.1139 -0.0672 -0.4422
 4090TIP3    H236466   2.848   1.261  19.656  1.5458 -0.5480  0.9366
 4091TIP3   OH236467   6.407   3.806  18.869 -0.3308 -0.1681  0.0812
 4091TIP3    H136468   6.358   3.847  18.940  0.4320  1.0204 -0.0412
 4091TIP3    H236469   6.364   3.838  18.789  1.7745  2.6413 -0.1193
 4092TIP3   OH236470   6.119   3.795  18.934 -0.2316 -0.2879  0.1599
 4092TIP3    H136471   6.154   3.844  18.860  0.9404 -0.0521  0.8534
 4092TIP3    H236472   6.171   3.824  19.009 -1.1007 -0.8510  1.0013
 4093TIP3   OH236473   6.101   3.394  18.430  0.6024 -0.2811  0.4710
 4093TIP3    H136474   6.155   3.394  18.351 -0.7246 -0.9880 -0.4709
 4093TIP3    H236475   6.129   3.472  18.478 -0.7393  2.0485 -2.2362
 4094TIP3   OH236476   6.018   0.587  18.544  0.4660 -0.0332  0.0394
 4094TIP3    H136477   5.924   0.570  18.538  0.7758 -1.5094 -1.6516
 4094TIP3    H236478   6.029   0.637  18.625 -1.6642 -0.5707  0.7155
 4095TIP3   OH236479   5.395   2.634  18.496  0.3027  0.0383  0.1551
 4095TIP3    H136480   5.392   2.625  18.592  2.0826  0.3102  0.2832
 4095TIP3    H236481   5.374   2.725  18.480  1.2426  0.3201  0.4202
 4096TIP3   OH236482   4.834   1.581  19.195  0.4526  0.0651 -0.1430
 4096TIP3    H136483   4.794   1.497  19.171  0.0595 -0.0993  1.0135
 4096TIP3    H236484   4.784   1.610  19.271  1.1111  0.9599 -0.0388
 4097TIP3   OH236485   3.057   0.992  19.564  0.0419 -0.7811 -0.2673
 4097TIP3    H136486   3.046   1.066  19.505  0.7149 -0.2748  0.2325
 4097TIP3    H236487   2.969   0.975  19.597 -0.3575 -1.1172 -1.4452
 4098TIP3   OH236488   5.073   1.835  18.225 -0.3797  0.2828  0.1164
 4098TIP3    H136489   5.148   1.886  18.195 -1.3632  1.6174 -0.1713
 4098TIP3    H236490   5.027   1.893  18.285 -1.2654 -0.4430  0.1641
 4099TIP3   OH236491   1.370   3.945  20.412  0.5121 -0.1029 -0.1741
 4099TIP3    H136492   1.308   3.980  20.349 -1.4560 -0.0652  1.6684
 4099TIP3    H236493   1.349   3.851  20.418  1.0714 -0.2239 -0.0053
 4100TIP3   OH236494   2.166   1.394  21.192  0.3569  0.3539  0.0800
 4100TIP3    H136495   2.156   1.488  21.176 -0.9043  0.2141 -0.0720
 4100TIP3    H236496   2.118   1.352  21.120  1.3865 -0.4301 -0.1799
 4101TIP3   OH236497   4.182   3.579  20.759  0.0940 -0.2948 -0.3623
 4101TIP3    H136498   4.161   3.522  20.833 -1.3547 -1.4721 -1.6031
 4101TIP3    H236499   4.131   3.658  20.774  0.1551 -0.3438  0.1105
 4102TIP3   OH236500   6.464   4.217  18.318 -0.1620 -0.2221 -0.9160
 4102TIP3    H136501   6.545   4.217  18.267 -0.6065  0.7025 -1.6557
 4102TIP3    H236502   6.458   4.305  18.354 -0.7869 -0.3163 -0.7787
 4103TIP3   OH236503   6.416   1.623  19.719  0.4690 -0.4014  0.3402
 4103TIP3    H136504   6.372   1.675  19.786  0.3614 -0.3685  0.2456
 4103TIP3    H236505   6.509   1.635  19.737  0.4778  0.8375 -0.4573
 4104TIP3   OH236506   1.424   4.849  19.138 -0.3806  0.0847  0.1771
 4104TIP3    H136507   1.429   4.869  19.044 -0.7827 -0.7624 -0.0411
 4104TIP3    H236508   1.391   4.759  19.141 -0.2978  0.0768  1.1349
 4105TIP3   OH236509   5.523   3.378  19.623  0.0957 -0.4513  0.2377
 4105TIP3    H136510   5.524   3.422  19.708  2.6404 -2.2620  1.2835
 4105TIP3    H236511   5.469   3.300  19.637  1.9529 -1.7025  0.8409
 4106TIP3   OH236512   1.422   3.414  20.104  0.3639  0.6889  0.6188
 4106TIP3    H136513   1.443   3.507  20.098 -1.0477  1.1307  2.0616
 4106TIP3    H236514   1.465   3.384  20.183  1.8372 -0.2191 -0.4773
 4107TIP3   OH236515   4.182   0.638  18.905  0.4812  0.3251  0.2768
 4107TIP3    H136516   4.195   0.616  18.813 -0.8092  0.2471  0.1013
 4107TIP3    H236517   4.143   0.560  18.943  1.7989  0.0332  1.1112
 4108TIP3   OH236518   5.971   6.632  20.216  0.2558 -0.5054  0.0673
 4108TIP3    H136519   5.911   6.677  20.275 -1.1762  0.2405 -1.8705
 4108TIP3    H236520   6.022   6.574  20.273 -0.4223  0.8316  2.1269
 4109TIP3   OH236521   3.852   2.391  20.486  0.3537 -0.0469 -0.5291
 4109TIP3    H136522   3.779   2.359  20.538 -0.6164 -0.3610 -2.0387
 4109TIP3    H236523   3.929   2.349  20.525 -0.2111  0.4046  1.1672
 4110TIP3   OH236524   3.889   4.551  20.760  0.3144 -0.9491 -0.3419
 4110TIP3    H136525   3.939   4.471  20.775 -0.7284 -1.3695  1.0834
 4110TIP3    H236526   3.800   4.529  20.786  0.3030  1.1119  1.6339
 4111TIP3   OH236527   3.509   3.349  19.705 -0.2173  0.5672 -0.2457
 4111TIP3    H136528   3.470   3.353  19.793 -0.9716  2.7608 -0.6332
 4111TIP3    H236529   3.574   3.419  19.705  0.9299 -0.4775 -0.9350
 4112TIP3   OH236530   2.720   0.525  19.928  0.1198  0.0881  0.2302
 4112TIP3    H136531   2.802   0.572  19.944  0.3476 -0.0337 -0.5421
 4112TIP3    H236532   2.737   0.473  19.850 -0.3924 -0.6690  0.6035
 4113TIP3   OH236533   5.436   2.222  20.224  0.5670  0.2926  0.2155
 4113TIP3    H136534   5.441   2.285  20.152  2.3464  1.4970  1.2867
 4113TIP3    H236535   5.511   2.164  20.210 -1.8042 -2.6538 -1.5456
 4114TIP3   OH236536   1.842   5.221  19.249 -0.0675 -0.2820 -0.3335
 4114TIP3    H136537   1.907   5.246  19.184  0.1120 -0.4611 -0.2246
 4114TIP3    H236538   1.852   5.126  19.259  1.3996 -0.0029  1.5036
 4115TIP3   OH236539   1.187   1.893  18.931 -0.1389  0.1175 -0.2954
 4115TIP3    H136540   1.280   1.915  18.923  0.0461 -0.4028  0.3659
 4115TIP3    H236541   1.164   1.860  18.844  0.3590  0.0085 -0.3913
 4116TIP3   OH236542   6.327   4.433  19.511  0.3718  0.5235  0.3148
 4116TIP3    H136543   6.391   4.503  19.520  0.9827  0.3646 -2.1865
 4116TIP3    H236544   6.378   4.352  19.516 -0.0881  0.2745  1.3615
 4117TIP3   OH236545   4.917   3.507  19.231  0.2363  0.2183 -0.2549
 4117TIP3    H136546   4.986   3.448  19.201  0.9017  0.1898  1.2662
 4117TIP3    H236547   4.836   3.467  19.199  0.7410 -1.0966  0.0717
 4118TIP3   OH236548   1.919   5.120  19.933 -0.2005  0.1233 -0.3957
 4118TIP3    H136549   1.920   5.133  20.028 -0.4295  0.3163 -0.4183
 4118TIP3    H236550   1.836   5.075  19.917  0.6906 -1.6820 -0.2784
 4119TIP3   OH236551   5.499   6.278  20.114 -0.7870 -0.3451 -0.0657
 4119TIP3    H136552   5.495   6.226  20.034  0.4417 -0.7077  0.0842
 4119TIP3    H236553   5.499   6.369  20.084 -0.3695 -0.4779 -0.4763
 4120TIP3   OH236554   2.475   6.093  19.496 -0.1246 -0.0367 -0.3461
 4120TIP3    H136555   2.506   6.003  19.483 -1.3533 -0.4209 -0.7871
 4120TIP3    H236556   2.555   6.146  19.497  0.6318 -1.1320  0.0190
 4121TIP3   OH236557   3.738   4.026  19.181 -0.1339 -0.1496  0.1345
 4121TIP3    H136558   3.778   3.953  19.134 -0.9748 -0.1531 -0.6020
 4121TIP3    H236559   3.671   3.985  19.236 -0.1821 -0.0007  0.1861
 4122TIP3   OH236560   1.581   2.388  19.556  0.1422 -0.9986 -0.1661
 4122TIP3    H136561   1.674   2.401  19.579  0.1752  0.4447 -1.0158
 4122TIP3    H236562   1.533   2.436  19.624 -0.0352 -2.2851  0.6487
 4123TIP3   OH236563   0.018   5.297  17.959  0.4029  0.3405 -0.1798
 4123TIP3    H136564   0.016   5.387  17.990 -0.1783  1.0117 -2.0366
 4123TIP3    H236565   0.112   5.274  17.959  0.7391  1.5927 -1.3718
 4124TIP3   OH236566   4.564   6.070  19.499 -0.3632  0.2499  0.5010
 4124TIP3    H136567   4.613   6.101  19.575  1.1733  0.5317 -0.5642
 4124TIP3    H236568   4.478   6.112  19.507 -0.2481  0.2635  2.0671
 4125TIP3   OH236569   0.987   2.322  18.707 -0.5705 -0.2266 -0.4463
 4125TIP3    H136570   0.982   2.368  18.623 -1.2322 -0.1783 -0.3840
 4125TIP3    H236571   1.077   2.288  18.710 -0.3918  0.1829 -0.9547
 4126TIP3   OH236572   6.641   5.273  21.131  0.6980  0.3616  0.0351
 4126TIP3    H136573   6.711   5.303  21.188  0.2146 -0.6585  1.2126
 4126TIP3    H236574   6.603   5.198  21.177 -0.4356  0.2039 -1.1008
 4127TIP3   OH236575   3.852   6.390  18.136  0.1959  0.0506  0.1056
 4127TIP3    H136576   3.829   6.482  18.132 -0.0569 -0.0361 -0.5080
 4127TIP3    H236577   3.864   6.364  18.045 -0.9229 -0.8162  0.1795
 4128TIP3   OH236578   5.817   4.379  20.151  0.2790  0.2272  0.0396
 4128TIP3    H136579   5.801   4.443  20.082  0.5985  1.4196  1.0537
 4128TIP3    H236580   5.737   4.377  20.202  0.7167  0.7530  0.7560
 4129TIP3   OH236581   0.203   0.242  19.828 -0.1367  0.5794 -0.1705
 4129TIP3    H136582   0.177   0.179  19.760  1.9663  0.2510 -0.7675
 4129TIP3    H236583   0.299   0.247  19.819 -0.0229  2.0513  1.4733
 4130TIP3   OH236584   4.767   5.824  18.474  0.0405  0.3001 -0.0666
 4130TIP3    H136585   4.751   5.904  18.424 -2.5560 -0.5128 -0.7024
 4130TIP3    H236586   4.717   5.835  18.555  2.0125  0.4583  1.1937
 4131TIP3   OH236587   2.355   5.339  20.646  0.1414  0.3892  0.0085
 4131TIP3    H136588   2.302   5.324  20.568  1.1556 -1.8453 -0.3291
 4131TIP3    H236589   2.435   5.379  20.613 -0.5382  2.0923  0.3059
 4132TIP3   OH236590   6.332   2.285  19.339  0.1490 -0.4141  0.6278
 4132TIP3    H136591   6.317   2.213  19.277  0.9730  0.2484 -0.3758
 4132TIP3    H236592   6.424   2.277  19.364 -0.2831 -0.9483  2.1701
 4133TIP3   OH236593   4.765   2.272  19.968 -0.3574 -0.2952  0.4439
 4133TIP3    H136594   4.825   2.295  19.897 -1.1355 -0.0687 -0.1576
 4133TIP3    H236595   4.816   2.213  20.024 -0.1704 -1.6863 -1.0982
 4134TIP3   OH236596   5.512   0.997  20.917  0.0436 -0.0332  0.2049
 4134TIP3    H136597   5.503   1.085  20.880 -0.7314 -0.2225 -0.0760
 4134TIP3    H236598   5.422   0.968  20.930  0.3027 -0.3836  1.2670
 4135TIP3   OH236599   2.228   0.890  19.790  0.9972 -0.0570  0.1124
 4135TIP3    H136600   2.216   0.964  19.849 -2.0424 -0.4160  0.1509
 4135TIP3    H236601   2.303   0.913  19.736 -0.2169  3.3648 -0.3348
 4136TIP3   OH236602   1.237   5.727  19.369  0.4091  0.7561  0.1037
 4136TIP3    H136603   1.269   5.735  19.459  0.9797  0.4952 -0.0655
 4136TIP3    H236604   1.237   5.633  19.352  0.6166  0.8188 -0.2722
 4137TIP3   OH236605   2.374   2.847  21.117  0.0885  0.0296  0.1481
 4137TIP3    H136606   2.400   2.843  21.025  0.3680  0.7606  0.1932
 4137TIP3    H236607   2.428   2.780  21.160 -0.1588 -0.4257 -0.2395
 4138TIP3   OH236608   0.598   1.877  19.998 -0.1128  0.6333 -0.3289
 4138TIP3    H136609   0.504   1.866  19.990  0.1915 -1.8053 -1.6388
 4138TIP3    H236610   0.609   1.954  20.053 -2.8591 -0.6325  2.2548
 4139TIP3   OH236611   5.994   2.165  19.362  0.1070  0.1448  0.5168
 4139TIP3    H136612   6.026   2.128  19.445 -0.7185  1.4142  1.4505
 4139TIP3    H236613   5.908   2.124  19.349 -0.2387  0.7288  0.8785
 4140TIP3   OH236614   6.602   0.653  19.024  0.3620 -0.3403  0.2372
 4140TIP3    H136615   6.612   0.570  18.978  0.0340  0.3414 -1.0977
 4140TIP3    H236616   6.508   0.669  19.025  0.3916 -0.1718  0.8563
 4141TIP3   OH236617   4.868   0.478  19.405  0.2416  0.2285  0.0863
 4141TIP3    H136618   4.913   0.495  19.487 -1.2987  1.2745  0.7573
 4141TIP3    H236619   4.783   0.442  19.431 -0.1141  0.1902 -1.0564
 4142TIP3   OH236620   3.490   5.955  20.134 -0.1869  0.0464  0.9059
 4142TIP3    H136621   3.577   5.931  20.103 -0.1425 -0.7338  1.6187
 4142TIP3    H236622   3.430   5.918  20.069 -0.0023  0.7550  0.3062
 4143TIP3   OH236623   2.053   4.977  19.290 -0.6401 -0.2080 -0.3236
 4143TIP3    H136624   2.023   4.969  19.380 -1.9764  0.0176 -0.7205
 4143TIP3    H236625   2.119   5.046  19.292 -2.1952  1.3480  0.1647
 4144TIP3   OH236626   1.999   3.835  18.302 -0.3514 -0.3793 -0.3325
 4144TIP3    H136627   2.089   3.858  18.322 -0.8914  1.3420  0.3016
 4144TIP3    H236628   1.992   3.742  18.326  1.3629 -0.6980 -0.9239
 4145TIP3   OH236629   6.115   2.360  19.824 -0.1144  0.3159  0.0137
 4145TIP3    H136630   6.112   2.267  19.846  1.9076  0.6972  2.4400
 4145TIP3    H236631   6.206   2.376  19.798  0.0238  1.8418  1.2229
 4146TIP3   OH236632   6.547   4.183  19.135  0.1296 -0.3169 -0.3652
 4146TIP3    H136633   6.596   4.140  19.066  1.4551 -2.5264  1.7753
 4146TIP3    H236634   6.504   4.257  19.092  1.5936 -1.0226 -3.2937
 4147TIP3   OH236635   5.815   2.864  19.786 -0.0770  0.2657 -0.6606
 4147TIP3    H136636   5.899   2.820  19.774  0.3112  0.0687  2.2046
 4147TIP3    H236637   5.837   2.956  19.797 -0.3962  0.4337 -1.3791
 4148TIP3   OH236638   2.871   0.408  20.465  0.1407 -0.5449 -0.0732
 4148TIP3    H136639   2.939   0.371  20.409  0.9307  0.9252 -0.1349
 4148TIP3    H236640   2.911   0.487  20.501 -1.6197  0.4682 -0.2815
 4149TIP3   OH236641   5.839   5.179  18.230 -0.5742  0.1536  0.4597
 4149TIP3    H136642   5.924   5.173  18.188 -1.6018  1.8677 -2.1327
 4149TIP3    H236643   5.800   5.093  18.217 -0.0932  0.0515 -0.3991
 4150TIP3   OH236644   3.763   1.512  19.873 -0.5902 -0.0515 -0.1904
 4150TIP3    H136645   3.757   1.533  19.966 -0.9756 -0.2696 -0.1602
 4150TIP3    H236646   3.766   1.597  19.829  0.4283  0.0461  0.0637
 4151TIP3   OH236647   3.983   6.113  18.718  0.0743  0.2162  0.1351
 4151TIP3    H136648   3.934   6.184  18.761 -0.0439 -0.0651  0.4765
 4151TIP3    H236649   4.065   6.108  18.767 -0.7998 -1.3111  1.5436
 4152TIP3   OH236650   1.227   3.463  18.769 -0.0105 -0.0549 -0.2226
 4152TIP3    H136651   1.172   3.406  18.822 -1.2713  1.6259  0.3797
 4152TIP3    H236652   1.302   3.482  18.825 -1.9564  2.7923  1.7200
 4153TIP3   OH236653   2.372   2.453  19.167  0.1757 -0.0186  0.6575
 4153TIP3    H136654   2.463   2.479  19.177  0.2119  0.4409 -0.6396
 4153TIP3    H236655   2.373   2.388  19.097 -0.5645  0.5867  0.0583
 4154TIP3   OH236656   2.571   3.852  19.102 -0.4349  0.0141 -0.1929
 4154TIP3    H136657   2.486   3.861  19.145 -1.4929  0.4931 -2.2718
 4154TIP3    H236658   2.629   3.820  19.171 -2.1330  0.2776  1.4486
 4155TIP3   OH236659   5.639   4.462  18.096 -0.0318  0.2742  0.4521
 4155TIP3    H136660   5.659   4.538  18.151 -1.4515  0.5367  0.6342
 4155TIP3    H236661   5.565   4.490  18.042 -0.0906 -0.7372 -0.0146
 4156TIP3   OH236662   5.969   3.309  19.145 -0.4542  0.7108  0.4632
 4156TIP3    H136663   5.997   3.362  19.219 -0.2943  1.7198 -0.2998
 4156TIP3    H236664   5.979   3.366  19.069  0.3891 -0.6127 -0.4837
 4157TIP3   OH236665   3.885   0.155  18.207 -0.0219 -0.1394 -0.4477
 4157TIP3    H136666   3.813   0.093  18.197  0.1134 -0.1923 -1.1095
 4157TIP3    H236667   3.884   0.178  18.301 -2.3745  1.5948 -0.7859
 4158TIP3   OH236668   2.491   1.189  20.096 -0.1903  0.0516  0.0935
 4158TIP3    H136669   2.528   1.141  20.170 -1.1094  0.8653  1.1216
 4158TIP3    H236670   2.499   1.130  20.022  3.5108  0.3144  0.1276
 4159TIP3   OH236671   5.870   1.616  19.957  0.2634 -0.1868 -0.1674
 4159TIP3    H136672   5.795   1.671  19.934  0.2848  0.4612  1.1969
 4159TIP3    H236673   5.944   1.657  19.911 -0.0050 -0.0432 -0.4722
 4160TIP3   OH236674   4.746   3.114  18.351  0.2710 -0.0074  0.4101
 4160TIP3    H136675   4.683   3.136  18.283  2.7007 -0.7706 -2.2443
 4160TIP3    H236676   4.727   3.023  18.373 -0.4836  0.2241  0.7446
 4161TIP3   OH236677   3.597   3.001  19.994  0.5557  0.5803 -0.2499
 4161TIP3    H136678   3.590   2.911  20.026  0.9639  0.3834 -0.7001
 4161TIP3    H236679   3.546   3.002  19.913 -0.1219  0.9678  0.1760
 4162TIP3   OH236680   2.849   1.092  18.066  0.4448 -0.7689 -0.1331
 4162TIP3    H136681   2.760   1.061  18.049 -0.3255  0.7623  0.8440
 4162TIP3    H236682   2.838   1.162  18.130  2.5247 -1.7322  1.4093
 4163TIP3   OH236683   1.469   4.682  20.697  0.1166  0.5399 -0.2991
 4163TIP3    H136684   1.387   4.667  20.651  0.6083 -0.1445 -0.9767
 4163TIP3    H236685   1.507   4.594  20.708  2.1098  1.0019 -2.5465
 4164TIP3   OH236686   3.989   0.961  19.675 -0.5672  0.2452 -0.8451
 4164TIP3    H136687   4.053   0.890  19.678  0.0356  0.7980 -0.5449
 4164TIP3    H236688   3.909   0.923  19.713  0.6887  0.6662  2.5441
 4165TIP3   OH236689   3.350   0.507  19.863  0.3560 -0.5187 -0.0721
 4165TIP3    H136690   3.395   0.464  19.790 -0.7266  0.6257 -1.4707
 4165TIP3    H236691   3.320   0.434  19.919  0.6163 -1.4633 -1.1274
 4166TIP3   OH236692   4.198   4.656  20.834  0.3687  0.0701  0.0273
 4166TIP3    H136693   4.197   4.612  20.749 -2.2683 -1.2032  0.5922
 4166TIP3    H236694   4.198   4.749  20.814  1.2347 -0.2019 -1.3222
 4167TIP3   OH236695   0.980   0.062  20.050 -0.1937 -0.6094  0.3578
 4167TIP3    H136696   1.015   0.147  20.078 -0.3481 -0.2418 -0.5332
 4167TIP3    H236697   0.937   0.027  20.128 -0.5553  0.3537  0.6055
 4168TIP3   OH236698   6.573   3.037  20.048  0.0937 -0.0105 -0.3021
 4168TIP3    H136699   6.480   3.015  20.041 -0.1876  1.1022 -0.2979
 4168TIP3    H236700   6.574   3.122  20.091  1.2216 -0.8445  1.4066
 4169TIP3   OH236701   1.376   3.178  18.722  0.1838  0.5138 -0.0230
 4169TIP3    H136702   1.298   3.185  18.777 -0.1408 -4.0464  0.5327
 4169TIP3    H236703   1.342   3.172  18.633 -0.1980 -1.2677  0.2004
 4170TIP3   OH236704   2.608   0.921  18.374 -0.3249  0.0811  0.0822
 4170TIP3    H136705   2.542   0.986  18.350  0.2826  0.9215  0.6206
 4170TIP3    H236706   2.678   0.972  18.415  0.6746 -0.7880 -0.5050
 4171TIP3   OH236707   5.584   2.258  18.998 -0.3893 -0.3350  0.0643
 4171TIP3    H136708   5.596   2.328  19.063 -0.8699 -1.9438  1.9731
 4171TIP3    H236709   5.559   2.304  18.918 -0.3193  1.7089  1.1481
 4172TIP3   OH236710   5.022   1.081  20.998 -0.9016  0.4698 -0.5421
 4172TIP3    H136711   5.091   1.134  21.038 -1.3039  2.2402 -2.0690
 4172TIP3    H236712   4.962   1.144  20.959 -2.8251 -1.0492 -0.2397
 4173TIP3   OH236713   1.276   2.673  19.090  0.4130 -0.4503  0.0841
 4173TIP3    H136714   1.296   2.681  19.184  0.4712 -1.0205  0.1234
 4173TIP3    H236715   1.324   2.744  19.049 -1.1526  1.0443  0.7006
 4174TIP3   OH236716   0.974   4.352  19.482  0.5873  0.6224 -0.7068
 4174TIP3    H136717   1.012   4.270  19.450 -0.3796  0.6155 -1.9282
 4174TIP3    H236718   0.881   4.346  19.459  0.1327  1.2870  0.8383
 4175TIP3   OH236719   1.588   4.648  19.459 -0.0712  0.0900  0.3396
 4175TIP3    H136720   1.659   4.695  19.502 -0.3487  0.1915  0.6898
 4175TIP3    H236721   1.624   4.625  19.373  0.0393  0.9983  0.1310
 4176TIP3   OH236722   0.717   2.706  19.704  0.2261 -0.4322 -0.0023
 4176TIP3    H136723   0.745   2.725  19.794  0.9495  2.4895 -0.7320
 4176TIP3    H236724   0.783   2.645  19.671  0.4660 -0.8278  1.1458
 4177TIP3   OH236725   4.545   3.886  20.020  0.0005 -0.7671 -0.0830
 4177TIP3    H136726   4.636   3.888  19.990  0.9061  1.7604  2.4534
 4177TIP3    H236727   4.500   3.951  19.966  1.0627  1.9716  2.1113
 4178TIP3   OH236728   1.387   3.034  19.526 -0.0211  0.1418  0.1695
 4178TIP3    H136729   1.449   3.107  19.536  1.7766 -0.6498 -3.3001
 4178TIP3    H236730   1.302   3.076  19.514  0.5335  1.5241  0.8898
 4179TIP3   OH236731   1.465   5.471  19.473 -0.1496 -0.0245 -0.2056
 4179TIP3    H136732   1.440   5.393  19.424 -0.2403  0.1096 -0.3750
 4179TIP3    H236733   1.446   5.450  19.564  1.1928 -0.7530 -0.0688
 4180TIP3   OH236734   4.530   0.087  19.379  0.1542  0.0349 -0.3346
 4180TIP3    H136735   4.581   0.090  19.297 -1.0818 -0.8415 -1.1621
 4180TIP3    H236736   4.591   0.050  19.443  0.8502 -0.1438 -1.0782
 4181TIP3   OH236737   2.970   5.272  19.333  0.2401 -0.2247  0.6071
 4181TIP3    H136738   2.984   5.325  19.412 -0.3072 -0.4532  0.8675
 4181TIP3    H236739   3.015   5.189  19.353 -0.7931 -0.6849  1.1411
 4182TIP3   OH236740   5.219   3.384  20.921 -0.2028 -0.0662  0.1582
 4182TIP3    H136741   5.256   3.301  20.890  2.1677  0.9559  0.0447
 4182TIP3    H236742   5.217   3.440  20.844 -1.1168  0.2477  0.3906
 4183TIP3   OH236743   0.319   4.729  21.020 -0.1398 -0.2513  0.7966
 4183TIP3    H136744   0.253   4.697  20.959  0.2375  0.0878  0.2040
 4183TIP3    H236745   0.358   4.649  21.057  1.5261 -0.5922 -1.4528
 4184TIP3   OH236746   4.294   2.710  20.768 -0.0881  0.0821 -0.2655
 4184TIP3    H136747   4.250   2.665  20.696 -0.5123 -1.2072  0.7584
 4184TIP3    H236748   4.260   2.668  20.847  1.7261  0.1719  0.6225
 4185TIP3   OH236749   1.390   1.310  18.638  0.0867  0.0497 -0.3527
 4185TIP3    H136750   1.432   1.237  18.592 -0.6477  0.2994 -1.4438
 4185TIP3    H236751   1.462   1.371  18.655  0.2458  0.4072 -2.0797
 4186TIP3   OH236752   3.315   5.377  18.548 -0.8544  0.4910  0.2079
 4186TIP3    H136753   3.363   5.413  18.474  0.8935 -0.3843  0.8688
 4186TIP3    H236754   3.365   5.403  18.625  0.7725 -3.4699  0.7350
 4187TIP3   OH236755   6.332   4.553  20.513 -0.5593 -0.0151  0.1425
 4187TIP3    H136756   6.349   4.498  20.589 -0.6454  1.2089  1.0909
 4187TIP3    H236757   6.242   4.582  20.523 -0.7917 -0.3731 -0.7997
 4188TIP3   OH236758   5.517   6.053  19.050 -0.2906  0.6611 -0.0494
 4188TIP3    H136759   5.449   6.012  18.996  0.4901 -2.4653  1.1106
 4188TIP3    H236760   5.586   6.078  18.988 -0.4163 -0.6955 -0.7739
 4189TIP3   OH236761   3.804   4.945  18.250 -0.2382  0.0837  0.6710
 4189TIP3    H136762   3.763   4.931  18.165  1.0141  1.3022 -0.1595
 4189TIP3    H236763   3.730   4.950  18.311 -1.1927 -0.0258 -0.4428
 4190TIP3   OH236764   1.546   4.758  19.994 -0.0213 -0.5740  0.1003
 4190TIP3    H136765   1.454   4.784  20.003 -0.3944 -1.5426 -0.6799
 4190TIP3    H236766   1.558   4.689  20.059  0.7109  0.8517  1.5343
 4191TIP3   OH236767   4.105   4.541  18.791 -0.4199 -0.3141  0.5600
 4191TIP3    H136768   4.114   4.539  18.887  2.1618 -0.7911  0.3786
 4191TIP3    H236769   4.082   4.452  18.767 -2.4111  0.0970  0.7812
 4192TIP3   OH236770   1.238   2.228  18.644  0.0807  0.0459 -0.6719
 4192TIP3    H136771   1.268   2.212  18.733 -1.0789 -0.1409 -0.3017
 4192TIP3    H236772   1.313   2.205  18.589  0.7784  0.0848  0.2405
 4193TIP3   OH236773   4.900   3.913  18.731 -0.1573 -0.0155  0.0308
 4193TIP3    H136774   4.857   3.954  18.806  0.7396  0.4828  0.2921
 4193TIP3    H236775   4.957   3.846  18.770  0.2093  0.1529 -0.2117
 4194TIP3   OH236776   0.526   6.481  18.862 -0.0098 -0.3184  0.3900
 4194TIP3    H136777   0.443   6.437  18.841 -0.6386  0.2713  1.5761
 4194TIP3    H236778   0.579   6.468  18.784 -1.2614 -0.6049 -0.4565
 4195TIP3   OH236779   0.065   4.148  19.335 -0.1515 -1.2435  0.1061
 4195TIP3    H136780  -0.004   4.177  19.274 -0.8206 -2.4457  0.2462
 4195TIP3    H236781   0.054   4.204  19.412  0.7430  0.3396 -0.8671
 4196TIP3   OH236782   1.773   2.047  20.613 -0.0932  0.6120  0.6509
 4196TIP3    H136783   1.747   2.030  20.522 -1.1909 -1.7231  1.3207
 4196TIP3    H236784   1.867   2.031  20.614 -0.2367 -0.3274  0.0998
 4197TIP3   OH236785   3.678   4.104  20.991  0.2200 -0.1515 -0.0394
 4197TIP3    H136786   3.730   4.134  21.065  0.1808 -0.1940  0.0056
 4197TIP3    H236787   3.741   4.062  20.933  0.4355  0.8707 -0.5687
 4198TIP3   OH236788   0.569   6.594  19.524 -0.0908 -0.1066 -0.2482
 4198TIP3    H136789   0.521   6.536  19.583 -0.7914 -0.0852 -0.7855
 4198TIP3    H236790   0.501   6.651  19.487  0.6021  1.1790  0.4069
 4199TIP3   OH236791   4.599   1.019  20.367  0.0101  0.2757  0.2930
 4199TIP3    H136792   4.567   1.063  20.288 -1.1803 -0.9211  0.0658
 4199TIP3    H236793   4.674   0.967  20.337  0.5699  1.0763  0.2897
 4200TIP3   OH236794   1.538   2.923  18.408 -0.3649  0.5193 -0.3623
 4200TIP3    H136795   1.477   2.997  18.416  1.2238  2.0598 -1.5628
 4200TIP3    H236796   1.625   2.963  18.419  0.4999 -1.3882  0.0666
 4201TIP3   OH236797   1.488   2.479  20.327 -0.1020 -0.3057  0.5849
 4201TIP3    H136798   1.434   2.483  20.406 -0.4891 -0.3381  0.3262
 4201TIP3    H236799   1.573   2.512  20.355  0.3926 -2.2197  1.5206
 4202TIP3   OH236800   2.652   4.884  19.012  0.5502 -1.2714 -0.3768
 4202TIP3    H136801   2.675   4.924  19.096  0.6529 -0.3605 -0.8187
 4202TIP3    H236802   2.613   4.800  19.035  2.8733 -2.1853  0.4654
 4203TIP3   OH236803   6.627   2.098  20.833  0.6975  0.4039 -0.3735
 4203TIP3    H136804   6.544   2.140  20.810  0.6066 -0.0890 -0.9727
 4203TIP3    H236805   6.693   2.146  20.783  0.6879  0.3389 -0.4488
 4204TIP3   OH236806   2.965   4.477  20.384  0.5923  0.0068 -0.3673
 4204TIP3    H136807   2.936   4.543  20.321  0.7040  0.1017 -0.3204
 4204TIP3    H236808   2.909   4.491  20.461 -0.2437 -0.7879 -0.8226
 4205TIP3   OH236809   4.785   5.058  19.956 -0.8614  0.2521 -0.5852
 4205TIP3    H136810   4.802   4.974  19.997 -2.1435  0.0858 -0.3590
 4205TIP3    H236811   4.782   5.039  19.862  0.6284  0.3832 -0.6909
 4206TIP3   OH236812   0.677   6.412  20.992 -0.0173 -0.5837 -0.7496
 4206TIP3    H136813   0.589   6.419  20.954  0.1598 -1.1314 -1.2827
 4206TIP3    H236814   0.732   6.465  20.934 -0.3885  1.8679  1.0038
 4207TIP3   OH236815   4.532   2.952  20.548  0.4881  0.8237 -0.1601
 4207TIP3    H136816   4.451   3.003  20.541  0.5589  1.4329  2.4630
 4207TIP3    H236817   4.599   3.008  20.510  0.8011  3.4928  3.8302
 4208TIP3   OH236818   1.732   0.279  21.126 -0.1714  0.3248  0.0962
 4208TIP3    H136819   1.704   0.361  21.084  0.6817  0.2101 -0.7419
 4208TIP3    H236820   1.827   0.279  21.116 -0.3235 -2.0407 -2.3322
 4209TIP3   OH236821   5.475   1.635  20.412  0.0202 -0.2418 -0.0130
 4209TIP3    H136822   5.523   1.597  20.338 -0.1306  2.3483 -1.5629
 4209TIP3    H236823   5.383   1.632  20.385 -0.3031 -1.3595  1.1266
 4210TIP3   OH236824   6.401   4.501  20.199  0.2503  0.3798 -0.6435
 4210TIP3    H136825   6.316   4.485  20.158  0.4323 -0.3019 -0.7554
 4210TIP3    H236826   6.380   4.528  20.288 -0.0401 -1.3998 -0.1446
 4211TIP3   OH236827   2.343   5.000  18.509 -0.0710  0.2469  0.3023
 4211TIP3    H136828   2.360   5.092  18.489 -2.3884  0.8794  0.8972
 4211TIP3    H236829   2.280   5.003  18.581  1.4282 -1.8501  1.8203
 4212TIP3   OH236830   5.035   2.209  18.250  0.2183  0.0521 -0.3615
 4212TIP3    H136831   5.083   2.291  18.238  2.1470 -0.9510 -0.0019
 4212TIP3    H236832   5.055   2.182  18.340  1.5795 -1.9231 -1.1740
 4213TIP3   OH236833   0.977   3.218  20.827 -0.3349 -0.7195 -0.3952
 4213TIP3    H136834   0.976   3.138  20.880 -0.5720 -0.2976  0.2558
 4213TIP3    H236835   0.907   3.206  20.763  0.9069 -1.8731 -1.6162
 4214TIP3   OH236836   4.930   4.628  17.476 -0.2663 -0.4583  0.1961
 4214TIP3    H136837   4.846   4.666  17.451  0.4052 -0.0717 -1.6709
 4214TIP3    H236838   4.915   4.533  17.473 -0.7820 -0.3933  0.5018
 4215TIP3   OH236839   4.697   6.465  19.828 -0.0240 -0.4701 -0.0796
 4215TIP3    H136840   4.693   6.371  19.809 -0.7117 -0.5532  0.4032
 4215TIP3    H236841   4.786   6.491  19.805 -0.4592 -0.7608 -2.3556
 4216TIP3   OH236842   1.767   6.539  21.298 -0.2549  0.3676  0.0052
 4216TIP3    H136843   1.797   6.624  21.330 -2.3710  1.3450 -0.4519
 4216TIP3    H236844   1.675   6.552  21.276 -0.8072 -2.1938  0.4296
 4217TIP3   OH236845   6.638   1.835  19.236 -0.6558  0.4494  0.0772
 4217TIP3    H136846   6.611   1.908  19.180 -1.6508  0.4447  0.5207
 4217TIP3    H236847   6.604   1.859  19.323 -3.0207 -1.5690 -0.1902
 4218TIP3   OH236848   3.280   5.023  19.088  0.1449  0.2499  0.3869
 4218TIP3    H136849   3.331   4.942  19.079  0.5060  0.4393  0.6959
 4218TIP3    H236850   3.198   5.005  19.042  0.5075 -0.0461 -0.1600
 4219TIP3   OH236851   6.301   3.300  19.539 -0.2804  0.3500  0.0260
 4219TIP3    H136852   6.336   3.384  19.569 -1.2107  1.2054 -1.2012
 4219TIP3    H236853   6.307   3.243  19.615  0.7659  1.3986  0.7629
 4220TIP3   OH236854   0.201   2.277  19.919 -0.5723 -0.4466 -0.2612
 4220TIP3    H136855   0.245   2.337  19.979 -0.0655  1.5627 -2.5229
 4220TIP3    H236856   0.271   2.220  19.887 -0.6426 -0.7708  0.1437
 4221TIP3   OH236857   1.211   1.927  20.641  0.2401  0.1579  0.3306
 4221TIP3    H136858   1.220   1.845  20.690  1.6954  0.6515  0.9529
 4221TIP3    H236859   1.275   1.919  20.570  0.1885  0.6491  0.2283
 4222TIP3   OH236860   5.687   1.689  18.683  0.4490 -0.7005  0.0193
 4222TIP3    H136861   5.737   1.758  18.725  1.5903 -2.5841  1.9323
 4222TIP3    H236862   5.598   1.700  18.716  0.2567  0.7135 -0.8824
 4223TIP3   OH236863   2.876   4.637  18.535 -0.0061  0.3146 -0.2555
 4223TIP3    H136864   2.783   4.660  18.525  0.2996  0.8652 -2.2557
 4223TIP3    H236865   2.894   4.579  18.460  0.9166 -1.0397  0.9620
 4224TIP3   OH236866   5.160   6.003  21.043  0.3250 -0.4033 -0.0708
 4224TIP3    H136867   5.127   6.029  20.957 -0.4106  1.8023  0.8227
 4224TIP3    H236868   5.120   5.917  21.058 -0.5439 -0.2624 -1.3908
 4225TIP3   OH236869   4.376   4.241  18.522 -0.0426  0.4697 -0.2773
 4225TIP3    H136870   4.451   4.213  18.574 -1.2826 -0.0326  1.3375
 4225TIP3    H236871   4.383   4.192  18.440 -0.8050 -2.9084  1.4762
 4226TIP3   OH236872   1.075   6.328  19.157  0.0474 -0.2981  0.3090
 4226TIP3    H136873   1.008   6.345  19.090 -1.2024  0.3589  1.6683
 4226TIP3    H236874   1.074   6.406  19.212  2.4578  0.0209 -0.0047
 4227TIP3   OH236875   1.336   6.395  19.670  0.3884  0.0598 -0.7185
 4227TIP3    H136876   1.280   6.319  19.684  0.4368  0.0259 -0.7101
 4227TIP3    H236877   1.277   6.470  19.676  0.5460  0.1066  0.5310
 4228TIP3   OH236878   0.504   0.749  20.031  0.1567 -0.4273 -0.3355
 4228TIP3    H136879   0.477   0.816  19.969 -2.3418 -0.7801  0.2723
 4228TIP3    H236880   0.494   0.790  20.117  1.7802 -0.5619 -0.0381
 4229TIP3   OH236881   2.517   2.709  18.122  0.4912  0.0934 -0.0271
 4229TIP3    H136882   2.459   2.692  18.048  0.4204  0.5919 -0.0879
 4229TIP3    H236883   2.476   2.662  18.196  0.2420  0.0896 -0.1654
 4230TIP3   OH236884   6.061   1.723  19.489  0.3320 -0.4422 -0.8820
 4230TIP3    H136885   6.101   1.771  19.417 -1.3387  0.0914 -1.5106
 4230TIP3    H236886   5.994   1.669  19.447 -0.0002 -0.8666  0.1604
 4231TIP3   OH236887   2.742   4.097  20.899  0.7011 -0.4938  0.0920
 4231TIP3    H136888   2.808   4.046  20.852  0.5343 -0.5846 -0.0500
 4231TIP3    H236889   2.667   4.038  20.906  0.6013 -0.3590  0.1653
 4232TIP3   OH236890   4.550   3.467  18.550 -0.0071 -0.4695  0.1104
 4232TIP3    H136891   4.572   3.487  18.459 -0.7063 -0.3947 -0.0464
 4232TIP3    H236892   4.477   3.525  18.570  0.0693 -0.5697  0.6852
 4233TIP3   OH236893   5.884   3.884  20.303 -0.2934 -0.4241  0.4103
 4233TIP3    H136894   5.884   3.962  20.247  0.9049  0.1932  1.2106
 4233TIP3    H236895   5.953   3.829  20.266  1.2331  0.4484  1.8238
 4234TIP3   OH236896   0.138   2.135  19.253 -0.2214  0.0672  0.0173
 4234TIP3    H136897   0.057   2.101  19.292 -1.0231 -1.2540 -2.6087
 4234TIP3    H236898   0.157   2.077  19.180  3.0706  0.4398  0.4134
 4235TIP3   OH236899   0.255   0.155  20.863  0.5559  0.2545 -0.1676
 4235TIP3    H136900   0.220   0.110  20.786 -0.4851  0.7318  0.0093
 4235TIP3    H236901   0.182   0.157  20.925  1.5403 -0.6174  1.0667
 4236TIP3   OH236902   2.453   0.222  21.224 -0.0865 -0.1344 -0.2926
 4236TIP3    H136903   2.383   0.265  21.273  0.8188  0.0740  0.8811
 4236TIP3    H236904   2.499   0.294  21.180 -0.8700 -0.3170 -1.4410
 4237TIP3   OH236905   5.023   3.178  18.037 -0.7091 -0.2733  0.4534
 4237TIP3    H136906   5.017   3.224  18.121 -0.9652 -0.0776  0.3291
 4237TIP3    H236907   4.940   3.131  18.030 -0.5684 -0.5203  0.4448
 4238TIP3   OH236908   4.116   3.530  19.497  0.1748  0.0945  0.3221
 4238TIP3    H136909   4.145   3.473  19.426 -0.6072 -0.6586  0.6042
 4238TIP3    H236910   4.035   3.570  19.465 -0.4558 -0.6361  0.9822
 4239TIP3   OH236911   4.436   6.385  20.441 -0.6634  0.4740 -0.0227
 4239TIP3    H136912   4.397   6.469  20.414 -0.5449  0.4833 -0.1660
 4239TIP3    H236913   4.487   6.357  20.365  1.2480  1.4398  0.8240
 4240TIP3   OH236914   3.082   5.334  20.194  0.0324 -0.0048  0.3690
 4240TIP3    H136915   3.167   5.295  20.212 -0.4590 -1.5923 -0.6234
 4240TIP3    H236916   3.026   5.305  20.265  0.3408  1.2341  1.1536
 4241TIP3   OH236917   4.694   3.084  20.848  0.5857 -0.6934 -0.1714
 4241TIP3    H136918   4.787   3.092  20.826  0.0615  1.2412 -1.9347
 4241TIP3    H236919   4.675   3.160  20.904  0.0622 -1.0986  0.2182
 4242TIP3   OH236920   6.011   5.372  20.389  0.6621  0.0770 -0.2689
 4242TIP3    H136921   5.986   5.370  20.297 -2.0327 -0.0653  0.3767
 4242TIP3    H236922   6.049   5.285  20.405 -1.6220 -1.0917 -0.6446
 4243TIP3   OH236923   4.056   6.592  19.599  0.2604 -0.0318  0.8456
 4243TIP3    H136924   4.004   6.638  19.534 -1.5208 -1.2760  1.3088
 4243TIP3    H236925   4.120   6.543  19.548  1.3883  1.9117  0.2895
 4244TIP3   OH236926   2.958   2.019  19.400  0.2501  0.7650 -0.2232
 4244TIP3    H136927   3.017   2.023  19.475  0.3920  1.8260 -0.3767
 4244TIP3    H236928   2.944   2.110  19.375 -2.5190  0.6600  0.6371
 4245TIP3   OH236929   0.842   6.585  18.864 -0.1301  0.0154  0.7248
 4245TIP3    H136930   0.806   6.540  18.788  0.2459  1.6238 -0.4555
 4245TIP3    H236931   0.768   6.636  18.899 -0.4950 -1.2751  1.9124
 4246TIP3   OH236932   5.404   1.956  17.904  0.1242  0.2033  0.0106
 4246TIP3    H136933   5.461   1.937  17.829 -1.6039  0.8605 -1.5414
 4246TIP3    H236934   5.405   2.051  17.911 -0.1905  0.1747  0.4522
 4247TIP3   OH236935   5.280   1.722  19.869 -0.2191  0.2638  0.1695
 4247TIP3    H136936   5.263   1.630  19.889 -0.3508  0.2424 -0.0453
 4247TIP3    H236937   5.264   1.730  19.775  0.6001  0.3174  0.0274
 4248TIP3   OH236938   6.040   2.393  20.528  0.1373  0.0075 -0.2147
 4248TIP3    H136939   6.069   2.304  20.508 -0.3874 -0.4984  1.1668
 4248TIP3    H236940   5.945   2.386  20.533  0.1433  0.4723  0.6789
 4249TIP3   OH236941   5.777   6.671  18.835 -0.2655  1.1081 -0.4172
 4249TIP3    H136942   5.718   6.713  18.772 -0.1679  0.5368 -0.9014
 4249TIP3    H236943   5.723   6.659  18.913 -1.4671 -1.1588 -1.4685
 4250TIP3   OH236944   1.662   1.123  17.951 -0.6115  0.0558 -0.5494
 4250TIP3    H136945   1.608   1.091  17.879 -1.2307 -0.5113  0.1624
 4250TIP3    H236946   1.751   1.094  17.929 -0.7661  0.0398 -1.1633
 4251TIP3   OH236947   1.369   3.468  19.297  0.2403  0.9165  0.5145
 4251TIP3    H136948   1.436   3.523  19.255 -1.2095  1.3255 -1.4459
 4251TIP3    H236949   1.318   3.433  19.224 -1.0084 -0.2812  1.8915
 4252TIP3   OH236950   2.186   5.586  21.024 -0.2984 -0.1828 -0.1635
 4252TIP3    H136951   2.130   5.537  21.084 -3.3255  0.9803 -1.8350
 4252TIP3    H236952   2.254   5.524  20.998 -0.0716 -1.3297  2.7845
 4253TIP3   OH236953   3.349   4.747  17.741 -0.9501 -0.3231 -0.1256
 4253TIP3    H136954   3.327   4.765  17.649  3.6175 -2.0166 -1.7926
 4253TIP3    H236955   3.400   4.823  17.769  0.6550 -1.3048 -0.2567
 4254TIP3   OH236956   5.081   3.106  18.904 -0.2237 -0.2560 -0.0429
 4254TIP3    H136957   5.162   3.088  18.856  1.3743 -1.0518  2.7166
 4254TIP3    H236958   5.110   3.144  18.987 -2.6691 -0.5246  1.0346
 4255TIP3   OH236959   2.482   1.988  17.999 -0.5701 -0.0395  0.4851
 4255TIP3    H136960   2.543   1.975  18.071  1.0327  3.7550  0.0248
 4255TIP3    H236961   2.408   2.034  18.038 -0.7527 -0.0321  0.1330
 4256TIP3   OH236962   2.989   0.934  20.561 -0.2299  0.1592  0.2852
 4256TIP3    H136963   3.071   0.914  20.607 -0.9759 -0.2065  1.4999
 4256TIP3    H236964   3.005   0.905  20.471  0.5664 -1.0146  0.7785
 4257TIP3   OH236965   2.683   5.539  19.988 -0.1462  0.5354  0.1096
 4257TIP3    H136966   2.638   5.512  19.908 -0.5057  0.2227  0.4166
 4257TIP3    H236967   2.760   5.483  19.993 -0.2953  0.3347  0.1538
 4258TIP3   OH236968   5.903   0.437  19.489  0.0217  0.2172  0.1014
 4258TIP3    H136969   5.896   0.350  19.529 -0.0101  0.7182  1.2311
 4258TIP3    H236970   5.979   0.430  19.431 -0.8031 -0.9518 -0.8921
 4259TIP3   OH236971   0.083   3.788  20.574 -0.1335 -0.3702 -0.2203
 4259TIP3    H136972   0.003   3.782  20.627 -0.3292  0.7327 -0.3765
 4259TIP3    H236973   0.052   3.786  20.484 -0.0898  1.0492 -0.2881
 4260TIP3   OH236974   4.649   5.439  19.329  0.0299  0.3656 -0.0518
 4260TIP3    H136975   4.577   5.398  19.280  0.5517 -0.4779 -0.1332
 4260TIP3    H236976   4.617   5.527  19.349 -0.1470  0.8147 -2.0808
 4261TIP3   OH236977   3.608   3.591  20.984  0.2132 -0.6028  0.1846
 4261TIP3    H136978   3.589   3.638  21.065  1.1465  1.5903 -0.8071
 4261TIP3    H236979   3.522   3.581  20.942 -0.0411 -0.1112  0.5742
 4262TIP3   OH236980   5.538   6.168  17.444  0.4639 -0.8528  0.3582
 4262TIP3    H136981   5.592   6.229  17.494  0.8539 -1.8734  1.1891
 4262TIP3    H236982   5.453   6.168  17.489  0.2545 -0.4658 -0.0170
 4263TIP3   OH236983   2.101   2.662  20.488 -0.1391 -0.0276 -0.0594
 4263TIP3    H136984   2.136   2.742  20.526  1.6912 -0.9107  0.2253
 4263TIP3    H236985   2.067   2.613  20.563  0.0523 -0.1450 -0.0503
 4264TIP3   OH236986   2.110   3.648  19.092  0.2563 -0.0965 -0.5325
 4264TIP3    H136987   2.035   3.662  19.033  0.1401  0.9105 -0.1613
 4264TIP3    H236988   2.115   3.553  19.102  0.1740 -0.2790 -2.0295
 4265TIP3   OH236989   0.898   5.814  18.630  0.3258 -0.0796 -0.8762
 4265TIP3    H136990   0.885   5.894  18.580 -1.2364 -0.0966 -0.5641
 4265TIP3    H236991   0.890   5.842  18.721  0.6678 -0.4413 -0.7363
 4266TIP3   OH236992   6.413   4.490  18.124 -0.1383 -0.0359 -0.6909
 4266TIP3    H136993   6.406   4.452  18.037 -0.5838  1.7979 -1.5073
 4266TIP3    H236994   6.502   4.469  18.153  0.5080  0.5136 -2.1843
 4267TIP3   OH236995   5.391   2.648  17.972  0.8546 -0.9073  0.3956
 4267TIP3    H136996   5.297   2.667  17.978  1.2753  1.2066  1.3520
 4267TIP3    H236997   5.423   2.709  17.905  1.5142 -1.8220 -0.1355
 4268TIP3   OH236998   3.852   2.873  18.122 -0.8695  0.4655  0.0357
 4268TIP3    H136999   3.835   2.962  18.092  1.7067  0.1153 -2.9183
 4268TIP3    H237000   3.858   2.821  18.042 -3.8533 -2.8260  1.6616
 4269TIP3   OH237001   5.097   3.561  20.610 -0.5778  0.2951  0.3768
 4269TIP3    H137002   5.029   3.619  20.645  0.2019  0.6348  1.3709
 4269TIP3    H237003   5.171   3.571  20.670  0.1866 -0.4360 -0.4067
 4270TIP3   OH237004   1.607   4.451  20.928 -0.3224  0.3876  0.3315
 4270TIP3    H137005   1.608   4.501  21.010 -0.7697 -2.1347  1.9899
 4270TIP3    H237006   1.698   4.451  20.899  0.1616 -0.0518  1.7704
 4271TIP3   OH237007   3.372   4.068  18.787  0.0479  0.1101  0.0878
 4271TIP3    H137008   3.279   4.048  18.781 -0.1227  1.1706 -1.3096
 4271TIP3    H237009   3.404   4.061  18.697  1.2597  0.0646  0.5026
 4272TIP3   OH237010   3.613   5.986  18.840 -0.1439  0.3922 -0.1542
 4272TIP3    H137011   3.664   5.906  18.824  2.0188  0.8938  3.1704
 4272TIP3    H237012   3.542   5.958  18.897  0.9344  0.8267  1.4709
 4273TIP3   OH237013   1.931   3.936  21.071 -0.4626  0.0319 -0.3863
 4273TIP3    H137014   1.884   3.926  20.988  0.4252  1.2480 -1.0671
 4273TIP3    H237015   1.863   3.930  21.137 -1.1148 -1.5705 -1.1490
 4274TIP3   OH237016   4.042   2.111  18.328  0.4637  0.0967  0.3996
 4274TIP3    H137017   4.035   2.045  18.397  0.4314 -0.4112 -0.0775
 4274TIP3    H237018   4.131   2.146  18.338  0.8518 -0.7415  0.0336
 4275TIP3   OH237019   5.838   2.589  20.350  0.1223 -0.0149  0.6737
 4275TIP3    H137020   5.783   2.592  20.429  0.4611  2.3324  0.8792
 4275TIP3    H237021   5.926   2.574  20.383  0.3211  1.3644  0.7905
 4276TIP3   OH237022   0.159   0.581  20.791  0.0392  0.2201  0.2580
 4276TIP3    H137023   0.199   0.659  20.828 -0.4239  0.8708 -0.5807
 4276TIP3    H237024   0.110   0.542  20.864  0.5235  0.5341  0.7592
 4277TIP3   OH237025   1.616   1.762  18.361 -0.2901 -0.7181  0.7909
 4277TIP3    H137026   1.552   1.743  18.429 -0.1786 -0.7836  0.8769
 4277TIP3    H237027   1.646   1.676  18.331 -0.6279 -0.6982  0.3838
 4278TIP3   OH237028   5.755   1.040  19.211  0.1567  0.4909  0.2356
 4278TIP3    H137029   5.840   1.074  19.239  0.7286 -1.0153  0.4389
 4278TIP3    H237030   5.777   0.972  19.147 -0.9008  0.0669  0.3116
 4279TIP3   OH237031   2.825   2.956  19.131 -0.2080 -0.0149 -0.4935
 4279TIP3    H137032   2.797   3.006  19.054  0.4508  0.2073 -0.5990
 4279TIP3    H237033   2.753   2.964  19.193  0.1153  1.5524 -0.2783
 4280TIP3   OH237034   0.980   6.455  19.449  0.3860  0.0757 -0.6702
 4280TIP3    H137035   0.970   6.550  19.454 -0.7027 -0.0411 -0.3689
 4280TIP3    H237036   0.935   6.431  19.368  0.4941 -0.2064 -0.6470
 4281TIP3   OH237037   5.851   4.464  20.791  0.3164 -0.0641 -0.4839
 4281TIP3    H137038   5.893   4.543  20.824 -0.0737 -0.1965  0.3571
 4281TIP3    H237039   5.770   4.495  20.750  0.7647  0.0929 -1.2621
 4282TIP3   OH237040   3.934   1.445  18.794 -0.1980 -0.6307 -0.4201
 4282TIP3    H137041   3.924   1.406  18.707 -1.8779 -0.2837 -0.4068
 4282TIP3    H237042   3.905   1.535  18.783  0.6785 -0.2540  0.2613
 4283TIP3   OH237043   6.426   6.182  19.882 -0.2352  0.0622 -0.4737
 4283TIP3    H137044   6.447   6.268  19.847 -1.8102 -0.2527 -2.3777
 4283TIP3    H237045   6.339   6.163  19.847  0.6709 -2.9563 -1.4033
 4284TIP3   OH237046   2.859   1.269  20.508 -0.6210 -0.0007 -0.1092
 4284TIP3    H137047   2.913   1.191  20.512  0.9699  1.0869  0.6240
 4284TIP3    H237048   2.878   1.316  20.589 -2.8655  0.3384  0.2958
 4285TIP3   OH237049   3.791   5.471  19.776  0.1942  0.2844  0.3036
 4285TIP3    H137050   3.729   5.435  19.839  0.9793 -1.8052 -0.0584
 4285TIP3    H237051   3.762   5.562  19.763 -1.7722 -0.1419  1.3764
 4286TIP3   OH237052   1.221   3.325  18.172 -0.0341  0.3044  0.1656
 4286TIP3    H137053   1.132   3.344  18.142 -0.2165 -1.0579 -0.2221
 4286TIP3    H237054   1.224   3.362  18.260 -0.7657  0.9620 -0.0738
 4287TIP3   OH237055   0.004   5.919  18.217 -0.2112 -0.0880 -0.3356
 4287TIP3    H137056  -0.013   5.890  18.127  0.1014  1.0039 -0.7604
 4287TIP3    H237057   0.056   5.848  18.255  1.1767  0.2244 -1.5730
 4288TIP3   OH237058   1.980   6.640  20.950  0.1341  0.5529 -0.3094
 4288TIP3    H137059   2.050   6.694  20.987  2.3147 -0.8189 -2.1588
 4288TIP3    H237060   1.977   6.665  20.858 -0.0202 -1.2193 -0.8071
 4289TIP3   OH237061   5.274   6.545  17.797  0.2370 -0.3016  0.1170
 4289TIP3    H137062   5.217   6.473  17.824  1.7387 -1.5700  0.0432
 4289TIP3    H237063   5.280   6.536  17.702  0.6456 -0.2581  0.1370
 4290TIP3   OH237064   6.305   2.917  19.012  0.2196 -0.4207 -0.6096
 4290TIP3    H137065   6.251   2.866  18.951  1.6272 -0.5901 -1.7514
 4290TIP3    H237066   6.282   3.008  18.993  0.0453 -0.5045 -0.8077
 4291TIP3   OH237067   1.942   2.345  20.990  0.1260  0.7194 -0.4247
 4291TIP3    H137068   1.867   2.286  20.997 -0.2554  1.0941 -1.2254
 4291TIP3    H237069   1.903   2.430  20.967  0.6429  1.3442  0.9057
 4292TIP3   OH237070   1.204   5.514  19.095 -0.5143  0.1688  0.5537
 4292TIP3    H137071   1.180   5.488  19.184 -1.3487 -0.5944  0.1183
 4292TIP3    H237072   1.138   5.580  19.071  0.9180  1.9475  1.2293
 4293TIP3   OH237073   1.094   0.573  18.074  0.2525  1.2591  0.3012
 4293TIP3    H137074   1.173   0.534  18.037 -0.4482 -0.1181  0.1846
 4293TIP3    H237075   1.045   0.606  17.998 -1.1464 -1.4927 -0.1032
 4294TIP3   OH237076   2.110   0.774  19.044 -0.5310  0.2010 -0.2662
 4294TIP3    H137077   2.153   0.690  19.028  0.3417  0.3386  1.1256
 4294TIP3    H237078   2.033   0.773  18.987 -0.3197 -1.3607 -0.5815
 4295TIP3   OH237079   5.246   0.154  18.774 -0.1297  0.0051 -0.2715
 4295TIP3    H137080   5.310   0.197  18.716 -1.1102 -1.3281 -2.5160
 4295TIP3    H237081   5.223   0.074  18.727 -0.1429 -1.8133  2.5855
 4296TIP3   OH237082   6.592   1.511  20.420 -0.0347 -0.1069  0.0358
 4296TIP3    H137083   6.501   1.535  20.400 -0.3012 -0.2519  1.0241
 4296TIP3    H237084   6.597   1.418  20.400  0.4412  0.2864 -1.8496
 4297TIP3   OH237085   6.265   3.171  17.659  0.7904 -0.0044 -0.1944
 4297TIP3    H137086   6.198   3.202  17.598  2.4543  2.2555 -1.0109
 4297TIP3    H237087   6.336   3.140  17.603  1.5164  0.1627  0.6117
 4298TIP3   OH237088   0.619   6.665  19.865  0.0854  0.3382 -0.5551
 4298TIP3    H137089   0.610   6.708  19.950 -2.5537  1.5696 -1.3243
 4298TIP3    H237090   0.593   6.574  19.882  0.9807  0.2122  0.2019
 4299TIP3   OH237091   4.987   6.021  19.055  0.1054  0.1537  0.2086
 4299TIP3    H137092   5.012   5.950  19.114  1.5085  0.6490  0.2432
 4299TIP3    H237093   5.029   6.098  19.092  0.4414  0.5984 -1.0481
 4300TIP3   OH237094   0.070   2.892  20.208 -0.1549 -0.0112 -0.1109
 4300TIP3    H137095   0.042   2.800  20.210 -0.5452  0.0845 -0.8975
 4300TIP3    H237096   0.011   2.934  20.146  0.4882  0.6194 -0.3120
 4301TIP3   OH237097   6.270   1.362  18.313 -0.2974 -0.0087 -0.1009
 4301TIP3    H137098   6.240   1.347  18.402 -1.3354  0.8035 -0.2978
 4301TIP3    H237099   6.259   1.456  18.299  2.0461  0.2923 -0.3120
 4302TIP3   OH237100   5.243   4.829  19.312  0.4398  0.3899  0.9245
 4302TIP3    H137101   5.326   4.826  19.266  0.0048 -0.8617  0.1564
 4302TIP3    H237102   5.177   4.840  19.243 -0.1141  0.0808  1.3890
 4303TIP3   OH237103   1.052   0.442  20.776  1.1224  0.2043 -0.5197
 4303TIP3    H137104   1.002   0.425  20.855  1.1549 -0.5666 -0.6580
 4303TIP3    H237105   1.143   0.446  20.805  1.3448 -2.0070 -0.7634
 4304TIP3   OH237106   4.123   1.907  17.907 -0.0381  0.1337 -0.6811
 4304TIP3    H137107   4.146   1.814  17.894  0.8873  0.3777 -0.8346
 4304TIP3    H237108   4.034   1.914  17.872 -1.7626 -1.5341  2.8100
 4305TIP3   OH237109   1.467   6.655  19.432  0.6161  0.2622 -0.2912
 4305TIP3    H137110   1.373   6.670  19.421  0.2904 -1.6790 -0.4516
 4305TIP3    H237111   1.507   6.701  19.358 -0.3477 -0.2347 -1.1504
 4306TIP3   OH237112   6.148   5.152  20.402 -0.1814  0.3516 -0.3450
 4306TIP3    H137113   6.160   5.089  20.473  2.5296  0.6520 -0.4136
 4306TIP3    H237114   6.197   5.114  20.329 -0.8266  1.2478 -1.2715
 4307TIP3   OH237115   1.318   1.426  17.369 -0.2531  0.3464  0.2999
 4307TIP3    H137116   1.352   1.509  17.403  1.2172 -0.1467  0.1140
 4307TIP3    H237117   1.355   1.419  17.281 -0.6095 -0.3536  0.2011
 4308TIP3   OH237118   0.767   0.286  19.470 -0.2472 -0.6222  0.3749
 4308TIP3    H137119   0.752   0.220  19.538  0.5127 -1.1218  0.0666
 4308TIP3    H237120   0.705   0.265  19.401 -0.2347 -0.8166  0.4216
 4309TIP3   OH237121   4.258   0.095  19.325  0.0842  0.2084  0.7381
 4309TIP3    H137122   4.227   0.007  19.347  1.2508 -0.2861  0.5058
 4309TIP3    H237123   4.353   0.091  19.341  0.2167  1.2878  0.2769
 4310TIP3   OH237124   5.755   4.770  19.354  0.0393 -0.2685  0.8350
 4310TIP3    H137125   5.772   4.677  19.369  0.7005 -0.2643  0.1641
 4310TIP3    H237126   5.830   4.800  19.303 -0.5327  0.4582  0.4109
 4311TIP3   OH237127   3.762   6.639  18.057 -0.1015  0.5722  0.9908
 4311TIP3    H137128   3.838   6.625  18.000  0.0847  1.2904  1.0504
 4311TIP3    H237129   3.687   6.613  18.004  0.0620  1.3476  0.3699
 4312TIP3   OH237130   2.371   5.712  20.752 -0.1980  0.1753 -0.0168
 4312TIP3    H137131   2.330   5.722  20.838  0.8458 -0.5983  0.6069
 4312TIP3    H237132   2.447   5.771  20.755  1.6733 -2.1422  0.8477
 4313TIP3   OH237133   1.021   0.085  19.772  0.2526 -0.0327  0.0724
 4313TIP3    H137134   0.975   0.095  19.855  0.8303 -0.0340  0.4005
 4313TIP3    H237135   0.952   0.079  19.707 -0.2080 -0.0401  0.5540
 4314TIP3   OH237136   5.508   0.575  17.758 -0.2538  0.0200  0.4579
 4314TIP3    H137137   5.512   0.669  17.739 -0.6473 -0.3538 -1.6300
 4314TIP3    H237138   5.595   0.554  17.792 -0.0008  1.0309  0.4636
 4315TIP3   OH237139   5.940   5.541  18.178  0.6620 -0.7663  0.3037
 4315TIP3    H137140   5.993   5.535  18.258 -0.6958 -0.7964  1.2208
 4315TIP3    H237141   5.942   5.452  18.142 -2.2642 -1.9669  2.6886
 4316TIP3   OH237142   4.633   1.103  19.395  0.7304  0.1251  0.0628
 4316TIP3    H137143   4.722   1.072  19.384  0.5503  0.1088 -1.4489
 4316TIP3    H237144   4.579   1.045  19.341  0.0061  1.0909 -0.2943
 4317TIP3   OH237145   0.928   1.772  17.859  0.2511  0.1054 -0.0128
 4317TIP3    H137146   0.969   1.796  17.776 -0.5891 -0.8348 -0.7223
 4317TIP3    H237147   0.979   1.698  17.892 -0.4597 -0.6474 -0.5737
 4318TIP3   OH237148   5.920   1.876  18.534 -0.1398 -0.0468  0.2101
 4318TIP3    H137149   5.946   1.858  18.624  1.5998 -2.3242 -0.6322
 4318TIP3    H237150   5.990   1.932  18.500 -0.9467  1.0554  0.3438
 4319TIP3   OH237151   2.934   5.759  21.073 -0.3302 -0.5679 -0.9360
 4319TIP3    H137152   2.844   5.760  21.105 -1.2749  0.2269 -3.4098
 4319TIP3    H237153   2.967   5.847  21.092  0.4307 -1.2468  1.1337
 4320TIP3   OH237154   2.375   6.545  20.526 -0.3578 -0.0444  0.1192
 4320TIP3    H137155   2.410   6.582  20.607  0.8549  0.3204 -0.5478
 4320TIP3    H237156   2.387   6.451  20.535 -1.9621 -0.1962  1.1315
 4321TIP3   OH237157   6.262   3.711  18.225  0.0033  0.0544  0.4005
 4321TIP3    H137158   6.354   3.725  18.204 -0.5408  0.0583 -2.2932
 4321TIP3    H237159   6.244   3.621  18.200 -1.1742  0.6582 -1.0606
 4322TIP3   OH237160   0.793   2.726  20.067 -0.0430  0.4726  0.0085
 4322TIP3    H137161   0.827   2.748  20.154  0.0378 -1.9055  0.6361
 4322TIP3    H237162   0.797   2.631  20.063  0.9336  0.5357 -3.0171
 4323TIP3   OH237163   4.181   3.328  18.584 -0.5674  0.6432 -0.4655
 4323TIP3    H137164   4.217   3.415  18.602 -1.9672  1.2843 -0.6076
 4323TIP3    H237165   4.110   3.318  18.648  0.2812 -0.8804  0.2974
 4324TIP3   OH237166   4.084   5.264  19.367 -0.4732 -0.5195 -0.0041
 4324TIP3    H137167   4.035   5.310  19.299 -0.1806 -0.7104 -0.3502
 4324TIP3    H237168   4.037   5.282  19.448  0.4583  1.6593  0.1196
 4325TIP3   OH237169   2.153   3.825  17.723  0.0593 -0.1473 -0.4338
 4325TIP3    H137170   2.066   3.820  17.762 -0.3455  1.0863 -1.1260
 4325TIP3    H237171   2.143   3.790  17.635  0.1066  0.5840 -0.7393
 4326TIP3   OH237172   0.721   0.951  20.536  0.1366  0.4035 -0.1027
 4326TIP3    H137173   0.794   0.993  20.581  1.5544 -0.3976 -1.5800
 4326TIP3    H237174   0.742   0.858  20.537 -0.8483  0.1578 -0.6060
 4327TIP3   OH237175   1.054   3.447  20.932 -0.1369 -0.7170  0.1842
 4327TIP3    H137176   1.036   3.374  20.873  0.7388  1.3193 -2.8256
 4327TIP3    H237177   1.025   3.525  20.885 -2.3045  0.9262  3.7949
 4328TIP3   OH237178   2.969   3.035  17.714  0.4606  0.2608  0.3180
 4328TIP3    H137179   2.892   3.008  17.665  0.2878  1.0290  0.1563
 4328TIP3    H237180   3.034   2.966  17.697  0.8881  1.1528 -2.1327
 4329TIP3   OH237181   0.164   3.037  18.729  0.1976 -0.1467  0.0793
 4329TIP3    H137182   0.105   3.092  18.781 -0.6777  0.3710 -1.3913
 4329TIP3    H237183   0.154   2.949  18.766 -1.9684 -0.1873 -0.4725
 4330TIP3   OH237184   5.320   5.062  17.803  0.0065 -0.4006 -0.5324
 4330TIP3    H137185   5.247   5.116  17.771  1.1867  0.6356 -1.5685
 4330TIP3    H237186   5.378   5.052  17.728  2.3128  1.1406  0.9075
 4331TIP3   OH237187   6.563   0.434  19.382 -0.0084  0.1093 -0.0134
 4331TIP3    H137188   6.484   0.455  19.431 -0.3668  0.0937 -0.5730
 4331TIP3    H237189   6.582   0.513  19.332  0.1319 -0.0013 -0.1385
 4332TIP3   OH237190   2.709   1.336  18.011 -0.4101 -0.2567 -0.3452
 4332TIP3    H137191   2.657   1.344  18.092 -0.2878  0.8856 -0.3617
 4332TIP3    H237192   2.665   1.267  17.962  1.4634 -3.4357  2.1080
 4333TIP3   OH237193   2.866   2.072  19.057 -0.4153  0.4220 -0.3947
 4333TIP3    H137194   2.801   2.115  19.113 -0.0427  0.3549  0.0998
 4333TIP3    H237195   2.945   2.068  19.111  0.0225  0.5601 -1.0056
 4334TIP3   OH237196   4.363   1.732  16.927  0.1102  0.0780 -0.2707
 4334TIP3    H137197   4.422   1.790  16.975 -1.8837 -0.6516  3.4321
 4334TIP3    H237198   4.315   1.789  16.867  0.2892  1.7618  1.1331
 4335TIP3   OH237199   2.170   3.047  20.983 -0.3335  0.5877  0.5920
 4335TIP3    H137200   2.132   2.963  20.958  0.3520  0.6646 -0.8375
 4335TIP3    H237201   2.096   3.099  21.013 -1.4856  0.7916 -2.2658
 4336TIP3   OH237202   2.392   3.812  17.847 -0.3794 -0.0129 -0.0552
 4336TIP3    H137203   2.466   3.846  17.795  0.3617 -0.2884  0.7936
 4336TIP3    H237204   2.317   3.818  17.788  0.5597 -0.9363 -1.4099
 4337TIP3   OH237205   3.569   6.632  18.832  1.0494  0.1396  0.3475
 4337TIP3    H137206   3.535   6.554  18.789 -1.8820 -0.1920  2.9413
 4337TIP3    H237207   3.642   6.602  18.884  2.8357  0.0588 -2.0423
 4338TIP3   OH237208   6.466   2.756  17.902  0.3567  0.1442  0.1085
 4338TIP3    H137209   6.549   2.710  17.888  0.4864 -0.3746  2.2971
 4338TIP3    H237210   6.491   2.847  17.916  0.5639  0.0113  0.6336
 4339TIP3   OH237211   1.913   3.139  20.667 -0.0458  0.6303 -0.2468
 4339TIP3    H137212   1.891   3.230  20.689  1.0776  0.9368 -0.3455
 4339TIP3    H237213   1.929   3.141  20.573 -0.0989  0.3057 -0.2618
 4340TIP3   OH237214   0.098   4.176  18.667  0.1478  0.2007  0.2446
 4340TIP3    H137215   0.072   4.246  18.726 -1.4165 -0.1951  0.0726
 4340TIP3    H237216   0.147   4.220  18.597 -0.8536  1.1330  0.1127
 4341TIP3   OH237217   5.001   4.933  19.157  0.2425  0.1606 -0.0931
 4341TIP3    H137218   4.963   4.924  19.069  1.3750  0.7689 -0.6807
 4341TIP3    H237219   5.067   5.002  19.146 -1.0500  1.7671  1.7318
 4342TIP3   OH237220   2.618   4.551  19.778  1.1478 -0.1708  0.1478
 4342TIP3    H137221   2.684   4.533  19.845  0.4765  1.8319  1.4026
 4342TIP3    H237222   2.669   4.569  19.699  2.2648  2.7639  1.4255
 4343TIP3   OH237223   4.144   0.646  20.784 -0.4853 -0.1382 -0.0473
 4343TIP3    H137224   4.226   0.688  20.761  0.3972 -1.5737  0.3618
 4343TIP3    H237225   4.078   0.694  20.734  0.8092 -0.1285 -1.8358
 4344TIP3   OH237226   5.641   0.688  19.168 -0.3393  0.0791  0.0957
 4344TIP3    H137227   5.688   0.754  19.117 -1.7982  1.4435  0.4165
 4344TIP3    H237228   5.660   0.710  19.260  2.2149 -2.3151  0.2680
 4345TIP3   OH237229   6.153   5.546  18.388  0.2448  0.5653 -0.4894
 4345TIP3    H137230   6.191   5.632  18.369  1.0608  0.1689 -0.7127
 4345TIP3    H237231   6.087   5.563  18.454  0.2533  1.3993 -0.6822
 4346TIP3   OH237232   2.734   1.257  19.345 -0.0906  0.1652 -0.2970
 4346TIP3    H137233   2.766   1.296  19.426  2.2013  0.3547 -1.2241
 4346TIP3    H237234   2.716   1.331  19.288  1.0154 -0.0094 -0.8972
 4347TIP3   OH237235   4.658   4.997  19.622 -0.5122  0.1500  0.2847
 4347TIP3    H137236   4.669   5.059  19.550  0.9888 -0.0113  0.3482
 4347TIP3    H237237   4.602   4.929  19.586 -3.2024  2.0400  0.5733
 4348TIP3   OH237238   3.553   1.857  18.328  0.1625 -0.1787  0.8345
 4348TIP3    H137239   3.626   1.797  18.316  0.7482 -0.2568  3.9600
 4348TIP3    H237240   3.489   1.830  18.263  1.8258 -1.8597 -0.2146
 4349TIP3   OH237241   4.244   2.420  20.638 -0.2575 -0.3931 -0.1980
 4349TIP3    H137242   4.326   2.457  20.671 -0.6085  1.7022 -1.5500
 4349TIP3    H237243   4.268   2.334  20.603  1.0579 -0.4161  0.7100
 4350TIP3   OH237244   5.501   6.116  17.196  0.9023 -0.2387  0.4747
 4350TIP3    H137245   5.525   6.135  17.286  1.9260  1.3079 -0.0807
 4350TIP3    H237246   5.440   6.185  17.172  0.5611 -0.6959  0.0135
 4351TIP3   OH237247   3.406   1.546  18.847 -0.3338 -0.1968  0.3561
 4351TIP3    H137248   3.420   1.595  18.766 -0.5830 -0.9241 -0.1376
 4351TIP3    H237249   3.494   1.521  18.875 -0.3418 -1.5344 -0.7084
 4352TIP3   OH237250   4.833   4.761  20.548  0.1956 -0.0245  0.4241
 4352TIP3    H137251   4.853   4.850  20.519  0.7270 -0.2258  0.1566
 4352TIP3    H237252   4.918   4.716  20.548  0.1271 -0.1823  1.7736
 4353TIP3   OH237253   4.632   6.073  19.004 -0.2167 -0.2365  0.5214
 4353TIP3    H137254   4.573   6.094  18.932 -0.5615 -1.5763  0.3793
 4353TIP3    H237255   4.693   6.147  19.008 -0.7416  0.2747 -0.5562
 4354TIP3   OH237256   5.965   3.318  18.769 -0.6379 -0.5014 -0.2074
 4354TIP3    H137257   6.011   3.292  18.689 -0.7540  2.1626 -1.2132
 4354TIP3    H237258   5.872   3.318  18.745 -0.8953 -1.8053  0.6263
 4355TIP3   OH237259   5.049   0.254  19.324  0.2781  0.0316 -0.1515
 4355TIP3    H137260   5.120   0.317  19.337  0.4337  0.3118 -2.0225
 4355TIP3    H237261   4.969   0.305  19.335  0.4041  0.5667 -1.5053
 4356TIP3   OH237262   1.320   6.068  19.411 -0.4601 -0.5035  1.0229
 4356TIP3    H137263   1.403   6.116  19.403  0.8257 -2.7638 -0.7700
 4356TIP3    H237264   1.303   6.065  19.505  1.8617 -0.4403  1.5150
 4357TIP3   OH237265   6.350   2.404  20.538 -1.1196 -0.3315  0.0293
 4357TIP3    H137266   6.330   2.406  20.444  0.4987  0.6968 -0.3418
 4357TIP3    H237267   6.277   2.451  20.579 -2.0015 -1.0643 -0.6710
 4358TIP3   OH237268   1.671   5.020  19.951  0.2588  0.8559  0.3417
 4358TIP3    H137269   1.602   5.085  19.946  0.4430  1.0149 -0.1549
 4358TIP3    H237270   1.625   4.938  19.969 -0.1276  0.8509 -0.5929
 4359TIP3   OH237271   3.367   5.094  19.947  0.5496 -0.2321 -0.4022
 4359TIP3    H137272   3.289   5.127  19.902  1.2329 -0.7406 -2.0112
 4359TIP3    H237273   3.370   5.001  19.924  0.8380 -0.5498  0.8531
 4360TIP3   OH237274   6.580   1.961  19.006  0.0038 -0.5068  0.2755
 4360TIP3    H137275   6.609   2.027  18.945 -1.3176  0.7088  0.9007
 4360TIP3    H237276   6.553   1.887  18.951 -1.3159  0.6161 -0.6346
 4361TIP3   OH237277   0.950   4.351  18.075 -0.5897 -0.1944 -0.2081
 4361TIP3    H137278   0.960   4.396  17.991 -0.8749 -3.7747 -2.3678
 4361TIP3    H237279   1.038   4.320  18.096 -0.6236  0.2061  0.5411
 4362TIP3   OH237280   4.628   1.784  20.277 -0.2750  0.1862 -0.2383
 4362TIP3    H137281   4.564   1.846  20.312 -0.1529 -0.0751  0.4833
 4362TIP3    H237282   4.680   1.835  20.215 -0.9058  0.5086 -0.5084
 4363TIP3   OH237283   6.116   2.142  20.367  0.2626  0.4725  1.0269
 4363TIP3    H137284   6.199   2.125  20.323 -0.1818 -0.4711  0.5311
 4363TIP3    H237285   6.128   2.109  20.456  0.8018  1.4119  1.3198
 4364TIP3   OH237286   2.682   2.691  20.527  0.4178  0.4348 -0.8044
 4364TIP3    H137287   2.672   2.760  20.593 -0.2994 -0.2352 -0.1860
 4364TIP3    H237288   2.627   2.619  20.559  2.2213 -0.9669 -0.6901
 4365TIP3   OH237289   1.825   5.245  21.125  0.0622 -0.1894  0.0480
 4365TIP3    H137290   1.915   5.276  21.128  0.1394  0.0600 -2.8052
 4365TIP3    H237291   1.773   5.319  21.156  0.7716 -0.1958  1.3165
 4366TIP3   OH237292   3.174   6.336  18.831 -0.3455 -0.0999 -0.1125
 4366TIP3    H137293   3.160   6.324  18.925  0.4556  1.1869  0.1973
 4366TIP3    H237294   3.258   6.382  18.825  1.6733 -3.5994 -1.6446
 4367TIP3   OH237295   4.677   1.923  20.001 -0.3119  0.0431 -0.2659
 4367TIP3    H137296   4.678   1.968  19.917 -0.4949  3.2115  1.2686
 4367TIP3    H237297   4.769   1.903  20.018  0.1231  2.0347 -0.0038
 4368TIP3   OH237298   2.327   4.293  20.250  0.1188 -0.2076 -0.1902
 4368TIP3    H137299   2.325   4.389  20.253  0.8713 -0.1241 -1.5275
 4368TIP3    H237300   2.350   4.267  20.339  2.7543  0.9923 -0.4273
 4369TIP3   OH237301   3.303   5.805  19.553  0.1564 -0.0330  0.3249
 4369TIP3    H137302   3.340   5.807  19.464  0.5365 -1.2716  0.4314
 4369TIP3    H237303   3.356   5.741  19.599 -0.1856  0.4375  1.3929
 4370TIP3   OH237304   6.003   6.319  19.366 -0.2775 -0.4412  0.1861
 4370TIP3    H137305   5.924   6.276  19.333 -0.6810  0.5880 -0.2297
 4370TIP3    H237306   6.014   6.395  19.310  1.6334 -1.1255 -0.4459
 4371TIP3   OH237307   0.092   1.708  20.443 -0.4957 -0.6594 -0.0140
 4371TIP3    H137308   0.027   1.639  20.433  0.3991 -1.5627  0.2769
 4371TIP3    H237309   0.154   1.674  20.507  0.7325 -0.1961 -0.9055
 4372TIP3   OH237310   5.598   1.407  19.023 -0.2093  0.3073 -0.4165
 4372TIP3    H137311   5.664   1.446  18.965 -0.7311 -0.5973 -1.6477
 4372TIP3    H237312   5.593   1.316  18.996  0.6549 -0.5753  2.1307
 4373TIP3   OH237313   0.769   6.673  20.352  0.4601 -0.3336  0.0699
 4373TIP3    H137314   0.739   6.597  20.302  1.9543 -0.5572 -0.5151
 4373TIP3    H237315   0.691   6.702  20.400 -0.2779 -1.8643 -0.1510
 4374TIP3   OH237316   1.594   0.266  18.164 -0.1591  0.6690 -0.1258
 4374TIP3    H137317   1.670   0.211  18.147 -0.4625  0.1323  0.2083
 4374TIP3    H237318   1.626   0.356  18.154  0.2073  0.4279 -1.2478
 4375TIP3   OH237319   4.841   6.381  20.869 -0.0536 -0.4272 -0.0495
 4375TIP3    H137320   4.779   6.422  20.930 -0.2651  0.3626 -0.7828
 4375TIP3    H237321   4.803   6.396  20.783  0.1413 -1.7216 -0.3804
 4376TIP3   OH237322   4.037   3.954  19.424 -0.3782 -0.4155 -0.1665
 4376TIP3    H137323   4.120   3.914  19.448 -1.5782 -2.7113  0.4061
 4376TIP3    H237324   4.049   3.981  19.333  1.4967  0.8076  0.4052
 4377TIP3   OH237325   3.317   5.235  20.861  0.1162  0.1342 -0.4363
 4377TIP3    H137326   3.332   5.321  20.822 -0.0357 -0.4725 -1.9249
 4377TIP3    H237327   3.315   5.175  20.786  0.2064 -1.1655  0.5580
 4378TIP3   OH237328   2.816   0.128  20.998 -0.1468  0.3272 -0.6247
 4378TIP3    H137329   2.793   0.213  20.960  0.1807  0.6906 -0.0340
 4378TIP3    H237330   2.904   0.142  21.034 -1.2194  0.6664  2.1737
 4379TIP3   OH237331   3.025   3.323  18.244 -0.4315 -0.1362 -0.2031
 4379TIP3    H137332   3.100   3.327  18.304 -0.5557  1.1102 -0.1117
 4379TIP3    H237333   2.985   3.238  18.262  0.8809 -0.7746 -0.1698
 4380TIP3   OH237334   3.699   3.527  19.836 -0.4239  0.3902 -0.0222
 4380TIP3    H137335   3.791   3.501  19.830 -0.5842 -0.1425 -0.1844
 4380TIP3    H237336   3.683   3.535  19.930 -0.3811 -0.1314  0.0306
 4381TIP3   OH237337   5.285   6.125  20.373 -0.0025 -0.1735 -0.4569
 4381TIP3    H137338   5.219   6.123  20.304 -0.5911 -1.7570  0.1051
 4381TIP3    H237339   5.264   6.050  20.429  2.6393 -1.1466 -0.6132
 4382TIP3   OH237340   4.749   6.434  20.600  0.6178 -0.5236  0.0464
 4382TIP3    H137341   4.675   6.376  20.617  1.4319 -1.6603 -0.1109
 4382TIP3    H237342   4.759   6.432  20.504 -0.4039  1.2639 -0.1231
 4383TIP3   OH237343   3.027   6.147  19.961  0.0267 -0.1678  0.1927
 4383TIP3    H137344   2.956   6.117  19.904  1.7611  0.4138 -2.4852
 4383TIP3    H237345   2.992   6.139  20.049 -3.3433  0.0884 -0.9663
 4384TIP3   OH237346   2.701   3.765  17.604 -0.2307  0.4865 -0.1765
 4384TIP3    H137347   2.667   3.686  17.562 -0.8574 -0.0982  1.3392
 4384TIP3    H237348   2.670   3.837  17.549  1.2500 -0.3421 -2.1756
 4385TIP3   OH237349   2.669   0.004  18.083 -0.1335 -0.3823  0.0131
 4385TIP3    H137350   2.643  -0.049  18.008 -0.5269 -1.5953  0.9599
 4385TIP3    H237351   2.586   0.029  18.124  0.0901 -0.3581  0.4534
 4386TIP3   OH237352   6.197   6.096  19.740  0.3343  0.4116  0.3074
 4386TIP3    H137353   6.153   6.176  19.712 -1.0676 -0.1124  0.8867
 4386TIP3    H237354   6.146   6.025  19.702  0.6385 -0.2328  1.0516
 4387TIP3   OH237355   1.306   2.576  19.565 -0.6247  0.3589 -0.0385
 4387TIP3    H137356   1.353   2.586  19.648  0.2441 -0.7929 -0.3670
 4387TIP3    H237357   1.266   2.489  19.570  1.5614 -0.8334 -1.8272
 4388TIP3   OH237358   2.558   0.709  20.489 -0.7720  0.4176 -0.0485
 4388TIP3    H137359   2.610   0.634  20.461  2.0537  1.7473  1.1790
 4388TIP3    H237360   2.572   0.775  20.421  0.5279  1.3128  1.0221
 4389TIP3   OH237361   0.050   5.528  18.089 -0.4775  0.0014 -0.8435
 4389TIP3    H137362  -0.018   5.577  18.042 -0.1548 -0.0525 -1.3725
 4389TIP3    H237363   0.129   5.543  18.038 -0.2679 -0.6551 -0.7184
 4390TIP3   OH237364   0.182   0.454  19.644  0.3144 -0.3721 -0.5855
 4390TIP3    H137365   0.204   0.402  19.721  3.6426  0.2770 -0.9690
 4390TIP3    H237366   0.142   0.391  19.584 -0.5212 -1.3032  0.8678
 4391TIP3   OH237367   6.510   4.233  20.808 -0.4841  0.2352 -0.2635
 4391TIP3    H137368   6.588   4.227  20.863 -1.2373  0.7401  0.8888
 4391TIP3    H237369   6.474   4.144  20.808  0.3845 -0.1433 -1.2851
 4392TIP3   OH237370   2.820   6.557  20.861 -0.1392 -0.4034  0.0003
 4392TIP3    H137371   2.824   6.644  20.899  0.1103  0.5945 -2.1428
 4392TIP3    H237372   2.886   6.558  20.792 -0.9953 -1.8530 -0.8996
 4393TIP3   OH237373   1.384   2.934  19.797  0.3594 -0.5698 -0.2044
 4393TIP3    H137374   1.307   2.897  19.840  0.3985 -0.4092  0.0072
 4393TIP3    H237375   1.361   2.938  19.705  0.9580 -2.6804 -0.5156
 4394TIP3   OH237376   1.188   6.219  18.346  0.3265  0.1361 -0.1451
 4394TIP3    H137377   1.282   6.218  18.363  0.4340 -0.8803 -0.7220
 4394TIP3    H237378   1.175   6.291  18.285  0.8868 -0.3549 -0.8529
 4395TIP3   OH237379   5.500   3.761  20.905 -0.1225 -0.2370 -0.7342
 4395TIP3    H137380   5.584   3.778  20.863  0.0297 -1.5514 -0.9838
 4395TIP3    H237381   5.443   3.830  20.871 -0.0754 -1.3380 -3.2937
 4396TIP3   OH237382   6.659   6.309  19.346  0.2534  0.0566  0.0802
 4396TIP3    H137383   6.654   6.402  19.326 -1.0544 -0.1411 -0.6246
 4396TIP3    H237384   6.622   6.301  19.434  0.2214  0.1672  0.0764
 4397TIP3   OH237385   5.888   6.155  20.358  0.1012 -0.0385 -0.0160
 4397TIP3    H137386   5.933   6.103  20.291 -1.8212 -0.8251 -0.7771
 4397TIP3    H237387   5.912   6.113  20.440  0.2356 -0.8323 -0.4472
 4398TIP3   OH237388   1.821   6.630  19.282  0.0737 -0.3408  0.5786
 4398TIP3    H137389   1.781   6.716  19.268  1.0127 -0.0074 -0.1380
 4398TIP3    H237390   1.767   6.589  19.349 -2.0014 -0.2591 -0.9504
 4399TIP3   OH237391   4.906   2.040  20.766  0.0353  0.3715  0.0596
 4399TIP3    H137392   4.906   2.059  20.860  3.2530 -0.3229  0.3065
 4399TIP3    H237393   4.998   2.046  20.740 -0.5934 -0.7086 -2.8103
 4400TIP3   OH237394   2.123   5.323  20.802  0.9284 -0.1343 -0.2891
 4400TIP3    H137395   2.199   5.326  20.744  0.8174  0.5176 -0.4052
 4400TIP3    H237396   2.110   5.229  20.819  2.6808 -0.1821  0.9800
 4401TIP3   OH237397   4.975   3.143  18.649 -0.3067  0.9740 -0.7689
 4401TIP3    H137398   4.982   3.189  18.733  0.7527  1.7520 -1.2505
 4401TIP3    H237399   4.919   3.199  18.596 -1.5527  0.1326 -0.3805
 4402TIP3   OH237400   0.300   4.066  19.211  0.0146 -0.0452 -0.7218
 4402TIP3    H137401   0.275   4.043  19.121 -0.3501  0.2200 -0.6910
 4402TIP3    H237402   0.220   4.102  19.249 -0.3821 -1.8907  0.3148
 4403TIP3   OH237403   1.873   6.443  18.762  0.2014  0.3535 -0.1808
 4403TIP3    H137404   1.875   6.531  18.800 -0.2240  0.3076 -0.0493
 4403TIP3    H237405   1.817   6.393  18.821 -0.0085  0.1353 -0.5658
 4404TIP3   OH237406   4.147   1.351  18.253  0.8923 -0.3159 -0.2649
 4404TIP3    H137407   4.234   1.392  18.262  1.4809 -1.9231  2.9903
 4404TIP3    H237408   4.162   1.259  18.274 -1.4815 -0.7949 -0.4160
 4405TIP3   OH237409   2.161   5.768  18.614 -0.2523  0.1428  0.6233
 4405TIP3    H137410   2.093   5.701  18.618 -0.6952  0.5681  0.2597
 4405TIP3    H237411   2.128   5.833  18.553 -0.4937  1.4389  2.0815
 4406TIP3   OH237412   5.893   1.590  19.334  0.2124  0.1676  0.1823
 4406TIP3    H137413   5.807   1.611  19.297 -0.3647 -2.7675 -0.3933
 4406TIP3    H237414   5.953   1.594  19.259  0.1265 -0.1105  0.0983
 4407TIP3   OH237415   4.260   5.790  20.677  0.4086 -0.0140 -0.3703
 4407TIP3    H137416   4.254   5.808  20.583  0.3017 -0.0590 -0.3725
 4407TIP3    H237417   4.235   5.872  20.719  1.1246  0.2157 -0.3811
 4408TIP3   OH237418   5.621   0.728  20.978 -0.0635 -0.1335 -0.0664
 4408TIP3    H137419   5.709   0.733  20.941  0.6441  0.5525  1.6068
 4408TIP3    H237420   5.582   0.814  20.960 -0.4083 -0.4347 -0.8018
 4409TIP3   OH237421   1.256   0.255  20.217  0.0058  0.1038  0.4403
 4409TIP3    H137422   1.293   0.167  20.227  0.1297  0.0810 -0.1691
 4409TIP3    H237423   1.171   0.250  20.259  0.7982  0.2382  2.1360
 4410TIP3   OH237424   4.503   5.206  17.985  0.2983  0.6118  0.2360
 4410TIP3    H137425   4.558   5.167  17.917  1.1485  0.6202  0.8996
 4410TIP3    H237426   4.414   5.181  17.961  0.5047  1.2307 -1.2834
 4411TIP3   OH237427   4.910   1.353  18.930  0.3794  0.1597  0.9961
 4411TIP3    H137428   4.897   1.431  18.877 -0.3414 -0.5028  0.1766
 4411TIP3    H237429   4.835   1.350  18.988  0.7916  0.4775  1.5586
 4412TIP3   OH237430   0.210   2.350  19.117  0.0797  0.2640  0.7920
 4412TIP3    H137431   0.177   2.271  19.161 -0.1619  0.4396  0.9297
 4412TIP3    H237432   0.285   2.377  19.170  1.0294 -0.6541 -0.0344
 4413TIP3   OH237433   3.415   4.848  19.837  0.7524  0.2043 -0.2144
 4413TIP3    H137434   3.399   4.808  19.751 -2.9876 -0.5314  0.6359
 4413TIP3    H237435   3.460   4.780  19.887  1.0560 -0.1551 -0.9567
 4414TIP3   OH237436   0.002   4.514  19.821 -0.2127  0.4569  0.3614
 4414TIP3    H137437   0.092   4.541  19.835  0.1969 -0.3382 -0.6035
 4414TIP3    H237438  -0.022   4.555  19.737 -0.2188 -0.5772 -0.1542
 4415TIP3   OH237439   4.012   2.180  20.489 -0.3529 -0.0702  0.0208
 4415TIP3    H137440   3.998   2.087  20.506 -3.4609  0.1732 -0.5949
 4415TIP3    H237441   4.106   2.188  20.473 -0.2323 -3.4432 -1.8967
 4416TIP3   OH237442   5.044   2.296  19.826  0.9941 -0.4109  0.2069
 4416TIP3    H137443   5.051   2.362  19.895  0.8894 -1.0225  0.8081
 4416TIP3    H237444   5.114   2.233  19.845  0.6896 -0.8188  0.0070
 4417TIP3   OH237445   0.156   4.530  17.931 -0.2253  0.3514 -0.3875
 4417TIP3    H137446   0.074   4.546  17.884 -1.4711 -1.0781  1.1709
 4417TIP3    H237447   0.164   4.434  17.933  0.1090  0.3839  1.7098
 4418TIP3   OH237448   5.439   5.271  19.108  0.1720 -0.0599 -0.0413
 4418TIP3    H137449   5.500   5.332  19.067  0.0772 -1.0052 -1.6496
 4418TIP3    H237450   5.384   5.326  19.164 -1.2161  1.6696 -2.9339
 4419TIP3   OH237451   3.266   4.719  19.263 -0.5949 -0.1356  0.0646
 4419TIP3    H137452   3.261   4.749  19.354 -0.7719 -0.4338  0.1535
 4419TIP3    H237453   3.359   4.699  19.250 -0.6276 -0.4432  0.2938
 4420TIP3   OH237454   5.504   4.710  18.363  0.4720 -0.8478  0.4247
 4420TIP3    H137455   5.518   4.629  18.411  1.8886 -2.4601 -2.4263
 4420TIP3    H237456   5.574   4.711  18.297 -0.6519  1.7465 -0.8653
 4421TIP3   OH237457   5.043   0.291  18.435 -0.0961  0.2910  0.2664
 4421TIP3    H137458   4.979   0.226  18.407 -1.2479  1.6307 -0.3989
 4421TIP3    H237459   5.125   0.243  18.446 -1.2686 -1.5210  1.3702
 4422TIP3   OH237460   2.400   0.224  20.553  0.2427 -0.8514 -0.4626
 4422TIP3    H137461   2.374   0.174  20.630 -0.1688 -0.4257 -0.3188
 4422TIP3    H237462   2.496   0.227  20.558  0.2327 -1.0437 -0.1027
 4423TIP3   OH237463   3.734   0.291  17.565  0.5254  0.3212  0.4829
 4423TIP3    H137464   3.813   0.343  17.547 -0.0426  1.4257  1.0462
 4423TIP3    H237465   3.764   0.224  17.627  0.9988  0.8436  0.8392
 4424TIP3   OH237466   0.030   5.276  20.706  0.7113 -0.2304 -0.2990
 4424TIP3    H137467   0.036   5.354  20.651  0.2307 -0.2236 -0.3421
 4424TIP3    H237468  -0.039   5.223  20.666  0.2076 -0.1270  0.4042
 4425TIP3   OH237469   1.099   1.453  18.233  0.0732  0.9912  0.2809
 4425TIP3    H137470   1.159   1.393  18.187  1.7647  1.1830  2.1161
 4425TIP3    H237471   1.086   1.412  18.318  0.2715  2.6102  1.1124
 4426TIP3   OH237472   1.880   2.464  18.701  0.2194 -0.3923  0.7116
 4426TIP3    H137473   1.919   2.377  18.694 -0.5051 -0.6870  0.2658
 4426TIP3    H237474   1.795   2.449  18.743  0.7354  0.2878  2.0719
 4427TIP3   OH237475   3.960   2.426  18.068  0.2204  0.6810  0.0237
 4427TIP3    H137476   3.962   2.504  18.013 -0.9307  1.4646  1.0618
 4427TIP3    H237477   3.971   2.354  18.006 -0.3421  1.5771 -1.1633
 4428TIP3   OH237478   3.763   1.753  19.414  0.0772 -0.1841 -0.3065
 4428TIP3    H137479   3.746   1.668  19.455 -0.1710  0.0195  0.0200
 4428TIP3    H237480   3.724   1.817  19.474  0.1996  0.1550 -0.5832
 4429TIP3   OH237481   2.407   1.804  19.307 -0.1999 -0.3187  0.2915
 4429TIP3    H137482   2.467   1.852  19.364 -0.0109  0.9203 -0.8812
 4429TIP3    H237483   2.447   1.718  19.296 -0.3336 -0.6537  2.1262
 4430TIP3   OH237484   0.728   2.813  19.154 -0.4281  0.1311 -0.0114
 4430TIP3    H137485   0.790   2.796  19.083  3.1585  2.6435  2.2167
 4430TIP3    H237486   0.700   2.725  19.181  2.6138 -1.2676 -0.8649
 4431TIP3   OH237487   4.113   0.528  20.442  0.1721  0.2937 -0.5303
 4431TIP3    H137488   4.199   0.568  20.436  0.9386 -1.3737 -1.4901
 4431TIP3    H237489   4.107   0.474  20.363 -1.3403 -0.4269  0.0431
 4432TIP3   OH237490   3.323   4.130  18.259 -0.1513 -0.4155 -0.0394
 4432TIP3    H137491   3.242   4.105  18.213  0.5560 -1.5125 -0.7505
 4432TIP3    H237492   3.387   4.142  18.188  0.2232  0.8353  0.4888
 4433TIP3   OH237493   2.271   1.373  20.088  0.2381 -0.1059 -0.0135
 4433TIP3    H137494   2.189   1.332  20.116 -0.0234  0.2393 -0.2733
 4433TIP3    H237495   2.339   1.316  20.123 -0.1298 -1.6991 -1.7393
 4434TIP3   OH237496   4.948   3.389  21.003  0.1184 -0.2100 -0.1997
 4434TIP3    H137497   4.897   3.440  20.939  0.8317  1.5442  0.5662
 4434TIP3    H237498   5.038   3.415  20.987  0.2542  0.8186  1.9417
 4435TIP3   OH237499   0.758   4.937  18.876  0.2710 -0.1125  0.0016
 4435TIP3    H137500   0.810   4.953  18.955  1.0827 -2.0688 -0.0804
 4435TIP3    H237501   0.815   4.964  18.804 -0.1370  0.8458  0.0146
 4436TIP3   OH237502   0.251   2.460  19.512  0.2168 -0.5609 -0.0941
 4436TIP3    H137503   0.261   2.551  19.484  0.4944 -0.7582 -0.6386
 4436TIP3    H237504   0.276   2.408  19.436 -0.4417 -1.0942  0.0414
 4437TIP3   OH237505   6.393   0.631  19.979  0.5487  0.6742  0.5357
 4437TIP3    H137506   6.480   0.596  19.959  1.2386  3.5619 -2.6661
 4437TIP3    H237507   6.409   0.699  20.045  0.6293  0.7789  0.4090
 4438TIP3   OH237508   4.286   2.380  20.225  0.2403  0.0407  0.3488
 4438TIP3    H137509   4.217   2.382  20.159 -1.8659  5.3068  2.1689
 4438TIP3    H237510   4.365   2.407  20.178 -0.5704  0.9310 -0.5459
 4439TIP3   OH237511   4.807   6.679  20.703  0.1148  0.6800 -0.3263
 4439TIP3    H137512   4.779   6.723  20.623 -1.6247  0.0583 -0.1115
 4439TIP3    H237513   4.793   6.586  20.685  1.2283  0.3989  0.1542
 4440TIP3   OH237514   0.043   2.096  18.294 -0.4713 -0.4424 -0.4079
 4440TIP3    H137515   0.034   2.139  18.379 -0.0187  1.0022 -1.0551
 4440TIP3    H237516   0.017   2.005  18.310  0.1600 -0.3455  1.3948
 4441TIP3   OH237517   0.671   5.760  20.491 -0.3134 -0.0336 -0.0573
 4441TIP3    H137518   0.721   5.783  20.569  0.8792 -2.1775 -0.1354
 4441TIP3    H237519   0.705   5.819  20.424  1.6311 -0.9023  0.0849
 4442TIP3   OH237520   6.368   1.716  19.296  0.9532 -0.4476  0.6333
 4442TIP3    H137521   6.283   1.760  19.300 -0.2363 -2.6510  1.8310
 4442TIP3    H237522   6.383   1.701  19.203 -0.3057 -0.5593  0.4281
 4443TIP3   OH237523   5.716   0.491  18.850 -0.1729  0.5323  0.8527
 4443TIP3    H137524   5.644   0.533  18.803  1.3969  0.9928 -1.3248
 4443TIP3    H237525   5.673   0.433  18.913 -2.4113  2.2298  1.0302
 4444TIP3   OH237526   6.543   4.949  19.302 -0.9743 -0.0956 -0.1797
 4444TIP3    H137527   6.531   5.006  19.226 -0.0448  1.9768  1.1347
 4444TIP3    H237528   6.480   4.981  19.366 -1.7705 -1.8324 -0.0414
 4445TIP3   OH237529   3.809   4.185  21.231 -0.1735 -0.0159 -0.6399
 4445TIP3    H137530   3.893   4.227  21.251  0.0618 -0.4752 -0.6396
 4445TIP3    H237531   3.808   4.107  21.287 -1.5629  1.1019  0.9940
 4446TIP3   OH237532   1.652   3.349  18.010  0.3181  0.2355 -0.0065
 4446TIP3    H137533   1.709   3.424  17.993 -0.2205  0.3317 -1.5634
 4446TIP3    H237534   1.681   3.283  17.947  0.7765 -0.8855  1.3458
 4447TIP3   OH237535   1.511   1.442  19.092  0.4403 -0.0947  0.2514
 4447TIP3    H137536   1.537   1.443  19.184 -2.2300 -1.4937  1.1102
 4447TIP3    H237537   1.542   1.527  19.058  0.7075  0.8390  2.6491
 4448TIP3   OH237538   3.733   0.551  19.758  0.0771  0.3531  0.0537
 4448TIP3    H137539   3.788   0.616  19.713 -1.2418  0.9639 -0.7239
 4448TIP3    H237540   3.666   0.603  19.802 -0.6955 -0.4568 -0.1528
 4449TIP3   OH237541   6.680   4.163  21.022  0.2201  0.1228  0.0514
 4449TIP3    H137542   6.763   4.179  20.977  0.6797  1.8200  1.3802
 4449TIP3    H237543   6.673   4.068  21.026  1.8995 -0.0592 -0.4605
 4450TIP3   OH237544   3.429   1.777  20.507 -0.2966  0.9838 -0.1873
 4450TIP3    H137545   3.455   1.823  20.586  2.1107 -1.0174  0.3072
 4450TIP3    H237546   3.490   1.808  20.440 -0.9846  1.1308 -0.7611
 4451TIP3   OH237547   2.912   2.061  18.781  0.3713 -0.1455  0.8082
 4451TIP3    H137548   2.937   2.143  18.739 -1.4191 -0.3311 -0.7766
 4451TIP3    H237549   2.893   2.085  18.872  1.6246  0.8101  0.8451
 4452TIP3   OH237550   6.272   2.754  20.263 -0.4516  0.1338  0.4229
 4452TIP3    H137551   6.217   2.789  20.333  0.1626 -1.3752  1.7101
 4452TIP3    H237552   6.264   2.659  20.271  2.7684 -0.2067  1.0755
 4453TIP3   OH237553   5.668   5.945  18.120 -0.4826  0.0155  0.7675
 4453TIP3    H137554   5.751   5.898  18.108 -0.2738 -0.3495  3.2149
 4453TIP3    H237555   5.605   5.877  18.144 -1.5535  0.2988 -1.0158
 4454TIP3   OH237556   2.668   3.113  20.042 -0.1902  0.0496  0.4744
 4454TIP3    H137557   2.624   3.131  19.959  2.3270 -1.6276 -1.4002
 4454TIP3    H237558   2.740   3.176  20.045 -1.2392  1.2541  2.3379
 4455TIP3   OH237559   6.362   0.909  19.330 -0.4330 -0.2933 -0.0005
 4455TIP3    H137560   6.333   0.856  19.404  1.0162  1.6797  2.1281
 4455TIP3    H237561   6.290   0.970  19.314 -0.3630 -0.0971  0.4337
 4456TIP3   OH237562   0.887   5.515  17.714  0.3767 -0.0378 -0.6095
 4456TIP3    H137563   0.907   5.569  17.791 -1.6333  0.4357 -0.3654
 4456TIP3    H237564   0.793   5.527  17.700  0.6416 -0.2984 -3.0200
 4457TIP3   OH237565   4.109   2.193  19.638  0.7847  0.0226 -0.0479
 4457TIP3    H137566   4.164   2.272  19.636  1.3024 -0.3536 -1.2302
 4457TIP3    H237567   4.172   2.121  19.644  0.3397 -0.3392  0.2856
 4458TIP3   OH237568   0.896   2.574  19.412  0.9630  0.1344 -0.3612
 4458TIP3    H137569   0.944   2.630  19.351  2.3769 -0.5754  0.0707
 4458TIP3    H237570   0.867   2.500  19.360  2.1055 -0.4341 -0.2080
 4459TIP3   OH237571   2.917   3.154  20.367  1.1103 -0.0836  0.2059
 4459TIP3    H137572   2.957   3.068  20.363  1.3969  0.0719 -0.5019
 4459TIP3    H237573   2.975   3.206  20.423  0.0666 -0.7754  2.0216
 4460TIP3   OH237574   5.427   2.837  17.409 -0.2992 -0.3612  0.4252
 4460TIP3    H137575   5.478   2.913  17.380 -0.4462 -0.8225 -1.1158
 4460TIP3    H237576   5.348   2.875  17.448  0.8281  0.3324  2.1632
 4461TIP3   OH237577   0.125   5.845  18.681 -0.1101 -0.5589 -0.3919
 4461TIP3    H137578   0.035   5.875  18.687  0.0073  0.1435 -1.7952
 4461TIP3    H237579   0.164   5.898  18.611  1.6713 -0.1682  0.8358
 4462TIP3   OH237580   5.783   4.068  19.048  0.2069  0.3589 -0.7102
 4462TIP3    H137581   5.793   4.025  18.963 -0.0356 -0.8712 -0.1418
 4462TIP3    H237582   5.688   4.070  19.062  0.3095 -1.1376  0.3470
 4463TIP3   OH237583   4.970   4.038  20.436 -0.0226 -0.0597 -0.1526
 4463TIP3    H137584   5.065   4.025  20.436 -0.1820 -1.2589  0.1029
 4463TIP3    H237585   4.952   4.084  20.518  0.0453 -2.2685  1.1786
 4464TIP3   OH237586   3.684   5.859  20.833  0.7898 -0.3053 -0.1291
 4464TIP3    H137587   3.709   5.941  20.792  0.7510  0.5313  1.4428
 4464TIP3    H237588   3.604   5.879  20.881  0.2733 -1.5020 -0.4589
 4465TIP3   OH237589   1.032   5.239  21.128  0.9836 -0.3227  0.1201
 4465TIP3    H137590   1.096   5.171  21.149  0.8439 -0.6919 -0.6209
 4465TIP3    H237591   1.016   5.229  21.034 -0.3187 -0.3655  0.3340
 4466TIP3   OH237592   2.909   6.572  19.365 -0.3819 -0.0032 -0.2463
 4466TIP3    H137593   2.888   6.626  19.441 -0.2682 -0.3922  0.0645
 4466TIP3    H237594   3.004   6.574  19.359 -0.4470  1.0238 -1.1167
 4467TIP3   OH237595   2.289   6.251  19.641 -0.3787 -0.3699  0.6855
 4467TIP3    H137596   2.209   6.267  19.591 -1.5500 -0.5812  2.4191
 4467TIP3    H237597   2.351   6.216  19.577 -0.2373  3.5636 -1.6667
 4468TIP3   OH237598   5.960   2.682  20.633 -0.3474 -0.5646  0.0456
 4468TIP3    H137599   5.893   2.741  20.597 -0.2800  0.5613  1.6459
 4468TIP3    H237600   5.920   2.647  20.713  0.6412 -0.5348  0.5629
 4469TIP3   OH237601   1.731   0.543  18.426  0.3264 -0.3170 -0.0379
 4469TIP3    H137602   1.807   0.581  18.471  0.7956  0.1851 -1.2200
 4469TIP3    H237603   1.719   0.597  18.349 -0.4138 -1.2123 -0.5727
 4470TIP3   OH237604   1.539   5.851  19.238  0.1395 -0.7873 -0.9504
 4470TIP3    H137605   1.570   5.828  19.326  0.8793  1.8679 -0.4458
 4470TIP3    H237606   1.449   5.881  19.252  0.6994  0.9076 -0.8580
 4471TIP3   OH237607   1.887   2.205  18.209  0.1176 -0.3527 -0.6791
 4471TIP3    H137608   1.876   2.118  18.247  0.6704 -0.4809 -0.7962
 4471TIP3    H237609   1.839   2.263  18.267  2.2532 -0.3176  1.2035
 4472TIP3   OH237610   0.279   3.666  20.041  0.0302 -0.2905  0.3619
 4472TIP3    H137611   0.313   3.593  20.092 -2.5491 -1.9018 -0.0681
 4472TIP3    H237612   0.283   3.740  20.102  1.5313 -1.0138  1.2213
 4473TIP3   OH237613   6.403   2.498  19.942 -0.0918  0.4916 -0.0436
 4473TIP3    H137614   6.460   2.471  20.014  0.4420  0.7100 -0.3771
 4473TIP3    H237615   6.389   2.592  19.956  1.0860  0.8280 -0.9334
 4474TIP3   OH237616   1.325   2.349  19.124  0.2264  0.3294 -0.0975
 4474TIP3    H137617   1.325   2.397  19.041 -2.2351  0.5315 -0.0742
 4474TIP3    H237618   1.353   2.413  19.189  0.9913  0.5246 -0.6088
 4475TIP3   OH237619   4.827   5.217  19.101 -0.0201  0.1849  0.2934
 4475TIP3    H137620   4.820   5.163  19.023  3.0926 -1.1410  0.8273
 4475TIP3    H237621   4.740   5.258  19.108 -0.5425  0.1995 -3.6519
 4476TIP3   OH237622   1.022   2.171  20.603 -0.0406 -0.4459  0.0602
 4476TIP3    H137623   1.082   2.097  20.612 -1.5434 -1.7022  0.1620
 4476TIP3    H237624   0.981   2.158  20.517  0.3235  0.7867 -0.3189
 4477TIP3   OH237625   5.762   2.262  20.829 -0.4946  0.3083  0.2148
 4477TIP3    H137626   5.799   2.263  20.917 -0.9842 -1.4160  0.4908
 4477TIP3    H237627   5.690   2.324  20.832  0.5683  1.5735  0.4936
 4478TIP3   OH237628   0.437   0.500  18.540 -0.2362  0.5891  0.0142
 4478TIP3    H137629   0.351   0.492  18.499 -0.8006  1.3026  1.0013
 4478TIP3    H237630   0.490   0.547  18.476 -0.3285 -0.5673 -0.9399
 4479TIP3   OH237631   2.235   5.300  18.473 -0.1474  0.1154  0.0289
 4479TIP3    H137632   2.282   5.298  18.390  0.9637  0.7744  0.6177
 4479TIP3    H237633   2.144   5.315  18.449  0.0204 -0.5609 -1.1063
 4480TIP3   OH237634   3.522   3.420  20.312  0.0557  0.0403  0.1158
 4480TIP3    H137635   3.591   3.484  20.331 -0.0547  0.4938 -0.9561
 4480TIP3    H237636   3.521   3.414  20.216 -0.1886 -1.2962  0.1887
 4481TIP3   OH237637   3.568   4.510  20.636  0.2399  0.0217  0.2295
 4481TIP3    H137638   3.494   4.529  20.694 -0.1412  0.2288 -0.3112
 4481TIP3    H237639   3.601   4.426  20.666  1.4992  1.1546  2.2180
 4482TIP3   OH237640   1.052   1.366  20.113  0.3702 -0.4954  0.0453
 4482TIP3    H137641   1.104   1.301  20.065  0.5187 -0.9342  0.7826
 4482TIP3    H237642   1.113   1.400  20.179 -1.0016 -3.1164  2.8942
 4483TIP3   OH237643   5.519   5.006  19.579 -0.0063  0.2351 -0.1402
 4483TIP3    H137644   5.570   5.086  19.595  0.5873 -0.0913 -0.3802
 4483TIP3    H237645   5.431   5.028  19.610 -0.4319  1.7364 -2.1778
 4484TIP3   OH237646   6.290   0.498  20.189  0.0808 -0.2713  0.0482
 4484TIP3    H137647   6.332   0.531  20.110  1.4555 -0.4322  0.6796
 4484TIP3    H237648   6.347   0.525  20.260 -0.7886 -0.6854  0.9414
 4485TIP3   OH237649   5.607   2.470  20.071  0.3526  0.1285 -0.2032
 4485TIP3    H137650   5.619   2.530  19.997  2.7710 -0.5894 -0.4893
 4485TIP3    H237651   5.652   2.512  20.144 -1.6903  0.6513  0.8113
 4486TIP3   OH237652   5.245   5.134  21.028 -0.3957 -0.0017  0.4972
 4486TIP3    H137653   5.288   5.048  21.030 -1.2561 -0.4463  0.2729
 4486TIP3    H237654   5.165   5.122  21.079 -1.2442  0.2632 -0.7478
 4487TIP3   OH237655   6.299   2.792  19.890  0.1490  0.1782 -0.1718
 4487TIP3    H137656   6.325   2.867  19.944  0.8459  0.3098 -0.6773
 4487TIP3    H237657   6.327   2.816  19.801 -0.3644 -0.3326 -0.4722
 4488TIP3   OH237658   1.110   3.071  20.162 -0.6320 -0.0457  0.2234
 4488TIP3    H137659   1.198   3.038  20.144  0.8183  2.5203  1.9763
 4488TIP3    H237660   1.104   3.153  20.112 -1.8078  0.1469  0.6394
 4489TIP3   OH237661   5.946   6.009  20.599  0.1041 -0.0680 -0.4590
 4489TIP3    H137662   5.881   6.020  20.668 -1.4001 -0.0697 -1.8115
 4489TIP3    H237663   5.947   5.916  20.580  0.9406 -0.1516 -0.0722
 4490TIP3   OH237664   6.106   0.926  19.053 -0.3224  0.1123  0.8715
 4490TIP3    H137665   6.106   0.981  19.131 -3.9262  1.2719  0.2516
 4490TIP3    H237666   6.100   0.988  18.980  0.3790 -1.0207 -0.2002
 4491TIP3   OH237667   0.373   2.439  20.573 -0.3701  0.1713 -0.7751
 4491TIP3    H137668   0.400   2.494  20.500  1.9410  0.7716  0.4302
 4491TIP3    H237669   0.439   2.369  20.577 -2.3674 -1.8506 -1.3005
 4492TIP3   OH237670   0.960   3.427  18.078 -0.0745  0.3497 -0.6409
 4492TIP3    H137671   0.965   3.486  18.153 -0.3270 -0.7354  0.2513
 4492TIP3    H237672   0.867   3.422  18.057 -0.1741 -0.5931 -0.0028
 4493TIP3   OH237673   3.813   3.682  21.221 -0.2669  0.2424 -0.7682
 4493TIP3    H137674   3.814   3.598  21.175 -0.2417  0.0210 -0.3689
 4493TIP3    H237675   3.736   3.677  21.278 -0.0772  0.3574 -0.4982
 4494TIP3   OH237676   3.222   4.807  20.852  0.3623 -0.0358  1.0292
 4494TIP3    H137677   3.230   4.765  20.766 -0.2832 -1.1137  1.4772
 4494TIP3    H237678   3.311   4.802  20.888  0.3912 -0.6299  0.8934
 4495TIP3   OH237679   1.497   3.742  19.773 -0.8372  0.0293  0.2501
 4495TIP3    H137680   1.524   3.812  19.713  1.4138  0.0613  1.2171
 4495TIP3    H237681   1.491   3.785  19.858  3.6649 -1.3700  1.5164
 4496TIP3   OH237682   4.485   5.985  20.765  0.0991  0.6899  0.1892
 4496TIP3    H137683   4.413   5.925  20.779 -0.4132  0.8591 -1.5679
 4496TIP3    H237684   4.546   5.938  20.708  1.4760  0.4959  1.7484
 4497TIP3   OH237685   4.684   0.230  18.483 -0.2620 -0.7435  0.1421
 4497TIP3    H137686   4.620   0.294  18.513 -0.8134 -1.1779 -0.0883
 4497TIP3    H237687   4.712   0.185  18.562  0.9672  0.5059  0.4681
 4498TIP3   OH237688   2.352   6.005  18.619 -0.4890  0.1542 -0.3259
 4498TIP3    H137689   2.276   5.949  18.606 -0.5442  0.1580 -0.0114
 4498TIP3    H237690   2.377   5.991  18.710 -1.1853  1.4881  0.0975
 4499TIP3   OH237691   0.236   4.983  20.561 -0.3978 -0.0197 -0.8782
 4499TIP3    H137692   0.167   5.005  20.624 -0.2742  1.1331 -1.1207
 4499TIP3    H237693   0.288   4.917  20.605  0.1532  1.3311  0.5859
 4500TIP3   OH237694   5.048   1.491  19.746 -0.4935 -0.6275  0.2115
 4500TIP3    H137695   5.115   1.532  19.692 -0.9686  0.5755  0.4893
 4500TIP3    H237696   5.086   1.408  19.774 -0.0124 -1.0039 -1.4760
 4501TIP3   OH237697   6.420   0.594  20.436 -0.3725  0.5885  0.7541
 4501TIP3    H137698   6.398   0.524  20.498 -0.0970 -2.6822 -2.5462
 4501TIP3    H237699   6.515   0.586  20.424 -0.7395 -0.5773 -1.8756
 4502TIP3   OH237700   6.621   5.276  20.357  0.1420  0.4451 -0.0506
 4502TIP3    H137701   6.608   5.181  20.354 -0.2774  0.3971  1.9698
 4502TIP3    H237702   6.534   5.312  20.370  0.3845  1.0534 -0.0985
 4503TIP3   OH237703   4.171   3.720  19.163  0.2750  0.2912  0.3546
 4503TIP3    H137704   4.176   3.628  19.187  0.0604  0.2103  0.0872
 4503TIP3    H237705   4.078   3.735  19.142  0.5134  0.2700 -0.7884
 4504TIP3   OH237706   6.063   4.061  18.745 -0.4738  0.3243 -0.2635
 4504TIP3    H137707   6.018   4.099  18.670  1.3808  1.6878 -0.7485
 4504TIP3    H237708   6.042   4.120  18.818 -1.1077 -0.1924 -0.0207
 4505TIP3   OH237709   0.185   3.759  18.849 -0.0319  0.3418  0.0756
 4505TIP3    H137710   0.140   3.823  18.905  0.5656  0.1407  0.8055
 4505TIP3    H237711   0.172   3.792  18.760  1.3184  2.2167  0.5044
 4506TIP3   OH237712   4.620   6.023  18.291  0.3194 -0.7935  0.2772
 4506TIP3    H137713   4.647   6.081  18.219 -0.4131 -1.7383 -0.8065
 4506TIP3    H237714   4.536   6.060  18.320  0.0107 -1.1066 -0.1966
 4507TIP3   OH237715   4.591   6.410  19.494 -0.1049 -0.1587  0.2759
 4507TIP3    H137716   4.558   6.404  19.404 -0.5386 -0.5827  0.4580
 4507TIP3    H237717   4.642   6.330  19.506 -0.7258 -0.4927  0.6774
 4508TIP3   OH237718   3.961   3.322  17.635  0.5987 -0.1086  0.0040
 4508TIP3    H137719   3.889   3.351  17.691 -0.3372  0.8395 -1.5987
 4508TIP3    H237720   3.962   3.227  17.645 -0.7363 -0.1225  0.2610
 4509TIP3   OH237721   3.107   6.243  18.541 -0.2304 -0.2738  0.2996
 4509TIP3    H137722   3.130   6.274  18.628 -1.3596  1.1142  0.1344
 4509TIP3    H237723   3.055   6.313  18.503  0.3183 -0.8013 -1.5478
 4510TIP3   OH237724   4.860   2.823  19.457 -0.3110  0.4492  0.2093
 4510TIP3    H137725   4.822   2.755  19.512 -0.9716 -0.0952 -0.8777
 4510TIP3    H237726   4.951   2.797  19.446 -0.0037  0.8898  1.5049
 4511TIP3   OH237727   4.101   2.465  19.121 -0.4051 -0.3899  0.5042
 4511TIP3    H137728   4.184   2.487  19.079 -0.5035  1.5731  1.2429
 4511TIP3    H237729   4.043   2.443  19.048  0.0252  0.8421 -0.2524
 4512TIP3   OH237730   0.010   1.331  20.757  0.5014  0.6755  0.2206
 4512TIP3    H137731  -0.054   1.271  20.794  1.7092 -0.6054  0.3473
 4512TIP3    H237732   0.007   1.408  20.814 -0.8317  0.6108  0.2698
 4513TIP3   OH237733   5.977   4.685  20.871 -0.0761 -0.0538 -0.6691
 4513TIP3    H137734   5.909   4.728  20.924  0.2170 -0.2282 -0.1495
 4513TIP3    H237735   6.037   4.648  20.935  0.6845  0.3677 -1.1322
 4514TIP3   OH237736   6.395   2.251  19.787  0.1414 -0.2805  0.1227
 4514TIP3    H137737   6.413   2.317  19.854  1.7259 -0.2130 -0.3296
 4514TIP3    H237738   6.424   2.169  19.827  1.1765 -0.2289 -0.4934
 4515TIP3   OH237739   3.180   4.592  19.632 -0.0807 -0.0897 -0.3156
 4515TIP3    H137740   3.090   4.601  19.662  0.0440 -0.1981  0.0885
 4515TIP3    H237741   3.203   4.679  19.598 -0.9166 -0.4977 -2.0423
 4516TIP3   OH237742   1.973   2.462  17.909  0.2635 -0.5475  0.2014
 4516TIP3    H137743   2.045   2.431  17.855 -0.0312 -0.5692 -0.1845
 4516TIP3    H237744   1.920   2.384  17.925  0.1555 -0.4694  0.2205
 4517TIP3   OH237745   6.101   5.699  19.032  0.5193 -0.0902  0.2762
 4517TIP3    H137746   6.123   5.652  19.113 -2.8459  1.9698  2.6540
 4517TIP3    H237747   6.009   5.676  19.016 -0.3180  3.1040 -0.1883
 4518TIP3   OH237748   2.015   0.340  18.262 -0.3059 -0.6377 -0.3340
 4518TIP3    H137749   2.090   0.284  18.241 -1.3241 -1.8368 -0.9688
 4518TIP3    H237750   1.976   0.300  18.339  0.4920  0.8179  0.8779
 4519TIP3   OH237751   3.530   2.069  20.078  0.8363  0.3504 -0.0103
 4519TIP3    H137752   3.538   2.128  20.003  2.0033  0.1525 -0.0603
 4519TIP3    H237753   3.472   2.116  20.139  1.7782  1.5978 -0.0163
 4520TIP3   OH237754   0.776   1.231  18.982  0.0185 -0.1121 -0.0775
 4520TIP3    H137755   0.745   1.314  19.019  1.1073 -0.5717  2.0207
 4520TIP3    H237756   0.697   1.192  18.943 -0.7970  1.2650  0.1103
 4521TIP3   OH237757   4.241   6.627  18.888  0.1905 -0.9288  0.2782
 4521TIP3    H137758   4.203   6.714  18.901 -0.3067 -0.9473 -0.9261
 4521TIP3    H237759   4.299   6.615  18.964 -0.2430  0.1655  0.8123
 4522TIP3   OH237760   0.233   1.159  20.765 -0.3265 -1.0471 -0.1362
 4522TIP3    H137761   0.251   1.130  20.854  0.0821 -1.4437 -0.3439
 4522TIP3    H237762   0.177   1.236  20.776  0.8772 -0.2329  0.5128
 4523TIP3   OH237763   0.658   4.280  20.914 -0.1545 -0.6298 -0.0657
 4523TIP3    H137764   0.705   4.313  20.990  0.2886 -0.5292 -0.3790
 4523TIP3    H237765   0.725   4.274  20.845 -0.7221  0.1180 -0.6977
 4524TIP3   OH237766   4.847   1.620  17.764 -0.4297 -0.7517 -0.8399
 4524TIP3    H137767   4.880   1.648  17.679 -1.8106 -0.2906 -1.2414
 4524TIP3    H237768   4.753   1.635  17.760 -0.6350 -1.5142  0.4719
 4525TIP3   OH237769   6.096   1.549  20.796 -0.1175  0.3003 -0.2255
 4525TIP3    H137770   6.064   1.459  20.784  1.5436 -0.1704 -1.5795
 4525TIP3    H237771   6.038   1.602  20.743 -0.2411 -0.1738 -0.5741
 4526TIP3   OH237772   2.712   5.597  18.332 -0.1336  0.5192 -0.6037
 4526TIP3    H137773   2.714   5.503  18.311 -2.1252  0.6029 -1.2913
 4526TIP3    H237774   2.621   5.623  18.321  0.3476  2.5303 -0.2656
 4527TIP3   OH237775   3.536   4.172  18.101  0.3829 -0.4506 -0.0533
 4527TIP3    H137776   3.591   4.108  18.056 -0.1366 -0.2888 -0.9584
 4527TIP3    H237777   3.563   4.168  18.192  1.0529 -1.2348 -0.2773
 4528TIP3   OH237778   4.901   1.222  20.388  0.1660 -0.0354  0.5082
 4528TIP3    H137779   4.969   1.254  20.448 -0.3004  0.5855  0.7190
 4528TIP3    H237780   4.880   1.297  20.332 -0.9594  0.0658  1.0260
 4529TIP3   OH237781   3.241   2.129  17.809 -0.0801  0.0080 -0.1027
 4529TIP3    H137782   3.282   2.186  17.744 -1.8922  0.5106 -0.8536
 4529TIP3    H237783   3.288   2.148  17.890  1.9137 -0.2851 -1.1229
 4530TIP3   OH237784   2.008   1.588  20.197 -0.7630 -0.1483 -0.0752
 4530TIP3    H137785   2.069   1.540  20.141 -2.2826 -1.1144 -0.9424
 4530TIP3    H237786   1.936   1.613  20.139 -2.1847 -0.8078  1.3292
 4531TIP3   OH237787   4.662   6.371  17.279  0.0881 -0.2299 -0.2489
 4531TIP3    H137788   4.571   6.353  17.255  0.6834 -0.4783 -2.5552
 4531TIP3    H237789   4.660   6.461  17.311 -0.7244  0.4148 -1.9856
 4532TIP3   OH237790   5.701   1.157  18.451 -0.1060 -0.2819  0.2831
 4532TIP3    H137791   5.794   1.144  18.470 -0.3126  0.2738  1.8139
 4532TIP3    H237792   5.662   1.180  18.535 -1.4354  0.6377 -0.5374
 4533TIP3   OH237793   1.669   4.576  18.476  0.0203  0.3840 -0.0650
 4533TIP3    H137794   1.649   4.659  18.433 -0.9012 -0.4583 -1.3188
 4533TIP3    H237795   1.728   4.531  18.415  1.0887  0.3743  0.9267
 4534TIP3   OH237796   5.954   0.504  20.548 -0.0694 -0.1044 -0.5694
 4534TIP3    H137797   5.963   0.512  20.453 -0.5042 -0.7255 -0.6755
 4534TIP3    H237798   5.864   0.530  20.566  0.4910  1.6321 -0.1083
 4535TIP3   OH237799   3.312   4.971  18.271  0.3596 -0.1161 -0.5684
 4535TIP3    H137800   3.249   5.011  18.331  2.0302  0.3158  1.0055
 4535TIP3    H237801   3.315   4.879  18.297  0.4538 -0.1164 -0.5799
 4536TIP3   OH237802   0.996   2.956  20.939 -0.1599  0.1613  0.1634
 4536TIP3    H137803   1.005   2.947  21.034  1.3965  3.4732  0.4698
 4536TIP3    H237804   1.050   2.885  20.904  1.7455  0.6654  1.8482
 4537TIP3   OH237805   2.699   4.562  21.220 -0.3295 -0.5291 -0.4113
 4537TIP3    H137806   2.737   4.585  21.135  0.0630 -0.0686 -0.1151
 4537TIP3    H237807   2.763   4.503  21.260  0.6653  1.1056  0.5539
 4538TIP3   OH237808   3.580   6.352  19.944  0.4703 -0.5546  0.6270
 4538TIP3    H137809   3.557   6.316  19.858  0.3884  2.7882 -0.9299
 4538TIP3    H237810   3.666   6.315  19.964  1.3998  0.0120 -1.9207
 4539TIP3   OH237811   3.627   1.242  18.007  0.3608 -0.5695  0.1758
 4539TIP3    H137812   3.666   1.259  17.921  1.2196  1.9664  0.9877
 4539TIP3    H237813   3.683   1.288  18.069 -0.8930 -1.3716  2.0106
 4540TIP3   OH237814   0.492   2.186  20.855 -0.3450  0.2169  0.7925
 4540TIP3    H137815   0.560   2.249  20.877  0.7159 -0.3359 -0.7223
 4540TIP3    H237816   0.491   2.184  20.759 -1.1509 -1.1897  0.7957
 4541TIP3   OH237817   0.698   1.157  18.311  0.4482 -0.1938 -0.4992
 4541TIP3    H137818   0.620   1.140  18.363  1.1145  0.0991  0.6263
 4541TIP3    H237819   0.746   1.074  18.314 -0.0419 -0.5438 -1.6313
 4542TIP3   OH237820   3.917   5.578  20.007  0.1922  0.3585 -0.6491
 4542TIP3    H137821   3.850   5.546  19.946  0.0763 -0.6540 -0.0243
 4542TIP3    H237822   3.968   5.640  19.956 -0.5949  0.3828 -1.4425
 4543TIP3   OH237823   4.419   6.144  18.102  0.4926 -0.3290  0.1213
 4543TIP3    H137824   4.401   6.232  18.071 -1.1021 -0.3235  0.9348
 4543TIP3    H237825   4.454   6.098  18.025  0.1308  0.6586 -0.6549
 4544TIP3   OH237826   1.269   0.500  20.356  0.1932 -0.2052 -0.2223
 4544TIP3    H137827   1.289   0.554  20.279  0.3631 -0.1125 -0.1120
 4544TIP3    H237828   1.287   0.410  20.327 -1.1090 -0.3166 -0.7494
 4545TIP3   OH237829   3.181   0.815  19.718  0.1896  0.2260 -0.1261
 4545TIP3    H137830   3.274   0.839  19.714  0.4116 -0.6936 -0.7447
 4545TIP3    H237831   3.138   0.878  19.660  0.0464  2.2080  1.9966
 4546TIP3   OH237832   4.683   0.319  20.665 -0.0844  0.3190  0.0686
 4546TIP3    H137833   4.592   0.292  20.681 -0.3714 -0.7597 -2.8108
 4546TIP3    H237834   4.682   0.414  20.681 -2.0614  0.5478 -1.0058
 4547TIP3   OH237835   4.073   6.133  19.333 -0.2172 -0.3868  0.2413
 4547TIP3    H137836   3.990   6.088  19.347 -1.6968  1.4030 -2.0929
 4547TIP3    H237837   4.052   6.226  19.343  1.8453  0.0406  1.0269
 4548TIP3   OH237838   4.182   3.839  20.056  0.9781  0.4023 -0.1957
 4548TIP3    H137839   4.233   3.872  19.982  2.9406 -2.0988 -0.1269
 4548TIP3    H237840   4.243   3.844  20.130 -0.4120  1.3668  0.9396
 4549TIP3   OH237841   2.942   4.500  20.752 -0.1115 -0.1328 -0.1623
 4549TIP3    H137842   2.973   4.427  20.806 -0.4785 -0.2762 -0.1415
 4549TIP3    H237843   2.890   4.458  20.682  0.2943  0.0568 -0.5805
 4550TIP3   OH237844   2.123   6.333  20.356 -0.8619 -0.0667 -0.0623
 4550TIP3    H137845   2.216   6.330  20.333 -0.8351 -0.0612  0.0442
 4550TIP3    H237846   2.089   6.248  20.328 -0.7352 -0.2285  0.2692
 4551TIP3   OH237847   1.896   3.110  20.388 -0.1100 -0.3307  0.6557
 4551TIP3    H137848   1.935   3.023  20.394  1.9268  0.3139 -1.6015
 4551TIP3    H237849   1.803   3.094  20.374  0.1464 -2.1259  0.7905
 4552TIP3   OH237850   3.705   0.734  19.245 -0.2149  0.1839  0.7814
 4552TIP3    H137851   3.796   0.706  19.257 -0.6911 -1.2132  1.4063
 4552TIP3    H237852   3.711   0.820  19.204  1.3810  0.0223  0.6225
 4553TIP3   OH237853   2.428   5.962  20.551  0.7068 -0.7041  0.1038
 4553TIP3    H137854   2.458   5.871  20.555 -1.9582 -1.6447  0.7693
 4553TIP3    H237855   2.379   5.968  20.469  0.7656  0.1119  0.1183
 4554TIP3   OH237856   1.280   2.886  21.384 -0.6859 -0.3657 -0.3353
 4554TIP3    H137857   1.249   2.894  21.474  2.8076 -1.1564  1.1037
 4554TIP3    H237858   1.330   2.966  21.368  1.1863 -1.4831 -0.4018
 4555TIP3   OH237859   5.858   4.033  18.154 -0.3915  0.4877  0.2700
 4555TIP3    H137860   5.863   4.006  18.246 -0.5796  2.0809  0.7812
 4555TIP3    H237861   5.948   4.031  18.123 -0.0288  1.9449  1.1292
 4556TIP3   OH237862   1.971   3.527  18.860  0.4540 -0.2158  0.4564
 4556TIP3    H137863   1.909   3.515  18.788  1.5908 -0.0340 -0.5817
 4556TIP3    H237864   2.053   3.489  18.828  1.5024  1.5799  0.8733
 4557TIP3   OH237865   2.656   2.197  19.172  0.2780 -0.5572 -0.2173
 4557TIP3    H137866   2.662   2.270  19.233 -0.6419 -1.1936  0.6768
 4557TIP3    H237867   2.576   2.213  19.122  1.0545 -0.0106 -1.3366
 4558TIP3   OH237868   4.596   4.258  19.624  0.0313  0.1188 -0.0143
 4558TIP3    H137869   4.666   4.323  19.620 -0.1827  0.3383 -0.3304
 4558TIP3    H237870   4.592   4.223  19.535  1.6981 -2.0223  0.6782
 4559TIP3   OH237871   6.344   0.861  20.258  0.1313  0.1623  0.2682
 4559TIP3    H137872   6.266   0.840  20.310  0.6185 -1.6255  0.3457
 4559TIP3    H237873   6.313   0.924  20.193 -0.9433  0.9014  1.4555
 4560TIP3   OH237874   0.669   4.831  21.224  0.2193  0.0029 -0.1393
 4560TIP3    H137875   0.650   4.760  21.285  1.9792 -2.1445 -1.9234
 4560TIP3    H237876   0.765   4.833  21.219  0.1805  1.8934 -0.8676
 4561TIP3   OH237877   4.832   1.462  20.637  0.1516  0.0090 -0.2872
 4561TIP3    H137878   4.770   1.518  20.684  2.1189  2.6790 -0.6131
 4561TIP3    H237879   4.819   1.485  20.545 -0.8713 -2.1968 -0.7647
 4562TIP3   OH237880   5.633   0.452  19.551  0.4909  0.1219  0.4588
 4562TIP3    H137881   5.722   0.443  19.518 -0.2862 -2.0973 -1.2985
 4562TIP3    H237882   5.596   0.364  19.542 -1.8397  0.9592  1.2728
 4563TIP3   OH237883   5.525   3.872  18.283  0.4481  0.1666  0.5396
 4563TIP3    H137884   5.471   3.865  18.204 -1.1491  0.8017  1.5295
 4563TIP3    H237885   5.550   3.781  18.302  1.1455  0.0324 -0.8492
 4564TIP3   OH237886   3.497   6.050  19.160  0.4213  0.0336  0.3991
 4564TIP3    H137887   3.457   6.020  19.078  1.3753  1.5639 -0.6899
 4564TIP3    H237888   3.467   6.140  19.170  1.0285  0.1562  1.2635
 4565TIP3   OH237889   3.593   1.141  20.777  0.2953  0.2156 -0.1168
 4565TIP3    H137890   3.582   1.207  20.846  2.7264 -1.0334  1.6526
 4565TIP3    H237891   3.665   1.174  20.724  1.1993 -0.7245  0.4849
 4566TIP3   OH237892   2.467   0.681  18.424  0.5174 -0.5142  0.0380
 4566TIP3    H137893   2.472   0.652  18.515 -2.3819 -0.0534  0.4534
 4566TIP3    H237894   2.533   0.751  18.417 -0.7959  1.1191  2.5329
 4567TIP3   OH237895   5.384   0.231  19.762 -0.4948 -0.2824 -0.2691
 4567TIP3    H137896   5.393   0.295  19.833 -0.0864  1.4750 -1.8191
 4567TIP3    H237897   5.341   0.279  19.691  0.4614 -1.5006 -1.7536
 4568TIP3   OH237898   1.887   4.815  18.145 -0.6489  0.3679 -0.1215
 4568TIP3    H137899   1.845   4.840  18.063 -1.2089 -1.6722 -0.5067
 4568TIP3    H237900   1.814   4.802  18.206 -0.3942 -0.3071  0.0453
 4569TIP3   OH237901   1.894   2.530  19.079 -0.0833 -0.1714  0.1026
 4569TIP3    H137902   1.986   2.552  19.065 -0.1840 -0.1740 -0.5922
 4569TIP3    H237903   1.890   2.435  19.070 -0.0057 -0.2614  1.0062
 4570TIP3   OH237904   0.869   6.082  19.255  0.1332 -0.0422  0.1699
 4570TIP3    H137905   0.929   6.087  19.181  0.7343  0.7852  0.7022
 4570TIP3    H237906   0.925   6.075  19.332 -0.4389  0.5750  0.6633
 4571TIP3   OH237907   2.211   3.561  17.978  0.7421 -0.4268  0.7412
 4571TIP3    H137908   2.267   3.484  17.969  0.8304 -0.2759 -0.0526
 4571TIP3    H237909   2.272   3.634  17.988  0.7162 -0.2010 -0.5952
 4572TIP3   OH237910   4.894   0.656  20.453 -0.2316 -0.2405 -0.7763
 4572TIP3    H137911   4.969   0.714  20.467  3.2969 -4.1783 -1.3400
 4572TIP3    H237912   4.868   0.672  20.362  0.0131  1.0747 -0.6268
 4573TIP3   OH237913   3.341   3.168  18.358  0.1069  0.3052  0.1863
 4573TIP3    H137914   3.370   3.082  18.391 -0.1088  0.3851  0.5842
 4573TIP3    H237915   3.312   3.215  18.436 -2.9073 -0.4327 -0.3729
 4574TIP3   OH237916   1.690   4.504  20.534 -0.0452  0.3639 -0.7030
 4574TIP3    H137917   1.601   4.469  20.522 -0.0889  0.2493 -0.0805
 4574TIP3    H237918   1.746   4.445  20.483 -0.1409 -0.5170  0.1800
 4575TIP3   OH237919   6.068   1.284  19.040 -0.3072 -0.2651  0.6287
 4575TIP3    H137920   6.063   1.200  18.994 -0.7743 -0.7736  1.5790
 4575TIP3    H237921   6.080   1.260  19.132 -0.5858  0.7112  0.9289
 4576TIP3   OH237922   0.719   1.112  17.370 -0.4621  0.1102  0.2499
 4576TIP3    H137923   0.764   1.030  17.393 -1.7358 -0.2195  1.7774
 4576TIP3    H237924   0.659   1.087  17.301  0.7082  0.2670 -0.8573
 4577TIP3   OH237925   4.069   2.676  20.425  0.1670  0.2787 -0.3967
 4577TIP3    H137926   4.107   2.750  20.378  0.3133  0.4832  0.0380
 4577TIP3    H237927   4.053   2.609  20.358  1.3890  0.1510 -0.5688
 4578TIP3   OH237928   4.666   2.392  20.519  0.0389 -0.1322 -0.3958
 4578TIP3    H137929   4.621   2.349  20.446 -1.5538  1.9887 -0.7825
 4578TIP3    H237930   4.713   2.465  20.477  0.1790  0.3297  0.5438
 4579TIP3   OH237931   5.572   6.673  20.225 -0.4235  0.6082 -0.8755
 4579TIP3    H137932   5.589   6.630  20.309 -1.0442  1.7322 -0.1574
 4579TIP3    H237933   5.507   6.617  20.182 -0.3798  0.2310 -0.4595
 4580TIP3   OH237934   5.297   0.498  19.157 -0.3065 -0.2442  0.7986
 4580TIP3    H137935   5.252   0.581  19.174 -0.6932 -0.0506 -0.9394
 4580TIP3    H237936   5.258   0.466  19.076  2.4510 -0.1973 -0.6869
 4581TIP3   OH237937   5.908   6.257  20.868 -0.4260 -0.5828  0.4649
 4581TIP3    H137938   5.874   6.302  20.945  0.9530 -1.4799  1.6470
 4581TIP3    H237939   5.843   6.190  20.848  0.2311 -1.8024  2.2467
 4582TIP3   OH237940   0.166   6.301  20.958 -0.2969 -0.6150  0.0482
 4582TIP3    H137941   0.143   6.208  20.947 -0.3565 -0.5814 -0.1104
 4582TIP3    H237942   0.122   6.345  20.885  0.2307 -0.5414 -0.2254
 4583TIP3   OH237943   3.447   6.118  20.333 -0.2860  0.4321  0.1063
 4583TIP3    H137944   3.459   6.061  20.257  1.2681 -1.3131  1.5458
 4583TIP3    H237945   3.469   6.206  20.302 -1.8890  0.1711 -1.9785
 4584TIP3   OH237946   1.400   2.938  19.030  0.1435  0.0491 -0.2141
 4584TIP3    H137947   1.429   2.946  19.120  0.2627  0.1846 -0.2658
 4584TIP3    H237948   1.467   2.981  18.978  1.1708 -1.8316 -0.5501
 4585TIP3   OH237949   4.758   6.573  20.332  0.3885  0.2551 -0.0095
 4585TIP3    H137950   4.735   6.647  20.388  1.7930 -0.7416  1.9987
 4585TIP3    H237951   4.826   6.607  20.274 -0.2152  0.9890 -0.2994
 4586TIP3   OH237952   1.124   1.746  19.794 -0.0210 -0.1207 -0.1797
 4586TIP3    H137953   1.147   1.692  19.869  1.1070 -0.5395 -0.8069
 4586TIP3    H237954   1.067   1.691  19.740 -0.8422  0.1852  0.3617
 4587TIP3   OH237955   0.978   2.427  20.697  0.5940 -0.3162  0.4718
 4587TIP3    H137956   0.968   2.337  20.666 -0.0712  0.4112 -1.5495
 4587TIP3    H237957   1.047   2.464  20.642 -0.4079  0.9398  0.0101
 4588TIP3   OH237958   5.592   0.532  21.165 -0.0429 -0.2763 -0.1788
 4588TIP3    H137959   5.540   0.568  21.237  0.0180 -1.4337  0.4606
 4588TIP3    H237960   5.582   0.597  21.094  0.7742  1.4339  1.1903
 4589TIP3   OH237961   3.244   5.579  18.883 -0.3346  0.3916  0.2983
 4589TIP3    H137962   3.338   5.578  18.897 -0.2391 -1.5282 -0.2075
 4589TIP3    H237963   3.229   5.653  18.824  1.2003 -0.7171 -1.5949
 4590TIP3   OH237964   5.208   1.688  20.386  0.9756  0.8854 -0.3794
 4590TIP3    H137965   5.114   1.671  20.387  1.2326 -0.8244 -0.9688
 4590TIP3    H237966   5.217   1.772  20.341 -0.2241  0.4720 -1.4704
 4591TIP3   OH237967   2.181   1.197  18.334  0.6371  0.1777 -0.3303
 4591TIP3    H137968   2.173   1.214  18.240 -0.4033 -2.2390 -0.7642
 4591TIP3    H237969   2.100   1.230  18.372  0.1465 -0.6742 -0.6193
 4592TIP3   OH237970   2.640   4.414  18.605 -0.5803  0.5899  0.0032
 4592TIP3    H137971   2.684   4.440  18.685  0.4963 -0.3271 -0.2579
 4592TIP3    H237972   2.595   4.332  18.627 -1.4305  1.0571  0.0314
 4593TIP3   OH237973   1.995   1.159  20.520  0.2443  0.2788  0.1789
 4593TIP3    H137974   1.993   1.229  20.455  0.5969 -1.1752 -1.4702
 4593TIP3    H237975   1.936   1.188  20.589  1.1329  2.6304  0.0275
 4594TIP3   OH237976   0.590   2.385  18.969 -0.1814 -0.5919  0.1767
 4594TIP3    H137977   0.568   2.299  19.006  1.3123 -1.3924 -0.7430
 4594TIP3    H237978   0.653   2.367  18.900 -1.3380  1.0665 -1.4264
 4595TIP3   OH237979   5.990   2.367  18.126 -0.0703 -0.2507 -0.3083
 4595TIP3    H137980   6.069   2.374  18.074 -0.3913  1.9301 -0.6032
 4595TIP3    H237981   5.968   2.274  18.125  1.2154 -0.5792 -2.1090
 4596TIP3   OH237982   4.380   1.435  20.565 -0.1445 -0.1218  0.6275
 4596TIP3    H137983   4.340   1.373  20.504  1.8239 -0.4372 -0.4228
 4596TIP3    H237984   4.382   1.388  20.649 -1.3299 -0.3284  0.5568
 4597TIP3   OH237985   3.752   0.323  19.602  0.0519  0.2867 -1.0777
 4597TIP3    H137986   3.723   0.346  19.514  0.2699  0.8359 -1.0067
 4597TIP3    H237987   3.724   0.396  19.657  0.1470  0.0683 -0.7342
 4598TIP3   OH237988   6.098   6.329  19.974 -0.0768 -0.7735  0.0717
 4598TIP3    H137989   6.154   6.404  19.954  0.5370 -1.1350  0.4298
 4598TIP3    H237990   6.024   6.339  19.914  0.6369 -0.5981 -0.8109
 4599TIP3   OH237991   5.715   3.664  20.400  0.1891 -0.5246 -0.1954
 4599TIP3    H137992   5.740   3.747  20.359  2.9712 -0.6644  1.0125
 4599TIP3    H237993   5.694   3.687  20.491 -1.7457 -0.8160 -0.5237
 4600TIP3   OH237994   6.228   3.928  17.719 -0.0767 -0.1688 -0.5559
 4600TIP3    H137995   6.136   3.904  17.722  0.1696 -1.1902  2.4892
 4600TIP3    H237996   6.260   3.890  17.637 -1.9299 -1.5929 -0.6840
 4601TIP3   OH237997   3.718   4.733  19.773  0.5336 -0.3761  0.0922
 4601TIP3    H137998   3.685   4.660  19.721  0.5094 -0.1913 -0.1550
 4601TIP3    H237999   3.798   4.761  19.728  1.9142 -1.7923  1.5207
 4602TIP3   OH238000   4.268   3.067  18.864  0.1874 -0.0384 -0.1611
 4602TIP3    H138001   4.316   2.997  18.907  2.0371  1.1072 -0.2476
 4602TIP3    H238002   4.322   3.090  18.788  0.2433  2.2190  0.4972
 4603TIP3   OH238003   4.218   0.661  19.988 -0.1202  0.0667  0.6651
 4603TIP3    H138004   4.144   0.637  20.044 -0.8909 -0.0401 -0.3762
 4603TIP3    H238005   4.191   0.635  19.900  1.4312 -0.5855  0.3547
 4604TIP3   OH238006   5.683   1.262  20.400  0.0533  0.4241  0.4155
 4604TIP3    H138007   5.710   1.171  20.398 -0.1143  0.3875 -1.0789
 4604TIP3    H238008   5.640   1.277  20.316  0.5561  2.0253  0.3946
 4605TIP3   OH238009   1.247   4.196  19.005  0.5393  0.3350  0.3488
 4605TIP3    H138010   1.219   4.165  19.091 -0.9447  1.0169  0.1438
 4605TIP3    H238011   1.258   4.290  19.016  1.5245  0.2595  0.0817
 4606TIP3   OH238012   1.854   1.991  21.024 -0.3340  0.7334 -0.0783
 4606TIP3    H138013   1.785   2.031  21.076 -0.8521  1.3751 -1.2201
 4606TIP3    H238014   1.808   1.926  20.970  0.5962 -2.2817  2.4322
 4607TIP3   OH238015   4.563   0.864  17.707 -0.8180 -0.0775  0.5398
 4607TIP3    H138016   4.621   0.941  17.709 -0.2721 -0.2849 -2.2608
 4607TIP3    H238017   4.496   0.887  17.643 -0.7453 -1.8459 -0.2307
 4608TIP3   OH238018   1.925   0.057  19.728 -0.1029 -0.1818  0.0660
 4608TIP3    H138019   1.862   0.007  19.779 -0.8246 -0.4111 -1.0298
 4608TIP3    H238020   1.924   0.017  19.641  0.6134  0.6238 -0.3326
 4609TIP3   OH238021   1.285   3.866  20.083 -0.5177 -0.3714 -0.1706
 4609TIP3    H138022   1.260   3.860  19.991 -1.0803 -0.5794 -0.0088
 4609TIP3    H238023   1.206   3.840  20.131 -0.1680 -0.4646  0.3653
 4610TIP3   OH238024   4.939   2.386  18.436  0.0610 -0.8824 -0.2072
 4610TIP3    H138025   4.910   2.431  18.515 -1.7044 -1.8955 -0.2107
 4610TIP3    H238026   5.003   2.323  18.467  0.1477 -0.5718  0.2649
 4611TIP3   OH238027   5.033   1.842  21.085 -0.5929  0.0082  0.0700
 4611TIP3    H138028   4.983   1.792  21.150  0.5884  0.7794  1.6278
 4611TIP3    H238029   5.085   1.777  21.039  0.0037 -0.3635  1.2326
 4612TIP3   OH238030   5.195   4.151  19.333  0.2253  0.3158  0.2188
 4612TIP3    H138031   5.136   4.219  19.363  0.0719  0.1301  0.3427
 4612TIP3    H238032   5.184   4.080  19.396 -0.1952 -0.1338 -0.3486
 4613TIP3   OH238033   2.874   2.404  18.832 -0.3933 -0.6525  0.6124
 4613TIP3    H138034   2.933   2.388  18.759 -0.5334 -1.5193  0.6742
 4613TIP3    H238035   2.786   2.401  18.793 -0.4176  0.7085  0.5036
 4614TIP3   OH238036   0.283   3.911  20.904 -0.1188 -0.2412  0.7836
 4614TIP3    H138037   0.288   3.817  20.923  0.1971 -0.4758 -0.4242
 4614TIP3    H238038   0.189   3.931  20.908 -0.4245 -1.0978 -1.1908
 4615TIP3   OH238039   3.686   4.424  18.020  0.7006 -0.0569  0.3382
 4615TIP3    H138040   3.764   4.370  18.009  0.7720  0.1111  0.0248
 4615TIP3    H238041   3.615   4.361  18.034  0.4435 -0.3532 -1.9099
 4616TIP3   OH238042   4.154   2.634  17.869  0.2138 -0.0857  0.0539
 4616TIP3    H138043   4.208   2.624  17.948  0.6130  1.4880  0.0122
 4616TIP3    H238044   4.216   2.638  17.797 -0.1744 -2.0278 -0.4384
 4617TIP3   OH238045   4.181   3.110  19.901 -0.0310 -0.6871  0.3147
 4617TIP3    H138046   4.091   3.080  19.892 -0.1210 -0.5913  0.9001
 4617TIP3    H238047   4.176   3.188  19.955  0.4498 -0.9504  0.7501
 4618TIP3   OH238048   0.955   4.869  21.207  0.0341  0.4921 -0.4383
 4618TIP3    H138049   0.982   4.833  21.123  2.6598  0.3260  0.3860
 4618TIP3    H238050   1.029   4.922  21.235 -0.2104 -0.4931  2.3648
 4619TIP3   OH238051   2.436   3.997  21.373  0.0323  0.3455 -0.2840
 4619TIP3    H138052   2.401   4.052  21.304 -0.4509  0.6536  0.1974
 4619TIP3    H238053   2.531   4.000  21.361 -0.0077  1.0657 -0.4298
 4620TIP3   OH238054   6.068   5.723  18.728 -0.0947 -0.3683 -0.2226
 4620TIP3    H138055   6.137   5.784  18.700 -0.8804  0.5713 -0.1384
 4620TIP3    H238056   6.106   5.678  18.803  0.9157 -0.7958 -0.9624
 4621TIP3   OH238057   3.053   4.928  17.636  0.3733  0.2569 -0.0265
 4621TIP3    H138058   3.139   4.902  17.605  0.3055 -0.6627  0.5400
 4621TIP3    H238059   3.018   4.851  17.680 -0.0704  1.1194  1.1802
 4622TIP3   OH238060   0.327   6.495  20.641 -0.6748 -0.0419  0.6198
 4622TIP3    H138061   0.240   6.458  20.651 -1.1421  0.1752 -1.8334
 4622TIP3    H238062   0.365   6.448  20.567  0.0560  1.9229 -0.3401
 4623TIP3   OH238063   0.001   3.190  19.222 -0.2915 -0.4467 -0.2422
 4623TIP3    H138064  -0.066   3.121  19.221 -1.7799  0.8804 -2.7558
 4623TIP3    H238065   0.051   3.176  19.141  1.2612 -0.2397  0.6361
 4624TIP3   OH238066   4.874   5.887  20.383  0.3057  0.0841 -0.5715
 4624TIP3    H138067   4.870   5.854  20.293 -0.4421  1.0154 -0.8899
 4624TIP3    H238068   4.948   5.841  20.422  1.6798  0.8781 -2.1497
 4625TIP3   OH238069   5.739   2.175  17.685 -0.0884  0.1165  0.1167
 4625TIP3    H138070   5.810   2.233  17.660 -0.9591  0.8773 -0.6781
 4625TIP3    H238071   5.662   2.209  17.638 -1.1903 -0.0897  1.6785
 4626TIP3   OH238072   3.375   1.042  18.805  0.2538  0.2437  0.2210
 4626TIP3    H138073   3.422   1.017  18.725 -1.5380 -0.2427 -0.7398
 4626TIP3    H238074   3.319   0.967  18.824 -0.1110  0.7823  1.3603
 4627TIP3   OH238075   5.339   0.841  19.306  0.2776  0.0228 -0.4015
 4627TIP3    H138076   5.332   0.919  19.361 -0.8092  0.4506 -1.1066
 4627TIP3    H238077   5.389   0.779  19.359 -0.1735  0.6419  0.8047
 4628TIP3   OH238078   0.377   2.615  18.595 -0.3086 -0.2762  0.4707
 4628TIP3    H138079   0.405   2.705  18.579 -1.1042 -0.3754 -1.8334
 4628TIP3    H238080   0.295   2.623  18.643 -1.3255  0.3513 -1.2739
 4629TIP3   OH238081   4.644   1.518  20.415  0.2427 -0.1191  0.1444
 4629TIP3    H138082   4.594   1.599  20.418 -0.0442 -0.3215  0.9396
 4629TIP3    H238083   4.595   1.457  20.468 -0.9118 -1.6289 -2.4752
 4630TIP3   OH238084   1.084   0.854  20.108  0.2461 -0.3981 -0.0070
 4630TIP3    H138085   1.017   0.856  20.177  0.4081  0.9573  0.1251
 4630TIP3    H238086   1.033   0.843  20.027 -0.2712  1.7109 -0.0204
 4631TIP3   OH238087   2.955   3.429  20.283  0.0028  0.1224 -0.1372
 4631TIP3    H138088   3.031   3.377  20.255  0.1029 -0.0217  0.3955
 4631TIP3    H238089   2.993   3.501  20.333 -0.2969 -1.0432  1.8731
 4632TIP3   OH238090   3.366   2.289  17.604 -0.1368 -0.2054  0.1588
 4632TIP3    H138091   3.282   2.267  17.564 -0.0404 -2.2757  0.9995
 4632TIP3    H238092   3.430   2.271  17.536 -0.1651 -1.4204  0.4354
 4633TIP3   OH238093   2.890   0.100  18.858  0.5234 -0.1862  0.0352
 4633TIP3    H138094   2.808   0.094  18.906 -0.1793 -1.0489 -1.1966
 4633TIP3    H238095   2.940   0.023  18.884  0.6268 -0.0541  0.2291
 4634TIP3   OH238096   6.219   6.608  19.951  0.2467 -0.0340  0.4384
 4634TIP3    H138097   6.232   6.700  19.931  0.3396 -0.2363 -0.4884
 4634TIP3    H238098   6.237   6.601  20.045  0.8096  0.7832  0.4043
 4635TIP3   OH238099   1.544   5.745  21.019  0.3091 -0.2072  0.5370
 4635TIP3    H138100   1.487   5.808  21.062 -0.3776 -1.2801  1.2431
 4635TIP3    H238101   1.508   5.660  21.043  0.6353 -0.8739 -1.1659
 4636TIP3   OH238102   3.977   0.813  20.351  0.8552  0.3729  0.6318
 4636TIP3    H138103   3.949   0.900  20.320 -1.8341  0.1493  2.1442
 4636TIP3    H238104   4.072   0.818  20.352  0.8490  2.5756 -1.3308
 4637TIP3   OH238105   4.902   3.797  20.664  0.4848 -0.4823  0.2719
 4637TIP3    H138106   4.845   3.820  20.590  1.3408 -1.4585 -0.7063
 4637TIP3    H238107   4.865   3.716  20.698 -0.6220  0.5640  1.7201
 4638TIP3   OH238108   6.410   4.501  18.424 -0.0459 -0.0283  0.1276
 4638TIP3    H138109   6.373   4.531  18.342 -0.8550  0.9696  0.8275
 4638TIP3    H238110   6.363   4.551  18.491 -1.3464 -2.7097  1.3670
 4639TIP3   OH238111   2.091   0.906  20.418  0.2293  0.4822  0.4304
 4639TIP3    H138112   2.031   0.979  20.436  1.0343  1.3237 -0.2404
 4639TIP3    H238113   2.075   0.883  20.327  1.2726  1.0362  0.1043
 4640TIP3   OH238114   4.578   0.953  18.691 -0.5067  0.1484 -0.2443
 4640TIP3    H138115   4.590   0.925  18.781 -2.4756 -0.0602 -0.0128
 4640TIP3    H238116   4.645   1.020  18.677 -1.2543  1.4204  1.9200
 4641TIP3   OH238117   6.346   3.609  20.377 -0.2012  0.3257 -0.0017
 4641TIP3    H138118   6.438   3.583  20.383 -0.5930 -1.0957  0.2628
 4641TIP3    H238119   6.348   3.705  20.376  1.3911  0.3343 -1.8731
 4642TIP3   OH238120   2.740   4.187  18.987 -0.0145  0.0809 -0.2595
 4642TIP3    H138121   2.763   4.141  19.067  1.7793 -0.3449 -0.9830
 4642TIP3    H238122   2.747   4.121  18.918  3.7219  1.5210 -1.4907
 4643TIP3   OH238123   1.703   5.517  17.600 -0.4925 -0.1865  0.4835
 4643TIP3    H138124   1.647   5.468  17.660 -1.0216 -0.4609 -0.2143
 4643TIP3    H238125   1.648   5.533  17.523  0.7490 -1.6528 -0.8139
 4644TIP3   OH238126   0.610   2.007  18.142  0.1127  0.2727  0.2206
 4644TIP3    H138127   0.658   1.953  18.205  1.3779 -0.2768 -1.1827
 4644TIP3    H238128   0.625   2.097  18.172  0.5443  0.0174  0.8026
 4645TIP3   OH238129   1.801   4.027  19.507 -0.2912  0.4176 -0.4551
 4645TIP3    H138130   1.768   4.062  19.424 -0.0954  0.1777 -0.6401
 4645TIP3    H238131   1.888   4.066  19.517 -0.1584  0.1526 -0.5567
 4646TIP3   OH238132   6.074   6.003  20.923  0.1354 -0.2065 -0.3993
 4646TIP3    H138133   6.153   5.952  20.903 -0.2796 -0.6757 -0.8899
 4646TIP3    H238134   6.047   6.040  20.839  0.1766  0.4677 -0.1219
 4647TIP3   OH238135   1.197   3.015  18.158  0.4581 -0.0100  0.4309
 4647TIP3    H138136   1.180   2.989  18.068 -1.6384 -2.1686  1.3442
 4647TIP3    H238137   1.287   3.048  18.157 -0.0235  1.5607 -2.7025
 4648TIP3   OH238138   4.771   5.574  19.606  0.0025 -0.1114  0.7021
 4648TIP3    H138139   4.787   5.668  19.597 -1.1114  0.1157  0.9278
 4648TIP3    H238140   4.792   5.555  19.697 -0.5255  0.0903  0.8716
 4649TIP3   OH238141   4.239   5.548  17.643  0.1974  0.0605 -0.1509
 4649TIP3    H138142   4.278   5.515  17.724  0.2703 -1.4188 -0.7571
 4649TIP3    H238143   4.311   5.594  17.599  0.7639 -0.9822 -0.3557
 4650TIP3   OH238144   4.253   4.098  19.543  0.2254  0.1741 -0.4194
 4650TIP3    H138145   4.225   4.115  19.453  1.1689 -1.4855 -1.0729
 4650TIP3    H238146   4.349   4.106  19.540  0.3544 -0.9370  0.1737
 4651TIP3   OH238147   1.388   3.362  20.505  0.2511  0.1397  0.3069
 4651TIP3    H138148   1.396   3.422  20.580 -0.7785 -0.8852  1.2780
 4651TIP3    H238149   1.294   3.354  20.491  0.4344  1.0522 -1.7558
 4652TIP3   OH238150   0.282   4.363  20.247  0.0983  0.0192  0.0523
 4652TIP3    H138151   0.240   4.428  20.304 -0.7848  0.1011 -0.6752
 4652TIP3    H238152   0.355   4.410  20.207  0.8953 -0.1137  1.2994
 4653TIP3   OH238153   0.658   5.490  20.500  0.2518  0.2578 -0.2939
 4653TIP3    H138154   0.637   5.582  20.487 -0.8532  0.0882  0.1160
 4653TIP3    H238155   0.681   5.484  20.593  1.0997  0.2434 -0.4944
 4654TIP3   OH238156   0.888   5.132  20.609  0.2523 -0.0128  0.7601
 4654TIP3    H138157   0.922   5.200  20.667 -0.8368 -0.7283  2.3211
 4654TIP3    H238158   0.807   5.104  20.652  0.2244 -1.6605 -0.3169
 4655TIP3   OH238159   4.187   0.173  18.726 -0.4364 -0.2589  0.4789
 4655TIP3    H138160   4.244   0.189  18.650 -1.3582 -0.8278 -0.3517
 4655TIP3    H238161   4.208   0.245  18.786  0.3613  0.1695 -0.2757
 4656TIP3   OH238162   6.107   4.164  20.191  0.2824  0.2035  0.8394
 4656TIP3    H138163   6.051   4.172  20.269 -0.2953 -0.6329  0.5253
 4656TIP3    H238164   6.187   4.123  20.223  0.1036 -0.0036  1.0308
 4657TIP3   OH238165   0.797   0.742  19.523  0.0544 -0.3482 -0.3812
 4657TIP3    H138166   0.881   0.767  19.562 -0.7213 -1.3734  2.2030
 4657TIP3    H238167   0.750   0.824  19.511  0.4770  0.0485  0.5729
 4658TIP3   OH238168   3.951   4.408  19.106 -0.3948 -0.5967 -0.3217
 4658TIP3    H138169   3.889   4.383  19.038 -0.2028 -1.1008 -0.3202
 4658TIP3    H238170   3.927   4.355  19.182 -3.0052  2.6112  1.3120
 4659TIP3   OH238171   2.329   4.787  19.484 -0.1034 -0.3318  0.1145
 4659TIP3    H138172   2.410   4.803  19.436 -0.4298 -0.8836 -0.6464
 4659TIP3    H238173   2.347   4.817  19.573  1.2207 -1.2563  0.1817
 4660TIP3   OH238174   3.086   0.596  19.828 -0.1026 -0.2482 -0.6545
 4660TIP3    H138175   3.099   0.684  19.793  0.2597 -1.4010 -3.7409
 4660TIP3    H238176   3.170   0.575  19.870  0.0540  0.6240 -0.5068
 4661TIP3   OH238177   6.643   1.121  21.068 -0.1520  0.2128  0.0566
 4661TIP3    H138178   6.551   1.114  21.094 -0.4000  0.8106 -0.6084
 4661TIP3    H238179   6.647   1.076  20.984  1.1969 -4.1482  2.1812
 4662TIP3   OH238180   4.393   4.209  20.694 -0.3723 -0.1405 -0.3527
 4662TIP3    H138181   4.463   4.168  20.643 -0.3092  1.5526 -1.7146
 4662TIP3    H238182   4.435   4.237  20.775  0.1716 -0.4348 -0.5278
 4663TIP3   OH238183   3.199   0.434  20.884 -0.2836 -0.1027 -0.1783
 4663TIP3    H138184   3.185   0.347  20.846 -0.5051  0.1507 -0.6827
 4663TIP3    H238185   3.237   0.416  20.971 -0.5721 -0.7089 -0.1678
 4664TIP3   OH238186   0.637   1.641  18.886 -0.3702 -0.6457 -0.4571
 4664TIP3    H138187   0.550   1.644  18.846 -0.3862  0.6493 -0.3813
 4664TIP3    H238188   0.622   1.604  18.973 -0.6854 -1.3905 -0.8286
 4665TIP3   OH238189   4.737   4.751  19.954 -0.8654  0.3119  0.2467
 4665TIP3    H138190   4.703   4.745  20.044  2.2906  1.8889  1.7188
 4665TIP3    H238191   4.767   4.663  19.934 -0.5462  0.1844  1.2200
 4666TIP3   OH238192   1.363   0.260  18.475 -0.0125  0.2230 -0.4542
 4666TIP3    H138193   1.322   0.220  18.552 -1.5385 -0.1512 -1.4092
 4666TIP3    H238194   1.367   0.354  18.497  0.2345  0.0288  0.3554
 4667TIP3   OH238195   4.680   2.019  19.741  0.2497  0.8583 -0.3309
 4667TIP3    H138196   4.683   1.935  19.696 -1.4798  1.0284 -0.8181
 4667TIP3    H238197   4.757   2.066  19.709  0.2614  0.1319 -1.4060
 4668TIP3   OH238198   0.408   0.461  19.339  0.4294 -0.4135  0.0621
 4668TIP3    H138199   0.425   0.492  19.428 -2.3779 -0.5420  0.7356
 4668TIP3    H238200   0.494   0.434  19.307  1.5983 -0.0797  2.6129
 4669TIP3   OH238201   6.019   3.142  18.529  0.6354  0.2605  0.5106
 4669TIP3    H138202   6.028   3.213  18.465  0.2025 -2.3318 -2.6472
 4669TIP3    H238203   6.109   3.113  18.546  0.6507 -0.5816 -0.8696
 4670TIP3   OH238204   0.454   4.901  19.371  0.0513 -0.2028 -0.0061
 4670TIP3    H138205   0.538   4.941  19.392  0.8947 -0.3204 -2.7263
 4670TIP3    H238206   0.393   4.974  19.364  0.1054 -0.0351  1.1390
 4671TIP3   OH238207   4.101   2.714  19.984  0.1712 -0.2777  0.1467
 4671TIP3    H138208   4.018   2.759  20.000  0.2212 -0.4789  1.0138
 4671TIP3    H238209   4.167   2.780  20.001  0.2412 -0.6355  1.2993
 4672TIP3   OH238210   2.922   1.226  17.828  0.5276  0.3574  0.3565
 4672TIP3    H138211   3.011   1.233  17.865  0.3250 -0.8389  1.1448
 4672TIP3    H238212   2.868   1.198  17.902 -0.6253  1.5897  0.0146
 4673TIP3   OH238213   4.411   6.533  20.962 -0.3634  0.1417 -0.4886
 4673TIP3    H138214   4.351   6.575  20.900 -1.1392  1.2636  0.9907
 4673TIP3    H238215   4.493   6.581  20.952 -0.0629 -0.5370 -1.5493
 4674TIP3   OH238216   1.200   4.193  20.462  0.1032  0.3942  0.3712
 4674TIP3    H138217   1.215   4.148  20.379 -0.9899  0.2543  0.2341
 4674TIP3    H238218   1.135   4.260  20.442  0.4742  0.9475  0.9389
 4675TIP3   OH238219   3.185   6.442  20.848 -0.3934  0.4262 -0.2283
 4675TIP3    H138220   3.200   6.436  20.753  0.5335  1.6136 -0.1860
 4675TIP3    H238221   3.210   6.357  20.882  1.7565  0.7948 -0.7625
 4676TIP3   OH238222   5.121   3.404  18.983  0.3039  0.5274  0.2883
 4676TIP3    H138223   5.195   3.359  19.024 -0.3538  0.8845  1.9566
 4676TIP3    H238224   5.157   3.440  18.902  1.8394  0.3049  0.8347
 4677TIP3   OH238225   6.447   6.217  20.995  0.0520 -0.1906 -0.3892
 4677TIP3    H138226   6.365   6.261  21.018  0.0907 -0.8246  1.0114
 4677TIP3    H238227   6.430   6.125  21.011  0.6905 -0.4620 -1.1969
 4678TIP3   OH238228   5.761   4.868  19.601 -0.1313 -0.2235 -0.5888
 4678TIP3    H138229   5.669   4.896  19.599 -0.0129  0.1177 -1.7809
 4678TIP3    H238230   5.775   4.825  19.517  0.3314 -1.8720  0.2777
 4679TIP3   OH238231   2.941   3.594  20.053 -0.0896  0.1634  0.1901
 4679TIP3    H138232   3.032   3.621  20.070  0.4106 -0.7489 -0.9043
 4679TIP3    H238233   2.916   3.545  20.132  0.3904  0.3665  0.4740
 4680TIP3   OH238234   1.976   4.971  18.915 -0.5122 -0.3342  0.6605
 4680TIP3    H138235   2.066   4.965  18.948 -0.1408 -1.3688 -0.4600
 4680TIP3    H238236   1.967   5.062  18.886  0.8047 -0.6329 -0.8500
 4681TIP3   OH238237   5.677   4.584  20.023  0.3908 -0.1363 -0.7525
 4681TIP3    H138238   5.758   4.558  19.980  0.0636  0.5227 -1.8170
 4681TIP3    H238239   5.681   4.680  20.027 -0.6506 -0.0309 -1.5271
 4682TIP3   OH238240   3.205   2.410  18.407 -0.4568 -0.2891 -0.0173
 4682TIP3    H138241   3.211   2.505  18.398  0.4166 -0.4975 -2.5604
 4682TIP3    H238242   3.150   2.383  18.333 -0.4730 -1.7818  0.5201
 4683TIP3   OH238243   1.583   6.034  19.523  0.0098 -0.2031  0.2819
 4683TIP3    H138244   1.519   6.073  19.583 -1.2295 -0.9740 -0.4960
 4683TIP3    H238245   1.651   6.101  19.514 -0.3517  0.3837  1.6320
 4684TIP3   OH238246   6.684   2.566  20.293  0.0983  0.3794  0.4302
 4684TIP3    H138247   6.679   2.528  20.381 -1.4005  3.2234  1.7006
 4684TIP3    H238248   6.765   2.617  20.294 -0.6454  1.5959  0.7426
 4685TIP3   OH238249   1.854   4.475  18.279 -0.1790 -0.0715 -0.1977
 4685TIP3    H138250   1.893   4.560  18.259  0.5597 -0.3946 -0.1842
 4685TIP3    H238251   1.927   4.423  18.314 -0.5976 -0.7349 -0.2853
 4686TIP3   OH238252   1.859   1.272  18.091 -0.2115 -0.1045  0.9643
 4686TIP3    H138253   1.764   1.277  18.104 -0.0983  0.8330  1.5111
 4686TIP3    H238254   1.871   1.197  18.033 -1.3803  0.4949 -0.1069
 4687TIP3   OH238255   0.286   1.930  18.393  0.4800 -0.2439 -0.0839
 4687TIP3    H138256   0.230   1.947  18.469  0.8381 -1.1371  0.4034
 4687TIP3    H238257   0.316   1.839  18.406 -0.2025 -0.7442 -1.7741
 4688TIP3   OH238258   4.260   6.123  18.841  0.1824  0.4306 -0.1496
 4688TIP3    H138259   4.279   6.204  18.793 -2.4204  1.5581  0.5914
 4688TIP3    H238260   4.268   6.147  18.933 -0.8720 -0.0705  0.0837
 4689TIP3   OH238261   1.579   1.817  18.664  0.3842 -0.2589  0.2399
 4689TIP3    H138262   1.581   1.908  18.637  0.3516 -0.1346  0.6539
 4689TIP3    H238263   1.672   1.792  18.672  0.4364 -0.7919 -1.6212
 4690TIP3   OH238264   6.053   1.579  17.898  0.0001  0.0687  0.1846
 4690TIP3    H138265   5.971   1.612  17.862 -1.3054 -1.6739  1.3722
 4690TIP3    H238266   6.119   1.643  17.870 -1.4596  0.6785 -2.1816
 4691TIP3   OH238267   2.774   3.993  18.754  0.0160  0.0389  0.5750
 4691TIP3    H138268   2.782   3.907  18.794  0.7735 -0.7872 -1.2174
 4691TIP3    H238269   2.709   3.982  18.685 -1.1003  1.3571  1.3701
 4692TIP3   OH238270   0.557   4.724  19.193 -0.3284  0.1447 -0.0659
 4692TIP3    H138271   0.646   4.755  19.178  0.5188 -0.8972  2.2936
 4692TIP3    H238272   0.523   4.782  19.261 -0.4940 -1.0286  0.8753
 4693TIP3   OH238273   4.290   5.370  19.809 -0.0311 -0.0738 -0.1705
 4693TIP3    H138274   4.199   5.361  19.834 -0.0152 -1.1928 -0.4770
 4693TIP3    H238275   4.304   5.303  19.741  1.4428 -1.1200  1.0974
 4694TIP3   OH238276   1.052   4.423  19.132 -0.2813  0.6764  0.4477
 4694TIP3    H138277   1.011   4.340  19.155 -1.0318  1.5018  2.3477
 4694TIP3    H238278   1.079   4.461  19.216  1.1001  1.8404 -0.4544
 4695TIP3   OH238279   3.997   1.248  17.592 -0.5534 -0.6062 -0.2277
 4695TIP3    H138280   4.077   1.197  17.585 -0.4998 -0.3712 -1.4023
 4695TIP3    H238281   3.929   1.193  17.553 -0.6790 -0.1966 -0.6008
 4696TIP3   OH238282   4.669   3.309  20.986 -0.2205  0.5693 -0.5810
 4696TIP3    H138283   4.745   3.353  21.025  0.0864  0.7596 -1.3772
 4696TIP3    H238284   4.663   3.345  20.897 -0.0531 -0.8887 -1.2040
 4697TIP3   OH238285   3.278   5.115  19.644  0.0921  0.1913 -0.8792
 4697TIP3    H138286   3.248   5.200  19.611  0.3361  0.4984 -0.3131
 4697TIP3    H238287   3.361   5.134  19.687 -0.6296 -0.0556  0.6582
 4698TIP3   OH238288   5.090   5.840  18.645 -0.6477  0.4667  0.1202
 4698TIP3    H138289   5.034   5.914  18.673 -2.4621 -0.6146 -0.4937
 4698TIP3    H238290   5.112   5.796  18.727  0.4398  1.6317  0.4965
 4699TIP3   OH238291   3.411   1.177  19.651 -0.3108  0.1571 -0.0433
 4699TIP3    H138292   3.333   1.219  19.687 -0.6335 -0.2708 -0.2311
 4699TIP3    H238293   3.483   1.209  19.705 -0.4351  1.5622 -0.6437
 4700TIP3   OH238294   4.631   3.212  19.469 -0.8208 -0.2793 -0.5317
 4700TIP3    H138295   4.684   3.208  19.390  3.2876  0.3238  1.9121
 4700TIP3    H238296   4.641   3.126  19.510 -1.0992  0.1136  0.3923
 4701TIP3   OH238297   4.973   0.034  21.019  0.2776 -0.4177  0.2597
 4701TIP3    H138298   4.927   0.070  21.095  0.8756 -0.8088  0.8204
 4701TIP3    H238299   4.934   0.079  20.944 -0.0236  0.2972  0.8262
 4702TIP3   OH238300   1.505   2.849  20.170 -0.1166 -0.7572  0.4371
 4702TIP3    H138301   1.458   2.787  20.225  0.5306 -0.9566  0.7824
 4702TIP3    H238302   1.597   2.826  20.182  0.1672  0.5128  0.8797
 4703TIP3   OH238303   1.582   3.859  18.853  0.6883 -0.1775  0.1746
 4703TIP3    H138304   1.615   3.915  18.783 -0.0389  1.9477  1.4152
 4703TIP3    H238305   1.506   3.907  18.887 -0.8813 -2.6699  0.3937
 4704TIP3   OH238306   2.720   3.789  19.310 -0.4437  0.2741 -0.0827
 4704TIP3    H138307   2.803   3.767  19.353 -0.3036  1.5308  0.3156
 4704TIP3    H238308   2.654   3.738  19.359 -0.1408  0.7777  0.8795
 4705TIP3   OH238309   2.859   6.044  20.142  0.2080  0.4805 -0.2039
 4705TIP3    H138310   2.884   5.966  20.091  0.8234  0.9645 -0.6536
 4705TIP3    H238311   2.777   6.072  20.103 -0.1407 -0.0769  0.1139
 4706TIP3   OH238312   4.970   5.532  18.005 -0.3278  0.3541 -0.0916
 4706TIP3    H138313   5.052   5.519  17.957 -0.2457 -1.4167  0.4739
 4706TIP3    H238314   4.919   5.590  17.949  1.6323  2.2660 -0.0319
 4707TIP3   OH238315   6.593   2.664  19.492 -0.0352  0.5563  0.3267
 4707TIP3    H138316   6.560   2.597  19.552  0.3476 -0.0686 -0.1481
 4707TIP3    H238317   6.688   2.663  19.505  0.2761 -0.9058 -1.5907
 4708TIP3   OH238318   5.265   3.132  21.220  0.0025 -0.1804  0.6498
 4708TIP3    H138319   5.171   3.115  21.224 -0.2227  1.0507  1.0889
 4708TIP3    H238320   5.271   3.225  21.197  1.1151 -0.2911  0.4395
 4709TIP3   OH238321   6.172   4.840  20.302  0.0823 -0.5788 -0.6036
 4709TIP3    H138322   6.104   4.810  20.363  1.4540 -3.3258 -0.2849
 4709TIP3    H238323   6.122   4.876  20.229 -1.6430  0.4201  0.9532
 4710TIP3   OH238324   1.107   1.043  20.979  0.0848  0.2132  0.5866
 4710TIP3    H138325   1.136   1.063  21.068 -2.2906 -0.5166  1.6213
 4710TIP3    H238326   1.011   1.048  20.984 -0.1111  0.3095 -1.9881
 4711TIP3   OH238327   1.548   3.958  19.600  0.0316 -0.1728  0.3577
 4711TIP3    H138328   1.629   3.995  19.565 -0.1975 -0.4633 -0.4865
 4711TIP3    H238329   1.488   4.033  19.607  0.7316  0.2809  2.1359
 4712TIP3   OH238330   2.439   4.781  19.752  0.7083  0.4484 -0.0117
 4712TIP3    H138331   2.479   4.695  19.756 -0.5221 -0.1555 -0.1348
 4712TIP3    H238332   2.425   4.806  19.843  2.9943  1.4994  0.1205
 4713TIP3   OH238333   1.685   4.201  19.048 -0.1705 -0.0409 -0.4837
 4713TIP3    H138334   1.618   4.267  19.060 -0.0139  0.2536 -1.1966
 4713TIP3    H238335   1.737   4.205  19.128  0.0240  0.9105 -0.6475
 4714TIP3   OH238336   2.566   4.638  18.974 -0.1636  0.4992  0.8511
 4714TIP3    H138337   2.480   4.619  18.937 -0.2242  0.3487  1.0722
 4714TIP3    H238338   2.620   4.563  18.946  0.2362  1.2140 -0.3994
 4715TIP3   OH238339   0.600   1.777  18.590  0.3872  0.2117 -0.4262
 4715TIP3    H138340   0.610   1.830  18.669  2.4115 -0.5556 -0.0761
 4715TIP3    H238341   0.651   1.698  18.609 -1.0215 -1.0490 -1.6221
 4716TIP3   OH238342   4.343   0.872  20.089 -0.1514 -0.5059 -0.0706
 4716TIP3    H138343   4.430   0.874  20.049  0.8811  1.0564  2.0688
 4716TIP3    H238344   4.299   0.798  20.046  2.4715 -1.8178 -0.7231
 4717TIP3   OH238345   2.159   2.382  18.206  0.1023 -0.7740  0.0705
 4717TIP3    H138346   2.248   2.358  18.180 -0.1176 -0.7383 -0.7568
 4717TIP3    H238347   2.104   2.316  18.165 -0.3449 -0.0851 -0.4661
 4718TIP3   OH238348   6.457   2.592  19.234  0.2007 -0.4258  0.3758
 4718TIP3    H138349   6.528   2.626  19.180  0.5246 -0.7389  0.6017
 4718TIP3    H238350   6.482   2.615  19.324  0.4430 -1.2866  0.5348
 4719TIP3   OH238351   2.896   6.598  20.242  0.2138 -0.2124  0.0839
 4719TIP3    H138352   2.865   6.636  20.160  0.4039 -0.8873 -0.3068
 4719TIP3    H238353   2.842   6.519  20.254  1.1877 -0.9437 -0.1792
 4720TIP3   OH238354   2.219   4.749  20.041 -0.1865 -0.1661  0.2269
 4720TIP3    H138355   2.302   4.796  20.028 -0.3018 -0.3624 -1.3077
 4720TIP3    H238356   2.245   4.659  20.061 -0.0254 -0.3679 -0.8491
 4721TIP3   OH238357   1.721   4.993  18.983 -0.4176 -0.0700  0.5949
 4721TIP3    H138358   1.770   4.944  19.049  0.6141  0.6033  0.3377
 4721TIP3    H238359   1.769   4.979  18.901 -0.5391  0.7483  0.3711
 4722TIP3   OH238360   2.079   0.048  18.741  0.2389  0.6661 -0.5932
 4722TIP3    H138361   2.075   0.045  18.836  3.4469  2.2319 -0.2435
 4722TIP3    H238362   2.012   0.112  18.716 -0.2633  0.6513  0.6601
 4723TIP3   OH238363   1.989   4.903  19.532 -0.1161  0.0113 -0.5359
 4723TIP3    H138364   1.996   4.878  19.624  0.2711 -1.3031 -0.9080
 4723TIP3    H238365   1.906   4.950  19.527 -0.0941  0.1976  0.4953
 4724TIP3   OH238366   5.315   3.609  20.263 -0.2485  0.1654  0.1720
 4724TIP3    H138367   5.269   3.535  20.304  0.7201 -0.2354  0.5736
 4724TIP3    H238368   5.389   3.569  20.217 -0.2340  0.8052 -0.3823
 4725TIP3   OH238369   1.171   2.526  20.531  0.4547  0.3962 -0.3667
 4725TIP3    H138370   1.267   2.522  20.540  0.4388 -1.3688 -0.6434
 4725TIP3    H238371   1.157   2.571  20.448  1.0603  0.0808 -0.6426
 4726TIP3   OH238372   6.408   4.832  17.628 -0.4227  0.1334  0.3757
 4726TIP3    H138373   6.319   4.837  17.594  0.0028 -0.1486 -0.8617
 4726TIP3    H238374   6.436   4.923  17.637 -0.6873  0.2178  0.3398
 4727TIP3   OH238375   3.397   3.993  18.506  0.3571  0.5637  0.3105
 4727TIP3    H138376   3.389   4.060  18.439  0.0887 -0.1604 -0.3919
 4727TIP3    H238377   3.309   3.956  18.515  0.6721 -0.2898  0.0551
 4728TIP3   OH238378   4.612   2.335  19.761 -0.2127 -0.1150 -0.2743
 4728TIP3    H138379   4.686   2.312  19.705  1.6236  2.3956  0.9154
 4728TIP3    H238380   4.633   2.294  19.845 -1.7216 -1.8194 -0.6750
 4729TIP3   OH238381   1.880   3.060  19.955 -0.2601 -0.4282 -0.5542
 4729TIP3    H138382   1.886   3.138  20.011 -1.1344  1.2396 -2.6517
 4729TIP3    H238383   1.788   3.036  19.959 -0.1777 -0.7660 -0.7100
 4730TIP3   OH238384   2.951   0.764  19.387  0.3358 -0.1803 -0.0565
 4730TIP3    H138385   3.012   0.697  19.419 -0.3208 -0.0089  1.6464
 4730TIP3    H238386   2.929   0.736  19.299 -0.3267 -2.5268  0.7836
 4731TIP3   OH238387   4.210   6.663  20.802 -1.0895 -0.3828 -0.3048
 4731TIP3    H138388   4.196   6.728  20.734  1.1290 -0.4310 -0.8571
 4731TIP3    H238389   4.142   6.597  20.787 -0.3487 -0.6625 -2.8346
 4732TIP3   OH238390   0.222   4.596  19.196 -0.3856  0.2253  0.2191
 4732TIP3    H138391   0.215   4.603  19.291 -1.4289  1.6051  0.0604
 4732TIP3    H238392   0.202   4.683  19.163  0.2235 -0.1606 -1.2665
 4733TIP3   OH238393   0.702   0.798  18.566 -0.4103 -0.0627  0.5690
 4733TIP3    H138394   0.711   0.744  18.487  0.5206  1.9873 -0.8012
 4733TIP3    H238395   0.617   0.773  18.602 -1.1586 -0.5878 -1.4421
 4734TIP3   OH238396   1.569   1.958  18.167  0.5761  0.1512  0.1869
 4734TIP3    H138397   1.558   1.876  18.215  0.0663 -0.6852 -1.3191
 4734TIP3    H238398   1.663   1.975  18.170  0.4892  0.5743  2.1566
 4735TIP3   OH238399   2.934   4.630  19.777 -0.1390  0.1602 -0.0650
 4735TIP3    H138400   2.991   4.687  19.829  1.7967  0.0597 -1.9466
 4735TIP3    H238401   2.899   4.567  19.840 -1.1573  2.4326  1.7962
 4736TIP3   OH238402   5.499   5.842  17.611 -0.6652 -0.0322  0.0794
 4736TIP3    H138403   5.524   5.836  17.518 -1.4049  0.8219 -0.1925
 4736TIP3    H238404   5.404   5.847  17.610 -0.6417  0.8104  0.8319
 4737TIP3   OH238405   2.628   3.267  18.747  0.0668  0.1322  0.0948
 4737TIP3    H138406   2.620   3.362  18.741 -0.8704  0.0617  0.1259
 4737TIP3    H238407   2.538   3.235  18.752  0.3927 -0.6580  1.7124
 4738TIP3   OH238408   6.062   3.620  20.985  0.3566  0.4560  0.0281
 4738TIP3    H138409   6.077   3.526  20.991  2.7572  0.7968  0.2930
 4738TIP3    H238410   6.108   3.648  20.906 -2.4478  1.1083 -1.5143
 4739TIP3   OH238411   5.760   0.515  18.535  0.7995  0.1008 -0.2282
 4739TIP3    H138412   5.739   0.490  18.445  1.4721 -0.2500 -0.2927
 4739TIP3    H238413   5.754   0.434  18.585  0.0374  0.3608  0.1319
 4740TIP3   OH238414   4.618   3.913  19.678 -0.0875 -0.4543 -0.2395
 4740TIP3    H138415   4.547   3.848  19.676 -1.5014  1.0080  0.0544
 4740TIP3    H238416   4.576   3.993  19.709  2.0816  0.0579  1.6524
 4741TIP3   OH238417   4.063   3.571  20.449  0.3482  0.3092  0.1660
 4741TIP3    H138418   4.154   3.585  20.473 -0.3482  1.4919  2.4902
 4741TIP3    H238419   4.014   3.633  20.505 -1.9477 -1.1169 -0.1185
 4742TIP3   OH238420   4.363   4.314  19.171  0.0939 -0.5133  0.4156
 4742TIP3    H138421   4.348   4.383  19.107 -0.1772 -1.8176 -0.9831
 4742TIP3    H238422   4.450   4.279  19.149 -0.4778 -1.7327 -0.0393
 4743TIP3   OH238423   5.078   5.699  20.681  0.2024  0.0079 -0.5611
 4743TIP3    H138424   4.986   5.691  20.708  0.2876 -1.0735 -0.5457
 4743TIP3    H238425   5.109   5.609  20.677  2.0720  0.4007  2.1520
 4744TIP3   OH238426   4.450   5.815  18.288  0.0738  0.1616  0.9751
 4744TIP3    H138427   4.526   5.869  18.308  2.3660 -2.1134 -0.8450
 4744TIP3    H238428   4.472   5.773  18.204 -4.2135  1.0635 -0.8367
 4745TIP3   OH238429   4.181   4.914  20.720  0.8258  0.1153 -0.4049
 4745TIP3    H138430   4.199   4.985  20.657 -0.4661  0.1702 -0.7471
 4745TIP3    H238431   4.135   4.958  20.791 -2.1146 -0.6570 -1.6680
 4746TIP3   OH238432   4.627   4.071  17.817 -0.1423  0.0626  0.3702
 4746TIP3    H138433   4.577   3.991  17.805 -0.0328  0.3686 -2.9361
 4746TIP3    H238434   4.707   4.043  17.861 -0.4354 -1.5191 -0.0591
 4747TIP3   OH238435   4.548   3.317  17.679 -0.3724 -0.5095  0.3905
 4747TIP3    H138436   4.505   3.403  17.684 -1.6125 -1.1650  1.2965
 4747TIP3    H238437   4.552   3.299  17.585  1.9055  1.4762 -0.0082
 4748TIP3   OH238438   1.923   2.814  18.940  0.0861  0.1489  0.2989
 4748TIP3    H138439   2.018   2.820  18.934  0.0636 -0.3558 -0.8875
 4748TIP3    H238440   1.905   2.723  18.962 -0.1817 -0.6622 -2.8437
 4749TIP3   OH238441   2.002   0.699  19.668  0.1552  0.3710 -0.7745
 4749TIP3    H138442   2.046   0.755  19.732 -0.0174 -0.5833  0.2048
 4749TIP3    H238443   1.949   0.639  19.721 -0.4053 -0.1025 -1.8379
 4750TIP3   OH238444   5.446   3.943  19.130 -0.1092 -0.0372 -0.6629
 4750TIP3    H138445   5.514   3.938  19.063  2.1431  2.0844  1.2582
 4750TIP3    H238446   5.366   3.963  19.082  1.2122  0.3858 -2.8059
 4751TIP3   OH238447   3.079   0.891  20.285 -0.5304 -0.0160  0.5816
 4751TIP3    H138448   3.174   0.900  20.283 -0.2812 -1.9501  1.1612
 4751TIP3    H238449   3.051   0.909  20.195  0.3349  0.8552  0.4717
 4752TIP3   OH238450   5.614   4.494  19.085 -0.0036 -0.3710  0.8193
 4752TIP3    H138451   5.522   4.513  19.105  0.2868 -0.8411  2.7943
 4752TIP3    H238452   5.610   4.419  19.026 -0.8944  0.3623 -0.1075
 4753TIP3   OH238453   6.604   4.976  18.815  0.3614 -0.7651 -0.2829
 4753TIP3    H138454   6.621   5.067  18.792  0.8248 -0.6360  0.5458
 4753TIP3    H238455   6.547   4.981  18.892 -1.2277 -1.1903 -1.3704
 4754TIP3   OH238456   2.227   5.155  19.379  0.2984  0.0560 -0.2157
 4754TIP3    H138457   2.220   5.129  19.470  1.9457 -0.5455 -0.2364
 4754TIP3    H238458   2.200   5.247  19.378 -2.3395 -0.6205  0.3959
 4755TIP3   OH238459   6.288   6.092  20.657  0.5750  0.1194  0.2270
 4755TIP3    H138460   6.222   6.161  20.654  2.1479  1.7292  1.1507
 4755TIP3    H238461   6.251   6.022  20.603 -2.5483  0.3152  1.9010
 4756TIP3   OH238462   0.669   3.149  20.655  0.0255 -0.7784 -0.2113
 4756TIP3    H138463   0.577   3.129  20.636 -0.1489  0.1102 -0.3379
 4756TIP3    H238464   0.706   3.065  20.684 -1.1447 -0.8569  1.1451
 4757TIP3   OH238465   3.613   2.423  17.538  0.3576 -0.3630 -0.5408
 4757TIP3    H138466   3.618   2.357  17.469 -0.2134 -0.5796 -0.3786
 4757TIP3    H238467   3.697   2.416  17.585  0.9143  0.0600 -1.4460
 4758TIP3   OH238468   3.336   4.439  19.487  0.3626  0.4527 -0.5970
 4758TIP3    H138469   3.391   4.407  19.558 -0.3600 -0.7252 -0.5320
 4758TIP3    H238470   3.276   4.501  19.529 -0.6415 -0.9010  0.0151
 4759TIP3   OH238471   1.183   2.116  21.312 -0.0388  0.5208 -0.6155
 4759TIP3    H138472   1.194   2.184  21.246 -1.5345 -1.3745 -2.9980
 4759TIP3    H238473   1.136   2.046  21.266 -0.9070 -1.0406  2.4181
 4760TIP3   OH238474   0.733   5.449  19.129 -0.3398 -0.3127  0.2027
 4760TIP3    H138475   0.788   5.524  19.150 -0.7712  0.8544 -2.4351
 4760TIP3    H238476   0.791   5.388  19.083 -1.0232  0.6446 -2.0255
 4761TIP3   OH238477   2.084   4.003  19.204 -0.4645 -0.1950 -0.4086
 4761TIP3    H138478   2.048   4.019  19.117  1.1577  1.1701 -0.8730
 4761TIP3    H238479   2.077   4.087  19.249  2.4262  0.2777 -0.6728
 4762TIP3   OH238480   4.246   0.316  18.266  0.2746 -0.2477  0.4501
 4762TIP3    H138481   4.314   0.383  18.280 -0.2774  0.6615 -0.9654
 4762TIP3    H238482   4.272   0.272  18.185 -1.2217  0.6745 -0.5725
 4763TIP3   OH238483   4.825   6.163  17.388 -0.9255  0.0739 -0.4659
 4763TIP3    H138484   4.910   6.150  17.345 -0.2464  0.4885  0.7013
 4763TIP3    H238485   4.789   6.241  17.345  0.1869  1.0718  0.3184
 4764TIP3   OH238486   5.965   2.149  20.125  0.4975  0.3718  0.3419
 4764TIP3    H138487   5.994   2.110  20.208  1.6462  0.8368  0.1705
 4764TIP3    H238488   5.982   2.243  20.136 -3.3018  1.1131  1.2093
 4765TIP3   OH238489   0.132   4.591  20.362 -0.1339 -0.0240 -0.0760
 4765TIP3    H138490   0.087   4.543  20.431  0.3487 -3.9453 -2.1962
 4765TIP3    H238491   0.065   4.606  20.295  0.3482 -0.2156 -0.6060
 4766TIP3   OH238492   4.717   0.117  20.461 -0.3460 -0.0036 -0.2418
 4766TIP3    H138493   4.780   0.147  20.396  0.4803 -1.6438 -0.2515
 4766TIP3    H238494   4.643   0.177  20.453 -0.0789  0.0888 -2.3753
 4767TIP3   OH238495   6.624   5.917  19.023  0.6230 -0.2921 -0.5133
 4767TIP3    H138496   6.531   5.940  19.032  0.2105 -2.2951  1.4527
 4767TIP3    H238497   6.664   5.948  19.104  1.4704 -0.2919 -0.9285
 4768TIP3   OH238498   3.100   6.175  21.307 -0.3038 -0.5282  0.2910
 4768TIP3    H138499   3.076   6.165  21.214  1.4592  1.9025 -0.5267
 4768TIP3    H238500   3.180   6.124  21.317 -0.0613 -0.1646  0.2424
 4769TIP3   OH238501   0.210   6.284  19.076  0.4862  0.2380  0.1286
 4769TIP3    H138502   0.300   6.264  19.050  0.8507  1.1392  0.6496
 4769TIP3    H238503   0.218   6.359  19.134 -0.6505  0.6299 -0.1959
 4770TIP3   OH238504   5.441   2.692  20.328  0.0032  0.1501 -0.1916
 4770TIP3    H138505   5.443   2.599  20.349  0.0222  0.0596 -0.5870
 4770TIP3    H238506   5.388   2.732  20.398 -0.6571 -0.2636 -0.4547
 4771TIP3   OH238507   2.734   0.573  19.437 -0.2796  0.8591  0.5176
 4771TIP3    H138508   2.793   0.568  19.513  0.4096 -1.4821 -0.0942
 4771TIP3    H238509   2.778   0.633  19.377  0.1334  1.2197  1.1607
 4772TIP3   OH238510   0.014   0.762  18.262  0.3612  0.0615 -0.2727
 4772TIP3    H138511  -0.004   0.758  18.168  0.3069 -1.1669 -0.2245
 4772TIP3    H238512   0.108   0.750  18.269  0.3351 -0.0952 -0.1669
 4773TIP3   OH238513   5.829   1.329  20.634 -0.1115 -0.1871 -0.3380
 4773TIP3    H138514   5.917   1.329  20.597  0.0442  0.8008 -0.0097
 4773TIP3    H238515   5.772   1.301  20.562  0.3793 -0.0412 -0.7878
 4774TIP3   OH238516   5.562   6.632  19.021 -0.4434 -0.3333  0.0906
 4774TIP3    H138517   5.554   6.624  19.116 -0.6847  1.5008  0.2720
 4774TIP3    H238518   5.491   6.579  18.986 -3.2144  2.3314  1.1294
 4775TIP3   OH238519   6.558   2.388  20.135  0.1095 -0.3213 -0.8322
 4775TIP3    H138520   6.630   2.330  20.112 -1.5666 -1.9251 -2.4113
 4775TIP3    H238521   6.597   2.455  20.192  2.9308 -0.7025 -2.1713
 4776TIP3   OH238522   5.013   3.102  19.534 -0.7525  0.7115 -0.2148
 4776TIP3    H138523   4.996   3.013  19.566  0.0941 -0.1384 -2.0363
 4776TIP3    H238524   4.958   3.112  19.457 -0.0136  1.3640 -0.6800
 4777TIP3   OH238525   4.756   4.895  18.378  0.0294 -0.0361 -0.7503
 4777TIP3    H138526   4.793   4.844  18.306  2.7701 -1.5387  1.5089
 4777TIP3    H238527   4.699   4.833  18.423 -0.3190  0.3659 -0.6314
 4778TIP3   OH238528   0.167   6.580  20.356  0.0882  0.3866 -0.2299
 4778TIP3    H138529   0.100   6.566  20.288  0.4136  1.4022 -0.7723
 4778TIP3    H238530   0.180   6.493  20.394  0.1435 -0.2740 -1.6957
 4779TIP3   OH238531   6.371   5.394  20.378  0.0364  0.6164  0.1122
 4779TIP3    H138532   6.324   5.321  20.338 -0.8330  1.2737 -0.0929
 4779TIP3    H238533   6.336   5.399  20.467  2.1567 -1.0105  1.1375
 4780TIP3   OH238534   3.021   0.966  19.175  0.0905 -0.8048  0.7044
 4780TIP3    H138535   2.974   0.892  19.137  1.7397 -3.0938  2.7942
 4780TIP3    H238536   2.987   0.973  19.264 -0.9689  1.9011  0.1566
 4781TIP3   OH238537   2.188   3.861  20.196 -0.5699 -0.0979 -0.1427
 4781TIP3    H138538   2.109   3.881  20.147  0.6345 -0.5596 -2.3997
 4781TIP3    H238539   2.194   3.931  20.262 -0.7861  2.2954 -2.4887
 4782TIP3   OH238540   0.919   2.419  18.424  0.0462  0.8177  0.0960
 4782TIP3    H138541   1.000   2.373  18.403  0.2340  0.5088  1.4180
 4782TIP3    H238542   0.849   2.360  18.395  0.2846  0.8258 -0.5054
 4783TIP3   OH238543   1.165   4.496  19.367  0.1453  0.0646  0.5868
 4783TIP3    H138544   1.237   4.495  19.430 -0.4627  0.7348  1.3067
 4783TIP3    H238545   1.087   4.478  19.419 -0.6195  2.4740  0.3861
 4784TIP3   OH238546   1.458   4.384  20.476 -0.0435 -0.1761  0.3106
 4784TIP3    H138547   1.373   4.369  20.517  0.3185 -0.6794  0.8924
 4784TIP3    H238548   1.488   4.296  20.450  0.0659  0.0524 -0.3646
 4785TIP3   OH238549   6.191   4.193  17.812  0.0925  0.3173  0.6722
 4785TIP3    H138550   6.096   4.180  17.815 -0.0010  0.3870 -1.1089
 4785TIP3    H238551   6.224   4.118  17.762  0.7564  1.2332 -0.3055
 4786TIP3   OH238552   5.498   3.346  21.024  0.5907 -0.0676 -0.7119
 4786TIP3    H138553   5.438   3.364  21.097 -0.2461  1.8419 -1.7917
 4786TIP3    H238554   5.585   3.350  21.064  0.1988  1.7337  0.0952
 4787TIP3   OH238555   4.947   3.151  20.755 -0.4094 -0.9570  0.2815
 4787TIP3    H138556   4.909   3.225  20.708 -1.3978 -1.5035  0.1941
 4787TIP3    H238557   4.997   3.191  20.826 -1.1154 -0.1978  0.3698
 4788TIP3   OH238558   5.998   4.848  20.621  0.1590  0.2896  0.0272
 4788TIP3    H138559   5.969   4.768  20.664 -1.5962  0.9751  0.2182
 4788TIP3    H238560   6.091   4.834  20.602 -0.1189 -1.7866  0.0124
 4789TIP3   OH238561   6.527   0.138  19.780  0.7874 -0.0510 -0.1370
 4789TIP3    H138562   6.468   0.206  19.813  1.6620  0.8330 -0.3273
 4789TIP3    H238563   6.542   0.081  19.855  2.4211  1.7034  0.9811
 4790TIP3   OH238564   4.613   5.423  18.080  0.2101  0.4374 -0.3873
 4790TIP3    H138565   4.582   5.509  18.050  0.2049  0.0357 -1.5756
 4790TIP3    H238566   4.559   5.360  18.033  1.2016 -0.2329 -0.6552
 4791TIP3   OH238567   1.868   4.755  20.897  0.0322 -0.5722  0.2089
 4791TIP3    H138568   1.787   4.806  20.892  0.6762  0.4254 -0.4233
 4791TIP3    H238569   1.931   4.814  20.938  0.5028 -1.2643  0.4998
 4792TIP3   OH238570   2.894   3.835  17.801 -0.3713 -0.1803 -0.0661
 4792TIP3    H138571   2.846   3.900  17.853  0.4749  1.2282 -0.9907
 4792TIP3    H238572   2.835   3.814  17.729  0.1043  1.0528 -0.8379
 4793TIP3   OH238573   5.505   1.519  19.833  0.4791  0.2816  0.0406
 4793TIP3    H138574   5.516   1.604  19.791 -0.3559 -0.2969 -1.4330
 4793TIP3    H238575   5.590   1.477  19.825  0.1333 -0.1289 -1.8662
 4794TIP3   OH238576   3.425   6.564  19.743  0.2701  0.1881 -0.1976
 4794TIP3    H138577   3.351   6.614  19.778  0.3636 -0.1006  0.4279
 4794TIP3    H238578   3.408   6.560  19.649  0.0142  0.9820 -0.2001
 4795TIP3   OH238579   3.816   1.936  20.112 -0.0369 -0.0331  0.0386
 4795TIP3    H138580   3.893   1.957  20.059 -1.2273 -1.8730 -2.6477
 4795TIP3    H238581   3.748   1.994  20.079  0.0155  1.4255  2.2476
 4796TIP3   OH238582   4.120   3.139  18.173 -0.6898 -0.2572  0.2154
 4796TIP3    H138583   4.166   3.135  18.256 -1.9056  0.3246  0.9389
 4796TIP3    H238584   4.103   3.048  18.150 -1.6470 -0.3895  1.3585
 4797TIP3   OH238585   0.722   0.364  19.756 -0.5858  0.4671  0.2261
 4797TIP3    H138586   0.713   0.446  19.805 -0.3356  1.0124 -0.6294
 4797TIP3    H238587   0.817   0.354  19.745 -0.6594  0.5422 -0.4751
 4798TIP3   OH238588   3.287   3.186  18.958  1.0655  0.2431  0.2691
 4798TIP3    H138589   3.353   3.132  18.913  0.1423 -1.5824  1.0124
 4798TIP3    H238590   3.211   3.128  18.967 -0.2902  1.9637  0.3710
 4799TIP3   OH238591   1.881   0.957  19.651 -0.2282 -0.3260  0.3551
 4799TIP3    H138592   1.921   1.038  19.683  0.9482 -1.2741  1.4330
 4799TIP3    H238593   1.842   0.917  19.729 -0.7571 -0.8136 -0.1491
 4800TIP3   OH238594   4.324   5.264  20.914 -0.2071  0.2157 -0.0344
 4800TIP3    H138595   4.395   5.322  20.943  1.3925 -1.1306 -1.0527
 4800TIP3    H238596   4.311   5.203  20.986 -0.0160  0.1965 -0.0139
 4801TIP3   OH238597   1.759   2.904  19.202 -0.2284  0.3139  0.0240
 4801TIP3    H138598   1.666   2.919  19.222 -0.7632  0.3331 -2.2319
 4801TIP3    H238599   1.759   2.873  19.111  2.1434  2.8718 -0.9958
 4802TIP3   OH238600   2.913   6.187  19.241  0.2211 -0.5766  0.5019
 4802TIP3    H138601   2.950   6.231  19.318  0.0596 -0.5292  0.5517
 4802TIP3    H238602   2.856   6.119  19.278 -0.7023  0.1407  0.4338
 4803TIP3   OH238603   2.264   2.054  18.170  0.1242  0.3386  0.3752
 4803TIP3    H138604   2.181   2.085  18.133 -0.9592  1.2242  3.2444
 4803TIP3    H238605   2.250   1.961  18.186 -1.0585  0.8074  2.4198
 4804TIP3   OH238606   1.718   1.247  20.511  0.1069 -0.0593  0.2497
 4804TIP3    H138607   1.723   1.288  20.597  0.9430 -0.1336  0.2399
 4804TIP3    H238608   1.784   1.293  20.458 -0.5145  0.1079 -0.4053
 4805TIP3   OH238609   3.709   2.841  19.713  0.0433 -0.1620  0.4669
 4805TIP3    H138610   3.622   2.807  19.735 -0.3138 -1.2535 -2.2199
 4805TIP3    H238611   3.693   2.933  19.690  0.0736  0.3513  2.3097
 4806TIP3   OH238612   0.564   5.060  18.750  0.4591 -0.0688 -0.2837
 4806TIP3    H138613   0.477   5.029  18.774 -0.4339  2.6546  0.3341
 4806TIP3    H238614   0.624   5.003  18.799 -1.0664 -0.5094  1.1801
 4807TIP3   OH238615   6.077   3.147  18.213  0.3905  0.0435  0.1080
 4807TIP3    H138616   6.150   3.086  18.219  1.4736  1.3472  0.6218
 4807TIP3    H238617   6.082   3.182  18.125  0.4704  0.2405  0.1917
 4808TIP3   OH238618   6.124   3.336  20.582 -0.0821  0.1571 -0.0114
 4808TIP3    H138619   6.219   3.352  20.577  0.3235 -2.2388 -2.1559
 4808TIP3    H238620   6.087   3.395  20.516 -0.0034  0.4865  0.2334
 4809TIP3   OH238621   3.138   5.058  18.451  0.0918  0.0808 -0.7647
 4809TIP3    H138622   3.203   5.063  18.521  0.7763 -0.7803 -1.3172
 4809TIP3    H238623   3.055   5.077  18.494  0.8649  3.3091 -0.3818
 4810TIP3   OH238624   1.592   3.370  20.907  0.1415 -0.0880  0.5757
 4810TIP3    H138625   1.674   3.324  20.893  0.1696  0.0855  0.1866
 4810TIP3    H238626   1.557   3.331  20.988 -0.0744 -1.1439  0.0015
 4811TIP3   OH238627   3.810   1.150  18.916 -0.1451  0.6440  0.2470
 4811TIP3    H138628   3.759   1.230  18.907  0.0065  0.6425 -0.7827
 4811TIP3    H238629   3.775   1.107  18.994 -1.6050  0.7104 -0.3485
 4812TIP3   OH238630   5.220   5.821  20.328 -0.2110  0.2396 -0.2592
 4812TIP3    H138631   5.304   5.798  20.288  0.5976 -0.4573  1.7396
 4812TIP3    H238632   5.181   5.883  20.267  1.8394  0.7371 -1.1443
 4813TIP3   OH238633   4.346   6.686  20.047  0.3821  0.0337  0.5447
 4813TIP3    H138634   4.377   6.613  19.993  1.0245  1.0950 -0.5901
 4813TIP3    H238635   4.426   6.722  20.086  0.1399  0.4419  0.6681
 4814TIP3   OH238636   5.302   1.981  20.305  0.4394  0.3212 -0.3506
 4814TIP3    H138637   5.360   2.056  20.293  2.1594 -1.2848 -3.0642
 4814TIP3    H238638   5.307   1.933  20.223 -1.8134 -1.9749  0.7010
 4815TIP3   OH238639   5.636   5.738  19.232  0.4361 -0.0877  0.1641
 4815TIP3    H138640   5.691   5.775  19.300  2.2017  0.0580 -1.2616
 4815TIP3    H238641   5.652   5.793  19.155 -0.0375 -1.3241 -0.8717
 4816TIP3   OH238642   1.801   4.715  19.910  0.7105 -0.2958  0.1479
 4816TIP3    H138643   1.854   4.681  19.982  1.0328  0.0860  0.0993
 4816TIP3    H238644   1.719   4.743  19.952  0.4393 -1.1283  0.1838
 4817TIP3   OH238645   2.411   3.881  20.649  0.4626 -0.3074  0.1038
 4817TIP3    H138646   2.481   3.854  20.708  0.8924 -0.8881 -0.6490
 4817TIP3    H238647   2.376   3.799  20.614  2.5182  0.0081 -3.0820
 4818TIP3   OH238648   4.975   2.592  19.699 -0.3197  0.1415 -0.5755
 4818TIP3    H138649   4.981   2.566  19.791 -1.5056  0.3156 -0.4274
 4818TIP3    H238650   4.886   2.628  19.691  0.0613  0.8925 -1.5954
 4819TIP3   OH238651   1.162   1.889  21.103  0.1084  0.0083  0.0496
 4819TIP3    H138652   1.184   1.826  21.171  0.3304  0.2732  0.2264
 4819TIP3    H238653   1.214   1.860  21.027  1.4304  0.8711  0.5864
 4820TIP3   OH238654   3.067   4.091  19.291 -0.2339 -0.3050  0.3184
 4820TIP3    H138655   2.973   4.087  19.277 -0.3401 -0.5185  1.0671
 4820TIP3    H238656   3.104   4.041  19.218 -0.9165 -3.9302  2.2021
 4821TIP3   OH238657   5.393   0.427  17.539 -0.3280 -0.2130 -0.3642
 4821TIP3    H138658   5.399   0.490  17.611 -1.1457  0.3846 -0.7932
 4821TIP3    H238659   5.450   0.463  17.471  0.3199 -0.6950 -0.0929
 4822TIP3   OH238660   6.463   2.708  18.538  0.2149 -0.0040 -0.0717
 4822TIP3    H138661   6.369   2.723  18.540  0.0939 -0.5270 -1.4197
 4822TIP3    H238662   6.473   2.615  18.520  0.9956 -0.0247  0.4133
 4823TIP3   OH238663   4.939   2.384  17.352 -0.4056 -0.0566  0.4794
 4823TIP3    H138664   4.858   2.373  17.401 -0.5064  2.1982  0.9129
 4823TIP3    H238665   4.927   2.466  17.303  0.4607 -1.2107 -1.8074
 4824TIP3   OH238666   1.660   0.859  18.438 -0.2272 -0.3118  0.4719
 4824TIP3    H138667   1.739   0.806  18.450 -1.0407 -1.2976  1.6500
 4824TIP3    H238668   1.619   0.822  18.359  0.1322 -0.2395  0.2474
 4825TIP3   OH238669   4.460   3.574  19.157 -0.2337  0.0305  0.3972
 4825TIP3    H138670   4.415   3.498  19.120  2.1595 -0.9051 -0.7592
 4825TIP3    H238671   4.449   3.643  19.092 -1.9021  0.5487  1.1791
 4826TIP3   OH238672   6.381   4.998  19.004 -0.2018 -0.2703 -0.1385
 4826TIP3    H138673   6.297   5.022  18.966  0.1080 -0.9918 -1.3247
 4826TIP3    H238674   6.400   5.068  19.067 -1.3463  0.2599 -0.3616
 4827TIP3   OH238675   0.263   5.656  18.876  0.7056  0.3866  0.5808
 4827TIP3    H138676   0.345   5.705  18.881  0.4621  0.8977 -0.3302
 4827TIP3    H238677   0.224   5.682  18.793 -0.5823  0.4690  1.1906
 4828TIP3   OH238678   4.703   5.853  19.442  0.2754 -0.5719 -0.4993
 4828TIP3    H138679   4.756   5.903  19.379  1.6090 -0.2187  0.8472
 4828TIP3    H238680   4.636   5.914  19.471  0.0906 -0.5097 -1.0492
 4829TIP3   OH238681   4.917   1.593  18.777 -0.2181  0.4395 -0.3589
 4829TIP3    H138682   4.947   1.608  18.687  1.3403 -1.5076 -0.2284
 4829TIP3    H238683   4.919   1.680  18.817 -0.6049  1.2958 -2.0978
 4830TIP3   OH238684   5.286   4.998  20.657 -0.1969 -0.3414 -0.1855
 4830TIP3    H138685   5.214   4.974  20.715  1.0480 -1.0514  1.1219
 4830TIP3    H238686   5.292   5.093  20.663 -1.7176 -0.1365 -1.2129
 4831TIP3   OH238687   6.053   3.449  20.160  0.4523 -0.4757  0.6086
 4831TIP3    H138688   6.098   3.470  20.078 -1.2097  0.5141 -0.0777
 4831TIP3    H238689   6.009   3.366  20.142 -0.2149 -0.0731  0.3662
 4832TIP3   OH238690   2.491   2.593  19.625  0.2515 -0.5521  0.1915
 4832TIP3    H138691   2.457   2.677  19.653 -2.6237 -1.6842  0.4178
 4832TIP3    H238692   2.437   2.569  19.549  0.2170 -2.6732  0.8120
 4833TIP3   OH238693   3.448   0.430  19.554  0.1186  0.6680  0.2877
 4833TIP3    H138694   3.521   0.461  19.500  0.4435 -0.8779 -0.2346
 4833TIP3    H238695   3.482   0.349  19.594 -1.3754 -0.2203 -0.1609
 4834TIP3   OH238696   5.254   5.466  19.572  0.0357 -0.2747 -0.5727
 4834TIP3    H138697   5.287   5.552  19.599 -1.6675  0.4167 -0.5478
 4834TIP3    H238698   5.161   5.468  19.596  0.2075 -2.5828  0.4980
 4835TIP3   OH238699   5.812   5.196  19.327  0.1439  0.3214  0.2280
 4835TIP3    H138700   5.730   5.147  19.332  0.4788 -0.5945 -1.8437
 4835TIP3    H238701   5.858   5.175  19.408 -0.8442 -0.7283  0.5403
 4836TIP3   OH238702   5.403   0.075  19.272 -0.4903  0.2240 -0.4440
 4836TIP3    H138703   5.354   0.049  19.349 -0.6965  1.5765 -0.0985
 4836TIP3    H238704   5.344   0.060  19.199  0.0809 -2.1079 -0.5122
 4837TIP3   OH238705   0.678   3.531  21.220  0.4407  0.2848 -0.0837
 4837TIP3    H138706   0.767   3.497  21.207  0.3615 -0.8892  1.9813
 4837TIP3    H238707   0.684   3.624  21.198  2.3780  0.4001  0.7707
 4838TIP3   OH238708   3.975   6.145  18.190 -0.2516  0.4972  0.2689
 4838TIP3    H138709   3.916   6.213  18.156 -0.6415  1.5018  2.7676
 4838TIP3    H238710   3.967   6.151  18.285  1.4192 -1.5798  0.6179
 4839TIP3   OH238711   2.631   1.683  19.880 -0.0401  0.2602 -0.3151
 4839TIP3    H138712   2.678   1.637  19.811  0.8313 -0.9814  1.0332
 4839TIP3    H238713   2.538   1.664  19.863 -0.0317  1.6200 -2.2259
 4840TIP3   OH238714   1.020   3.871  20.363  0.5056  0.1937 -0.7412
 4840TIP3    H138715   0.981   3.939  20.417 -2.5908 -1.2669 -0.9273
 4840TIP3    H238716   0.954   3.851  20.297  2.8201 -0.4305 -3.0398
 4841TIP3   OH238717   0.324   3.007  19.768 -0.2542 -0.1594 -0.1331
 4841TIP3    H138718   0.293   3.091  19.733  0.7885  0.7862  1.1096
 4841TIP3    H238719   0.295   3.008  19.859 -0.0299 -1.0651 -0.0464
 4842TIP3   OH238720   0.105   1.913  18.616  0.8532 -0.2126  0.6439
 4842TIP3    H138721   0.109   1.854  18.692 -0.8275 -0.6230  0.4635
 4842TIP3    H238722   0.051   1.866  18.553 -2.0941  2.1772  1.1487
 4843TIP3   OH238723   4.354   2.368  19.855 -0.2355  0.0480 -0.4338
 4843TIP3    H138724   4.435   2.412  19.829  0.0151 -1.0769 -1.6287
 4843TIP3    H238725   4.380   2.279  19.876 -1.1316 -0.2587 -0.5724
 4844TIP3   OH238726   0.732   2.861  21.008 -0.1934  0.2922 -0.0825
 4844TIP3    H138727   0.721   2.950  21.044 -1.7217  0.0897  0.0124
 4844TIP3    H238728   0.788   2.816  21.072  0.9708  1.2934 -0.3521
 4845TIP3   OH238729   3.843   1.776  18.545 -0.4893  0.1294  0.2158
 4845TIP3    H138730   3.827   1.864  18.512 -1.1789  0.0295  0.2737
 4845TIP3    H238731   3.939   1.767  18.544 -0.4450  0.6059 -0.4906
 4846TIP3   OH238732   5.797   6.578  19.990  0.0097 -0.7120  0.0730
 4846TIP3    H138733   5.702   6.594  19.993 -0.1749 -1.5454 -0.7165
 4846TIP3    H238734   5.823   6.571  20.082 -0.6647 -0.2981  0.3035
 4847TIP3   OH238735   1.173   2.952  18.875  0.4617 -0.0452  0.3658
 4847TIP3    H138736   1.256   2.957  18.923  0.6682 -0.5596  0.0744
 4847TIP3    H238737   1.186   2.879  18.814  0.9594  1.8666 -1.9344
 4848TIP3   OH238738   2.851   4.126  18.084 -0.5581 -0.0224  0.1619
 4848TIP3    H138739   2.771   4.074  18.073 -0.9973  0.8205 -0.7810
 4848TIP3    H238740   2.861   4.173  18.001  0.2824  0.7585  0.6842
 4849TIP3   OH238741   5.967   1.454  20.156 -0.9464 -0.3115  0.3633
 4849TIP3    H138742   5.892   1.493  20.112 -1.3250 -1.6297 -0.2226
 4849TIP3    H238743   6.023   1.423  20.085 -1.1511 -1.7034  0.7780
 4850TIP3   OH238744   3.484   4.406  20.257  0.2493  0.8886  0.6720
 4850TIP3    H138745   3.425   4.331  20.263 -0.1324  0.9351 -1.5964
 4850TIP3    H238746   3.561   4.372  20.211 -0.3675  2.0702 -1.3528
 4851TIP3   OH238747   5.524   2.033  19.418  0.0579  0.1559  0.2207
 4851TIP3    H138748   5.437   2.055  19.452  0.2162 -0.6501  1.1844
 4851TIP3    H238749   5.581   2.103  19.451 -0.2163  0.7141 -0.4554
 4852TIP3   OH238750   0.357   1.485  19.461 -1.0942 -0.4474 -0.1701
 4852TIP3    H138751   0.329   1.435  19.384 -1.0909  0.5765 -0.8518
 4852TIP3    H238752   0.281   1.538  19.484 -1.0111 -0.5651  0.3831
 4853TIP3   OH238753   3.514   6.359  20.897  0.7584  0.0251 -0.4538
 4853TIP3    H138754   3.485   6.277  20.858  2.5219 -1.1518  0.5532
 4853TIP3    H238755   3.608   6.346  20.914  0.6789  1.4980  1.5039
 4854TIP3   OH238756   5.155   2.081  20.690  0.5697  0.3209  0.0720
 4854TIP3    H138757   5.205   2.002  20.668 -0.3285 -0.4800  0.8433
 4854TIP3    H238758   5.222   2.149  20.697  1.5537 -0.6971  0.9554
 4855TIP3   OH238759   6.187   1.049  20.148 -0.0203  0.3236 -0.3028
 4855TIP3    H138760   6.137   1.005  20.080  0.2215  0.7714 -0.7763
 4855TIP3    H238761   6.123   1.104  20.194 -0.2614 -0.2714  0.0932
 4856TIP3   OH238762   5.578   2.864  20.608 -0.2084  0.2802 -0.0278
 4856TIP3    H138763   5.567   2.770  20.592 -0.3164  0.0619  1.2175
 4856TIP3    H238764   5.663   2.885  20.569  0.8638 -0.8258  1.5868
 4857TIP3   OH238765   3.521   2.155  17.404 -0.3822 -0.2791 -0.0153
 4857TIP3    H138766   3.579   2.093  17.449  0.1782  1.8803  2.4464
 4857TIP3    H238767   3.563   2.168  17.318  0.4776 -1.8425  0.1207
 4858TIP3   OH238768   5.266   2.119  19.395  0.4210  0.3354  0.9096
 4858TIP3    H138769   5.225   2.202  19.420  1.5996  0.7875  1.4393
 4858TIP3    H238770   5.228   2.098  19.310 -0.2283  1.1867  0.9719
 4859TIP3   OH238771   0.557   1.305  20.525  0.0981 -0.4768  0.3943
 4859TIP3    H138772   0.633   1.330  20.472 -0.4570  0.3209 -0.0469
 4859TIP3    H238773   0.540   1.381  20.580 -1.4682  0.0868 -0.7968
 4860TIP3   OH238774   3.626   1.422  18.652 -0.0540 -0.1871 -0.1197
 4860TIP3    H138775   3.563   1.440  18.582 -1.8637 -0.9908  1.1960
 4860TIP3    H238776   3.688   1.360  18.613 -2.1746 -2.2088 -0.5235
 4861TIP3   OH238777   0.504   4.384  20.645  0.7490  0.7080  0.2951
 4861TIP3    H138778   0.442   4.426  20.585 -1.6601 -0.4556  1.7923
 4861TIP3    H238779   0.460   4.387  20.730  2.9791  0.1746  1.5502
 4862TIP3   OH238780   0.975   6.552  20.771  0.3874 -0.3664 -0.1553
 4862TIP3    H138781   0.890   6.584  20.803  0.5478  1.2832 -1.2554
 4862TIP3    H238782   0.993   6.606  20.694  1.0995 -2.6206 -1.6680
 4863TIP3   OH238783   2.177   4.383  19.668  0.0035 -0.0209  1.0314
 4863TIP3    H138784   2.257   4.413  19.625 -0.0162  0.5575  1.3887
 4863TIP3    H238785   2.117   4.457  19.662 -1.4609 -1.2468 -1.5102
 4864TIP3   OH238786   5.775   1.987  17.905  0.2391 -0.3908 -0.2319
 4864TIP3    H138787   5.740   1.926  17.839  1.3065 -1.7471  0.4093
 4864TIP3    H238788   5.726   2.068  17.891 -2.3995 -1.8525 -0.0804
 4865TIP3   OH238789   0.882   1.323  17.446 -0.2230 -0.2660  0.3621
 4865TIP3    H138790   0.821   1.388  17.411  1.8211  0.2765 -2.6011
 4865TIP3    H238791   0.851   1.239  17.410  0.1665 -0.1209 -0.3421
 4866TIP3   OH238792   5.930   0.948  18.598  0.2535  0.1972 -0.7053
 4866TIP3    H138793   5.910   0.889  18.525 -0.2842  0.9988 -1.2195
 4866TIP3    H238794   5.873   0.918  18.669 -0.1931  0.2472 -1.0399
 4867TIP3   OH238795   0.098   5.368  18.932  0.4281 -0.0119  0.1097
 4867TIP3    H138796   0.190   5.387  18.950  0.6549 -0.3986 -0.6344
 4867TIP3    H238797   0.052   5.451  18.950  0.8417  0.0474  0.9608
 4868TIP3   OH238798   1.000   0.035  20.551  0.0660  0.1793 -0.4386
 4868TIP3    H138799   0.985   0.128  20.572  0.8773  0.5056 -1.2296
 4868TIP3    H238800   0.950   0.021  20.470 -0.0074 -0.0537 -0.3512
 4869TIP3   OH238801   1.170   5.949  20.149 -0.1414  0.1666 -0.2337
 4869TIP3    H138802   1.117   6.000  20.088 -1.0692 -1.3297 -0.7496
 4869TIP3    H238803   1.241   6.008  20.176 -1.0815  1.6464 -0.8823
 4870TIP3   OH238804   6.409   0.261  18.690  0.8700  0.0293  0.2591
 4870TIP3    H138805   6.320   0.232  18.670  1.2721 -2.1649  1.2747
 4870TIP3    H238806   6.402   0.302  18.776  0.7990 -0.0218  0.2773
 4871TIP3   OH238807   2.216   6.387  19.320 -0.2629  0.0760 -0.1833
 4871TIP3    H138808   2.302   6.386  19.278 -0.9907 -0.1410 -1.7620
 4871TIP3    H238809   2.170   6.461  19.278 -0.3384  1.1928  1.7650
 4872TIP3   OH238810   4.372   1.086  19.093 -0.0446 -0.3525  0.3319
 4872TIP3    H138811   4.311   1.014  19.110 -1.5944  1.2935  2.3958
 4872TIP3    H238812   4.320   1.165  19.108  2.1513  1.1769  0.3822
 4873TIP3   OH238813   4.750   0.735  18.960  0.3816  0.1487 -1.0577
 4873TIP3    H138814   4.774   0.695  19.043 -0.6747  0.4958 -0.5623
 4873TIP3    H238815   4.807   0.811  18.952  1.0573 -0.3472 -1.0668
 4874TIP3   OH238816   2.680   6.256  19.465  0.5352  0.1911 -0.4461
 4874TIP3    H138817   2.650   6.329  19.411 -0.9602  0.3712  0.5781
 4874TIP3    H238818   2.774   6.272  19.477  0.9117  0.2046 -2.8475
 4875TIP3   OH238819   1.656   1.226  20.120  0.7564  0.2434 -0.3504
 4875TIP3    H138820   1.585   1.188  20.172  0.4542  1.0627 -0.1451
 4875TIP3    H238821   1.735   1.185  20.154  0.6258  1.2073  1.1867
 4876TIP3   OH238822   4.771   1.354  18.095 -0.1435  0.2684  0.5068
 4876TIP3    H138823   4.773   1.442  18.132  1.2092 -0.1889  1.6302
 4876TIP3    H238824   4.804   1.364  18.006 -0.8688  1.0078  0.3046
 4877TIP3   OH238825   0.978   1.703  18.155 -0.0608  0.1294 -0.1181
 4877TIP3    H138826   0.913   1.713  18.224  1.6862  0.2908  1.5750
 4877TIP3    H238827   0.985   1.609  18.141  0.3474  0.0350  0.7025
 4878TIP3   OH238828   0.488   2.777  19.571  0.2084  0.3053 -0.0705
 4878TIP3    H138829   0.452   2.847  19.625  0.8516 -0.0097  0.7952
 4878TIP3    H238830   0.572   2.756  19.612  0.2889 -0.5719 -0.6553
 4879TIP3   OH238831   3.036   2.839  19.732  0.3825 -0.0927  0.0654
 4879TIP3    H138832   3.058   2.785  19.808 -1.4487  0.1293  0.8096
 4879TIP3    H238833   3.046   2.929  19.763 -1.0344  0.0104  0.3155
 4880TIP3   OH238834   3.750   2.046  19.254  0.3624  0.1740 -0.5262
 4880TIP3    H138835   3.669   2.002  19.227 -0.4385  0.1839  1.6226
 4880TIP3    H238836   3.726   2.139  19.260 -0.1044 -0.0392  1.9810
 4881TIP3   OH238837   1.656   6.300  19.488 -0.3005  0.1189 -0.2499
 4881TIP3    H138838   1.629   6.286  19.397  1.5849  1.6971 -1.1467
 4881TIP3    H238839   1.725   6.367  19.482  0.5850 -0.4566  2.2454
 4882TIP3   OH238840   2.546   2.411  17.748  0.2304 -0.2226 -0.4156
 4882TIP3    H138841   2.518   2.404  17.656  1.4607  0.0270 -0.8286
 4882TIP3    H238842   2.593   2.329  17.765  0.0630 -0.2386 -0.0164
 4883TIP3   OH238843   4.599   5.978  17.948  0.1442  0.4901 -0.4177
 4883TIP3    H138844   4.649   5.924  18.009  0.8846  2.2285  0.5886
 4883TIP3    H238845   4.587   5.922  17.871  0.8274 -1.0970  0.5724
 4884TIP3   OH238846   3.401   0.617  18.632  0.0059  0.0509  0.7860
 4884TIP3    H138847   3.487   0.589  18.664  0.9952  1.5226 -0.4537
 4884TIP3    H238848   3.353   0.642  18.711  1.3427  0.8469  1.3846
 4885TIP3   OH238849   3.055   1.979  18.149 -0.0128  0.0879  0.0452
 4885TIP3    H138850   3.124   1.913  18.157  1.4956  1.7663  2.4205
 4885TIP3    H238851   3.077   2.029  18.070  1.4015  0.4205  0.6161
 4886TIP3   OH238852   0.901   0.959  18.928  0.2631  0.3446  0.3079
 4886TIP3    H138853   0.828   0.901  18.949  1.1949 -0.2517  2.0425
 4886TIP3    H238854   0.893   1.031  18.990  3.2458 -1.6142  3.3502
 4887TIP3   OH238855   1.663   2.421  20.912 -0.2792 -0.0734  0.3038
 4887TIP3    H138856   1.635   2.512  20.922 -0.0731 -0.0806  0.9905
 4887TIP3    H238857   1.665   2.407  20.817  0.6151  0.9265  0.1601
 4888TIP3   OH238858   1.903   5.121  20.201 -0.1861  0.6922  0.1479
 4888TIP3    H138859   1.953   5.044  20.227 -1.4633 -0.0917  0.3449
 4888TIP3    H238860   1.930   5.190  20.262  1.5587  0.6526 -0.5302
 4889TIP3   OH238861   2.745   2.326  19.857  0.1794 -0.8717 -0.9669
 4889TIP3    H138862   2.660   2.303  19.819  0.6997 -1.8484 -1.5810
 4889TIP3    H238863   2.770   2.407  19.812 -1.0836  0.2680  0.2902
 4890TIP3   OH238864   3.134   1.151  18.723 -0.3461  0.3421 -0.0744
 4890TIP3    H138865   3.140   1.184  18.634  1.1354 -0.8861 -0.4592
 4890TIP3    H238866   3.225   1.140  18.751 -0.7879  0.1747  1.3953
 4891TIP3   OH238867   1.339   5.054  19.649  0.2083 -0.4008  0.1360
 4891TIP3    H138868   1.414   5.104  19.681 -0.5688  0.7138  0.2877
 4891TIP3    H238869   1.375   4.970  19.621  1.5656  0.2767 -0.1953
 4892TIP3   OH238870   5.794   2.240  18.555  0.0035 -0.1230  0.6861
 4892TIP3    H138871   5.749   2.297  18.493  1.3074 -0.6422 -0.8145
 4892TIP3    H238872   5.723   2.194  18.601 -1.0139  0.5452 -0.1646
 4893TIP3   OH238873   2.801   1.670  18.608 -0.0020 -0.3556  0.1527
 4893TIP3    H138874   2.757   1.587  18.589 -1.9133  0.4941  0.6311
 4893TIP3    H238875   2.842   1.656  18.694 -2.4872 -0.0811  1.4881
 4894TIP3   OH238876   2.996   0.621  20.324  0.2666 -0.3730 -0.3043
 4894TIP3    H138877   2.950   0.606  20.241  0.3523 -1.5368 -0.1641
 4894TIP3    H238878   3.025   0.712  20.319 -0.4644 -0.1692 -1.1829
 4895TIP3   OH238879   5.148   1.819  17.903  0.3103 -0.0262 -0.4122
 4895TIP3    H138880   5.144   1.728  17.934  0.0390 -0.0695 -0.5757
 4895TIP3    H238881   5.236   1.848  17.928  0.0382  0.0044  0.5664
 4896TIP3   OH238882   3.657   4.241  20.642  0.0385 -0.0313 -0.4407
 4896TIP3    H138883   3.684   4.192  20.565  1.3968  0.8104 -0.5488
 4896TIP3    H238884   3.714   4.208  20.712  1.3933  1.6940 -0.6389
 4897TIP3   OH238885   6.048   2.999  19.971 -0.0171 -0.4048  0.0162
 4897TIP3    H138886   6.083   2.931  19.913  0.4807  0.0568 -0.2249
 4897TIP3    H238887   6.010   3.064  19.911 -1.2026 -0.8388  0.2654
 4898TIP3   OH238888   2.064   2.085  19.192  0.2149 -0.1270 -0.1675
 4898TIP3    H138889   2.159   2.100  19.196  0.4085 -0.8188 -1.4208
 4898TIP3    H238890   2.042   2.048  19.277  1.1994 -0.6087 -0.1068
 4899TIP3   OH238891   0.829   3.423  19.407  0.2581  0.2911  0.1264
 4899TIP3    H138892   0.911   3.375  19.401  0.5238  0.8547 -1.1440
 4899TIP3    H238893   0.785   3.407  19.324 -0.5675  0.6159  0.4843
 4900TIP3   OH238894   1.551   3.260  19.538 -0.0460  0.0227  0.1248
 4900TIP3    H138895   1.641   3.246  19.511  0.8236  0.3382  2.6798
 4900TIP3    H238896   1.546   3.353  19.558 -0.5535 -0.2415  1.2876
 4901TIP3   OH238897   3.918   2.457  19.540 -0.6348  0.2418  0.0114
 4901TIP3    H138898   3.985   2.399  19.503 -1.8396 -0.6379 -0.8753
 4901TIP3    H238899   3.874   2.494  19.464 -2.1417 -0.3684  0.5538
 4902TIP3   OH238900   2.578   0.717  18.041  0.0809 -0.3720 -0.8925
 4902TIP3    H138901   2.532   0.648  17.992 -0.0066 -0.3043 -0.9049
 4902TIP3    H238902   2.615   0.774  17.973 -2.5906  1.4755 -0.9428
 4903TIP3   OH238903   0.799   1.895  19.001  0.1545  0.0757 -0.1603
 4903TIP3    H138904   0.832   1.843  19.075  1.2155 -1.7314 -1.8308
 4903TIP3    H238905   0.736   1.839  18.958  1.0178  0.2878 -1.7751
 4904TIP3   OH238906   2.075   5.809  17.830  0.3832  0.2704  0.0779
 4904TIP3    H138907   2.167   5.784  17.836  0.5557  0.9942  0.7892
 4904TIP3    H238908   2.030   5.732  17.797  1.1383 -0.3423  0.4650
 4905TIP3   OH238909   4.026   4.257  18.627 -0.2900 -0.3946  0.1724
 4905TIP3    H138910   4.001   4.175  18.586 -0.9180  0.9314 -2.3257
 4905TIP3    H238911   3.987   4.325  18.572  1.5684  1.6231  1.1442
 4906TIP3   OH238912   5.768   3.798  20.006  0.2824 -0.2564  0.5482
 4906TIP3    H138913   5.808   3.880  20.036  0.0340  0.2779 -0.5406
 4906TIP3    H238914   5.833   3.760  19.947 -0.5730  0.3689 -0.8400
 4907TIP3   OH238915   3.777   2.216  18.217 -0.4411  0.7541 -0.2332
 4907TIP3    H138916   3.811   2.142  18.166  0.0550  1.4891 -1.0013
 4907TIP3    H238917   3.856   2.265  18.242 -0.8186  1.6727 -0.7745
 4908TIP3   OH238918   5.177   2.062  19.133 -0.2566 -0.7570  0.5692
 4908TIP3    H138919   5.092   2.019  19.122 -0.3528 -0.3597 -0.3925
 4908TIP3    H238920   5.215   2.062  19.045 -0.7071  2.0164  0.2934
 4909TIP3   OH238921   0.164   6.604  19.238  0.2408  0.7135  0.1558
 4909TIP3    H138922   0.090   6.603  19.178  0.2426  2.8504  0.0290
 4909TIP3    H238923   0.196   6.695  19.235  2.0108  0.1719  1.2310
 4910TIP3   OH238924   6.330   0.735  19.006  0.4075 -0.3056  0.1537
 4910TIP3    H138925   6.326   0.828  19.029  1.0510 -0.5797  1.4570
 4910TIP3    H238926   6.363   0.735  18.916 -1.5022  0.7782 -0.6196
 4911TIP3   OH238927   2.191   4.502  20.619  0.0857  0.6611 -0.8652
 4911TIP3    H138928   2.138   4.453  20.681 -0.6454  0.7163 -1.4323
 4911TIP3    H238929   2.147   4.587  20.611  0.1616  0.6517 -1.4611
 4912TIP3   OH238930   2.642   2.177  18.497 -0.1850  0.8336 -0.8409
 4912TIP3    H138931   2.565   2.158  18.444 -0.8982 -0.0611  0.4648
 4912TIP3    H238932   2.664   2.094  18.538  0.0370  1.6034  0.6489
 4913TIP3   OH238933   4.770   3.068  18.019 -0.9799  0.2003 -0.0958
 4913TIP3    H138934   4.815   3.008  17.960 -1.4210  0.3915 -0.6373
 4913TIP3    H238935   4.720   3.011  18.078 -0.7032  0.0146 -0.0420
 4914TIP3   OH238936   5.102   3.435  20.352  0.0826  0.0757 -0.7966
 4914TIP3    H138937   5.110   3.345  20.382 -1.6357 -0.3164 -1.3922
 4914TIP3    H238938   5.095   3.487  20.432 -0.3708 -0.4827 -0.4708
 4915TIP3   OH238939   3.306   2.142  18.596  0.4539  0.0110  0.2288
 4915TIP3    H138940   3.308   2.162  18.503 -1.1641 -2.2463 -0.3828
 4915TIP3    H238941   3.398   2.147  18.624  1.0744 -0.1234 -1.6745
 4916TIP3   OH238942   3.149   3.416  18.863  0.3592  0.4708 -0.1121
 4916TIP3    H138943   3.068   3.382  18.900  0.4001  2.9418  2.6714
 4916TIP3    H238944   3.216   3.354  18.890 -0.0580  0.6271  1.3408
 4917TIP3   OH238945   4.611   3.516  18.276 -0.2280 -0.3786  0.1846
 4917TIP3    H138946   4.644   3.596  18.236  1.9970 -0.4786  1.6194
 4917TIP3    H238947   4.533   3.494  18.226 -0.2160  2.0143 -1.0099
 4918TIP3   OH238948   2.955   5.946  21.459 -0.2069 -0.0785 -0.1281
 4918TIP3    H138949   2.861   5.962  21.473 -0.6476 -1.0190 -1.7172
 4918TIP3    H238950   2.986   6.026  21.417 -0.6787 -0.3813 -1.0800
 4919TIP3   OH238951   0.277   3.393  20.956  0.2121 -0.3507  0.4660
 4919TIP3    H138952   0.370   3.412  20.972 -0.1690 -0.1465  2.7756
 4919TIP3    H238953   0.234   3.478  20.964 -0.0176  0.0203 -2.9597
 4920TIP3   OH238954   0.031   4.716  18.255 -0.5381  0.2526 -0.0728
 4920TIP3    H138955   0.006   4.623  18.253 -1.3914  0.4804 -1.1644
 4920TIP3    H238956   0.096   4.724  18.185 -2.2653  0.9148 -1.7004
 4921TIP3   OH238957   4.297   5.425  17.858 -0.1366 -0.1053 -0.2367
 4921TIP3    H138958   4.272   5.332  17.862 -1.8496  0.3437  0.3185
 4921TIP3    H238959   4.269   5.461  17.942 -0.4844  1.1517 -0.8678
 4922TIP3   OH238960   0.694   3.843  18.759 -0.3373 -0.1103 -0.6202
 4922TIP3    H138961   0.613   3.817  18.802  0.7776 -2.1184  0.4385
 4922TIP3    H238962   0.754   3.770  18.775  2.2786  2.0333  0.2397
 4923TIP3   OH238963   4.337   4.495  18.328  0.2124 -0.4873 -0.2709
 4923TIP3    H138964   4.302   4.500  18.417  0.1200  0.0688 -0.3331
 4923TIP3    H238965   4.310   4.409  18.296  0.7961 -0.9505  0.4654
 4924TIP3   OH238966   6.008   3.161  20.193  0.0484  0.3617  0.1757
 4924TIP3    H138967   6.081   3.125  20.243  0.2315  0.1445 -0.2390
 4924TIP3    H238968   5.999   3.102  20.118 -1.6435 -0.6036  1.0820
 4925TIP3   OH238969   1.119   6.160  20.634  0.3636 -0.1216  0.6477
 4925TIP3    H138970   1.124   6.178  20.540 -2.0537  0.3236  0.5349
 4925TIP3    H238971   1.110   6.065  20.640  0.9398 -0.1910  0.4683
 4926TIP3   OH238972   0.367   5.851  19.788 -0.5270  0.1134  0.0594
 4926TIP3    H138973   0.321   5.780  19.742 -0.3080 -0.2027  0.3257
 4926TIP3    H238974   0.439   5.807  19.832  1.8397  0.9286 -2.6869
 4927TIP3   OH238975   1.614   3.049  19.904  0.2779  0.4297 -0.0976
 4927TIP3    H138976   1.549   3.117  19.886 -0.1148  0.1735  0.3356
 4927TIP3    H238977   1.575   2.969  19.868  0.6281  0.3879 -0.3859
 4928TIP3   OH238978   3.057   0.035  20.420  0.4872  0.5807 -0.1519
 4928TIP3    H138979   3.005  -0.033  20.378  0.7961  0.8731 -1.0348
 4928TIP3    H238980   3.102   0.079  20.348 -0.3008  2.2255  0.2971
 4929TIP3   OH238981   1.120   2.603  19.859 -0.4306  0.1000  0.0430
 4929TIP3    H138982   1.151   2.650  19.937  3.0712 -0.5504 -0.7862
 4929TIP3    H238983   1.172   2.523  19.858  0.5991  0.6506 -3.5536
 4930TIP3   OH238984   4.795   0.586  19.165  0.5563 -0.4129 -0.4494
 4930TIP3    H138985   4.833   0.548  19.245  1.3124  1.1566 -0.0369
 4930TIP3    H238986   4.709   0.617  19.193  1.4094  1.5192  0.2073
 4931TIP3   OH238987   4.472   4.358  18.804 -0.3214  0.5210  0.0140
 4931TIP3    H138988   4.546   4.387  18.857 -1.1092  3.8059 -0.4178
 4931TIP3    H238989   4.431   4.440  18.774 -4.2227 -1.0899  0.3477
 4932TIP3   OH238990   1.102   0.621  20.559 -0.0199 -0.1215  0.0092
 4932TIP3    H138991   1.066   0.564  20.627  2.9640 -0.0333  1.8255
 4932TIP3    H238992   1.114   0.564  20.483  0.0476 -1.1631  0.7857
 4933TIP3   OH238993   1.221   0.828  19.285  0.0279  0.4183 -0.3003
 4933TIP3    H138994   1.246   0.821  19.193  0.6869  0.3167 -0.1199
 4933TIP3    H238995   1.267   0.906  19.316 -0.9238  0.9826 -0.2843
 4934TIP3   OH238996   6.445   2.055  20.298 -0.0432 -0.3409  0.3411
 4934TIP3    H138997   6.388   1.997  20.348 -1.8599  1.7064  0.8281
 4934TIP3    H238998   6.529   2.052  20.344  0.0784 -2.7952  0.1024
 4935TIP3   OH238999   5.894   3.103  19.329 -0.4081 -0.6063  0.0459
 4935TIP3    H139000   5.893   3.156  19.250 -1.1272  0.1773  0.5611
 4935TIP3    H239001   5.866   3.016  19.300 -0.8306 -0.2854 -0.5311
 4936TIP3   OH239002   2.913   4.175  21.118 -0.4666 -0.1527 -0.2228
 4936TIP3    H139003   2.848   4.123  21.070 -0.8006 -1.7475  1.8099
 4936TIP3    H239004   2.985   4.113  21.135  0.2125  0.7341  0.2050
 4937TIP3   OH239005   3.656   1.525  17.327 -0.0286 -0.4913  0.0950
 4937TIP3    H139006   3.646   1.613  17.363 -1.3208 -0.5809  0.0051
 4937TIP3    H239007   3.669   1.539  17.233  0.5842 -0.3679  0.1953
 4938TIP3   OH239008   0.892   0.480  18.237 -0.1539 -0.6306  0.3491
 4938TIP3    H139009   0.967   0.516  18.190 -1.0098 -0.7065 -1.1414
 4938TIP3    H239010   0.821   0.481  18.173 -1.0858 -1.8011  1.3117
 4939TIP3   OH239011   1.648   6.253  21.332  0.6212 -0.4867  0.1333
 4939TIP3    H139012   1.602   6.336  21.341  0.1706 -0.6696 -0.3882
 4939TIP3    H239013   1.736   6.277  21.305  0.6646 -0.1565  0.5598
 4940TIP3   OH239014   2.642   0.377  18.713 -0.2678  0.1652  0.1158
 4940TIP3    H139015   2.735   0.391  18.732 -0.3551  0.0447  0.6557
 4940TIP3    H239016   2.640   0.299  18.658 -0.0972 -0.2447  0.6827
 4941TIP3   OH239017   1.143   1.291  18.719 -0.8521  0.3927 -0.0537
 4941TIP3    H139018   1.130   1.200  18.745 -0.5631  0.0932 -0.9111
 4941TIP3    H239019   1.238   1.300  18.711 -0.8768  0.7832  0.0676
 4942TIP3   OH239020   5.462   2.872  19.417 -0.0326 -0.3606 -0.3043
 4942TIP3    H139021   5.488   2.964  19.424 -0.5946 -0.0867 -1.4889
 4942TIP3    H239022   5.542   2.826  19.391  0.3024 -0.2613  0.5094
 4943TIP3   OH239023   5.593   0.822  20.100  0.0794  0.4682 -0.8300
 4943TIP3    H139024   5.549   0.790  20.179 -1.1179  1.3908 -1.0955
 4943TIP3    H239025   5.683   0.791  20.108 -0.4071 -0.7762  0.1369
 4944TIP3   OH239026   3.882   4.138  19.560  0.2055  0.0117  0.0833
 4944TIP3    H139027   3.940   4.076  19.515  0.9875 -0.0991  1.1934
 4944TIP3    H239028   3.806   4.086  19.585  1.4046 -0.8675  2.1102
 4945TIP3   OH239029   5.273   3.460  19.943 -0.4032  0.4258 -0.1233
 4945TIP3    H139030   5.257   3.489  19.854 -1.5272  0.8858  0.2185
 4945TIP3    H239031   5.366   3.479  19.958 -0.0245 -0.2993 -1.4157
 4946TIP3   OH239032   1.577   5.900  20.089 -0.5247 -0.1366  0.0481
 4946TIP3    H139033   1.595   5.968  20.154 -3.5095 -0.2508  1.1225
 4946TIP3    H239034   1.642   5.832  20.108 -1.8237 -0.5679  3.6200
 4947TIP3   OH239035   2.994   0.797  17.666 -0.1692 -0.9093  0.1799
 4947TIP3    H139036   3.070   0.740  17.677 -0.2749 -1.5899 -2.0728
 4947TIP3    H239037   3.024   0.867  17.607 -0.9841 -0.5678  0.1422
 4948TIP3   OH239038   0.154   5.108  20.899  0.0603  0.6916 -0.1864
 4948TIP3    H139039   0.103   5.028  20.887  1.8946 -0.4510 -0.8221
 4948TIP3    H239040   0.105   5.175  20.853  0.5238 -0.9767 -3.4512
 4949TIP3   OH239041   3.513   5.861  19.352  0.4283 -0.5143  0.1254
 4949TIP3    H139042   3.504   5.914  19.272 -0.7182 -1.4380 -0.3913
 4949TIP3    H239043   3.606   5.840  19.356  0.7815  0.8992 -0.0600
 4950TIP3   OH239044   2.002   3.075  18.675  0.0301  0.0676 -0.4462
 4950TIP3    H139045   2.021   2.981  18.681 -1.3348 -0.2051  0.0696
 4950TIP3    H239046   2.047   3.113  18.750  1.9086  0.1010 -1.5253
 4951TIP3   OH239047   0.418   5.775  20.653 -0.1904  0.6640  0.6434
 4951TIP3    H139048   0.461   5.754  20.570 -0.3189  1.0213  0.4815
 4951TIP3    H239049   0.366   5.697  20.674  2.2801 -0.7185  2.0121
 4952TIP3   OH239050   5.244   2.716  18.989  0.5185 -0.4128 -0.4421
 4952TIP3    H139051   5.283   2.802  19.001  0.6979 -0.3856 -1.1813
 4952TIP3    H239052   5.180   2.708  19.059 -0.4662  0.8718 -1.1617
 4953TIP3   OH239053   1.118   3.363  20.471 -0.0819 -0.1986  0.3763
 4953TIP3    H139054   1.054   3.294  20.490  0.3442 -0.6679  0.1375
 4953TIP3    H239055   1.103   3.384  20.379  1.1458 -1.4384 -0.1462
 4954TIP3   OH239056   1.715   2.677  20.138 -0.2316 -0.1359  0.6432
 4954TIP3    H139057   1.772   2.705  20.210  0.3444 -0.9849  0.5408
 4954TIP3    H239058   1.732   2.583  20.129  0.6090  0.1414 -1.3626
 4955TIP3   OH239059   4.065   3.792  21.253  0.0418 -0.6488  0.8068
 4955TIP3    H139060   3.972   3.772  21.241 -0.0229  0.1409 -0.1439
 4955TIP3    H239061   4.087   3.755  21.339 -0.5709 -2.9414  0.0698
 4956TIP3   OH239062   4.855   3.171  20.087  0.5587 -0.0108 -0.1941
 4956TIP3    H139063   4.934   3.167  20.033 -0.7768  0.0632 -2.3095
 4956TIP3    H239064   4.849   3.084  20.127  1.8317  0.0734  0.2060
 4957TIP3   OH239065   2.665   0.613  20.986  0.0066 -0.2213  0.2651
 4957TIP3    H139066   2.600   0.546  21.008  0.0207 -0.2033  0.3580
 4957TIP3    H239067   2.694   0.589  20.898 -0.6525  0.1809 -0.0694
 4958TIP3   OH239068   6.461   5.927  20.821  0.1413 -0.3354 -0.4854
 4958TIP3    H139069   6.386   5.870  20.832  1.7784 -2.5572 -0.1482
 4958TIP3    H239070   6.433   5.991  20.755 -2.4285 -0.2456  0.5928
 4959TIP3   OH239071   3.429   4.551  20.898 -1.0718 -0.2252 -0.5022
 4959TIP3    H139072   3.506   4.519  20.945  0.2008  1.2121 -1.4682
 4959TIP3    H239073   3.369   4.477  20.895 -0.2977 -0.9935  1.4472
 4960TIP3   OH239074   4.923   4.709  18.214  0.4219  0.1920 -0.9013
 4960TIP3    H139075   4.926   4.621  18.252  1.0620  0.4502 -0.3212
 4960TIP3    H239076   5.001   4.753  18.249  0.3063  0.8748 -1.4695
 4961TIP3   OH239077   1.959   1.913  20.221 -0.1673 -0.2813 -0.8299
 4961TIP3    H139078   1.960   1.876  20.133 -0.2384  0.0056 -0.9513
 4961TIP3    H239079   2.048   1.901  20.254 -0.7498 -2.8667  0.0942
 4962TIP3   OH239080   4.993   5.607  20.002 -0.4106  0.1792  0.1438
 4962TIP3    H139081   5.084   5.589  19.979 -0.1163  2.3591 -0.6765
 4962TIP3    H239082   4.942   5.569  19.931 -0.1602 -0.9757  0.5598
 4963TIP3   OH239083   0.653   1.134  19.944  0.2714 -0.5678  0.1466
 4963TIP3    H139084   0.734   1.152  19.991  1.0841 -0.6014 -1.1908
 4963TIP3    H239085   0.586   1.133  20.012  1.1525  0.9464  1.0987
 4964TIP3   OH239086   6.410   5.918  19.718 -0.1342  0.0240 -0.0388
 4964TIP3    H139087   6.355   5.991  19.744  0.1477 -0.1059  0.9407
 4964TIP3    H239088   6.499   5.954  19.716  0.1884 -0.5763  1.7278
 4965TIP3   OH239089   5.189   5.429  17.877  0.0786 -0.2269 -0.3144
 4965TIP3    H139090   5.147   5.353  17.837  1.2438 -0.4213 -1.2336
 4965TIP3    H239091   5.250   5.460  17.811  1.2803  0.1226  0.9099
 4966TIP3   OH239092   2.583   0.337  18.992  0.3312 -0.1477  0.5525
 4966TIP3    H139093   2.555   0.315  18.903  0.2152 -0.6115  0.7013
 4966TIP3    H239094   2.558   0.261  19.044  1.7234 -0.5138  0.7233
 4967TIP3   OH239095   6.320   6.247  18.284  1.1411  0.0705  0.2425
 4967TIP3    H139096   6.304   6.277  18.194 -1.1354  0.4263  0.6899
 4967TIP3    H239097   6.378   6.313  18.321  3.2987 -0.8334 -1.3353
 4968TIP3   OH239098   5.347   3.294  19.061  0.3820  0.4760  0.5090
 4968TIP3    H139099   5.422   3.251  19.020  0.6615  0.7143  0.7652
 4968TIP3    H239100   5.373   3.304  19.153 -0.2838 -0.1678  0.7796
 4969TIP3   OH239101   5.641   1.306  18.657  0.0219 -0.6461 -0.2034
 4969TIP3    H139102   5.555   1.341  18.682  0.8162  1.1874  0.1018
 4969TIP3    H239103   5.675   1.266  18.737 -0.4082 -1.1265 -0.2525
 4970TIP3   OH239104   6.402   2.109  18.579  0.0224 -0.7684 -0.4673
 4970TIP3    H139105   6.454   2.123  18.500  1.1202 -1.1740  0.1615
 4970TIP3    H239106   6.362   2.194  18.597  0.2293 -0.5252 -1.1229
 4971TIP3   OH239107   4.593   4.060  18.889 -0.0730 -0.0333 -0.3646
 4971TIP3    H139108   4.613   4.137  18.942 -0.2610  0.6074 -1.2110
 4971TIP3    H239109   4.635   3.987  18.936 -0.3103  0.4939  0.7007
 4972TIP3   OH239110   1.945   1.984  17.240  0.6267 -0.1278 -0.2750
 4972TIP3    H139111   1.966   1.892  17.253  0.0762 -0.0479  1.3868
 4972TIP3    H239112   2.010   2.031  17.292 -0.6945  0.2965  1.0570
 4973TIP3   OH239113   6.484   5.204  19.154 -0.8040  0.3219  0.2778
 4973TIP3    H139114   6.500   5.285  19.201  1.0090 -1.0185  2.1195
 4973TIP3    H239115   6.566   5.186  19.108 -0.9576 -0.7639  0.4003
 4974TIP3   OH239116   2.921   2.419  19.091  0.3143  0.3375 -0.0994
 4974TIP3    H139117   2.901   2.396  19.000  1.7970 -0.4849 -0.2512
 4974TIP3    H239118   2.884   2.506  19.102 -0.4463  0.1940 -1.2935
 4975TIP3   OH239119   6.126   4.446  20.241  0.0952  0.5598 -0.8429
 4975TIP3    H139120   6.067   4.455  20.165  0.0525 -0.3828 -0.9342
 4975TIP3    H239121   6.117   4.354  20.267  0.0906  0.8825  0.3331
 4976TIP3   OH239122   4.029   2.861  18.345  0.4114  0.1594  0.1930
 4976TIP3    H139123   3.969   2.832  18.277  2.1960 -2.1120 -0.5456
 4976TIP3    H239124   3.996   2.947  18.372  0.1199  1.6698 -4.1756
 4977TIP3   OH239125   6.057   0.377  21.114  0.0072  0.1677 -0.0759
 4977TIP3    H139126   6.060   0.402  21.206 -1.4759  0.5317 -0.1108
 4977TIP3    H239127   6.063   0.459  21.066  2.4641 -0.1119 -0.3991
 4978TIP3   OH239128   3.170   2.129  20.554 -0.1494 -0.3900  0.5185
 4978TIP3    H139129   3.155   2.040  20.586  1.2596 -0.8540 -0.0497
 4978TIP3    H239130   3.084   2.159  20.525 -0.6904 -1.4590  0.9668
 4979TIP3   OH239131   1.975   0.534  21.270  0.0292  0.0727  0.2351
 4979TIP3    H139132   1.915   0.517  21.197  2.0666 -2.4300 -1.0186
 4979TIP3    H239133   2.051   0.575  21.228  1.4038 -1.7716  0.7964
 4980TIP3   OH239134   0.715   5.002  20.181  0.1851 -0.0791 -0.0713
 4980TIP3    H139135   0.691   4.991  20.273 -0.5539  0.5198 -0.1771
 4980TIP3    H239136   0.793   4.949  20.170 -0.3030 -0.9767  0.6564
 4981TIP3   OH239137   0.536   1.124  21.020  0.6022 -0.3591 -0.2162
 4981TIP3    H139138   0.534   1.117  20.925 -0.3954 -0.6249 -0.1871
 4981TIP3    H239139   0.530   1.034  21.051 -2.4298 -0.1428  0.1000
 4982TIP3   OH239140   0.397   5.163  19.098  0.2815  0.0381  0.3908
 4982TIP3    H139141   0.420   5.084  19.050  0.2336 -1.0556  2.0750
 4982TIP3    H239142   0.381   5.229  19.030  1.4745 -1.0572 -1.0282
 4983TIP3   OH239143   0.845   6.512  18.475  0.5733 -0.0229 -0.3320
 4983TIP3    H139144   0.765   6.558  18.500  0.7297 -0.4453  1.0509
 4983TIP3    H239145   0.840   6.505  18.380  0.8394  3.3584 -0.7216
 4984TIP3   OH239146   4.695   3.041  17.453 -0.6864 -0.1951  0.4089
 4984TIP3    H139147   4.625   2.985  17.418  1.1774 -1.7098 -1.0952
 4984TIP3    H239148   4.660   3.130  17.445 -2.8006 -0.9413  0.6265
 4985TIP3   OH239149   3.948   3.660  18.131 -0.0259 -0.3649  0.3617
 4985TIP3    H139150   3.973   3.608  18.055 -0.4026 -0.1983  0.1247
 4985TIP3    H239151   3.899   3.734  18.095 -1.5307 -1.0719  0.8642
 4986TIP3   OH239152   3.826   4.258  19.299  0.1065  0.5590  0.3986
 4986TIP3    H139153   3.841   4.230  19.390 -1.2102  0.6779  0.6699
 4986TIP3    H239154   3.811   4.176  19.252 -1.6208  0.6194  0.7810
 4987TIP3   OH239155   2.299   3.423  18.965  0.1333 -0.5315  0.3616
 4987TIP3    H139156   2.243   3.423  19.043 -0.9601 -0.2552 -0.4013
 4987TIP3    H239157   2.347   3.341  18.970 -2.1670 -2.0126 -0.2162
 4988TIP3   OH239158   1.413   3.119  21.297 -0.0422 -0.2452 -0.0079
 4988TIP3    H139159   1.444   3.198  21.341  0.8448 -0.6311  0.0851
 4988TIP3    H239160   1.448   3.126  21.208 -1.0327  0.0758 -0.3794
 4989TIP3   OH239161   1.655   1.836  21.417 -0.3789 -0.3026 -0.6551
 4989TIP3    H139162   1.592   1.899  21.452 -1.1057 -0.5823 -1.4114
 4989TIP3    H239163   1.734   1.848  21.470 -0.6637  0.8996 -0.4755
 4990TIP3   OH239164   0.884   4.296  19.901  0.2588 -0.2024  0.2449
 4990TIP3    H139165   0.818   4.235  19.934  0.2590 -0.7895 -0.8076
 4990TIP3    H239166   0.835   4.377  19.885 -0.2812 -0.6932 -0.7244
 4991TIP3   OH239167   3.840   4.588  17.566 -0.0173  0.5709  0.4056
 4991TIP3    H139168   3.758   4.543  17.551 -0.2050  0.6058  1.2857
 4991TIP3    H239169   3.904   4.540  17.513 -1.1378  2.5519 -3.0958
 4992TIP3   OH239170   1.461   3.440  18.283 -0.6480 -0.0065  0.1351
 4992TIP3    H139171   1.515   3.511  18.247  0.4347 -1.0826 -0.4438
 4992TIP3    H239172   1.434   3.472  18.369 -0.8761  1.4398 -0.4348
 4993TIP3   OH239173   3.393   0.170  19.406  0.2522 -0.2067  0.0411
 4993TIP3    H139174   3.370   0.260  19.429 -0.1504 -0.4133  0.4507
 4993TIP3    H239175   3.451   0.179  19.331 -0.3452  0.3655 -0.3609
 4994TIP3   OH239176   2.675   2.981  19.400  0.1720  0.6206 -0.2787
 4994TIP3    H139177   2.642   2.981  19.490  0.0662  1.6865 -0.2998
 4994TIP3    H239178   2.643   3.064  19.363 -2.6654 -1.1738 -2.3610
 4995TIP3   OH239179   1.414   2.543  19.831 -0.2775 -0.1969  0.2641
 4995TIP3    H139180   1.378   2.531  19.919 -0.8500  0.9200  0.1945
 4995TIP3    H239181   1.491   2.598  19.844 -0.3975  0.0179  0.0487
 4996TIP3   OH239182   2.100   5.288  19.139 -0.6417 -0.1779 -0.7564
 4996TIP3    H139183   2.164   5.217  19.135 -0.5986 -0.1368 -0.7959
 4996TIP3    H239184   2.123   5.345  19.066 -0.3340  0.1648 -0.4000
 4997TIP3   OH239185   0.637   0.291  20.805 -0.0648  0.7777  0.8011
 4997TIP3    H139186   0.652   0.360  20.870  0.2837 -0.2969  1.9029
 4997TIP3    H239187   0.542   0.292  20.791 -0.1231  1.1287  1.2044
 4998TIP3   OH239188   0.394   3.493  21.327 -0.6001 -0.4003  0.0352
 4998TIP3    H139189   0.449   3.447  21.390 -0.5566  0.6084  0.7538
 4998TIP3    H239190   0.455   3.543  21.273 -0.7759  0.6358  0.7642
 4999TIP3   OH239191   1.243   4.671  20.926  0.1295  0.9682 -0.3212
 4999TIP3    H139192   1.313   4.638  20.870  0.2838 -0.2541  0.5558
 4999TIP3    H239193   1.280   4.750  20.967  0.6150  0.9145 -0.6574
 5000TIP3   OH239194   4.256   4.601  18.048  0.4177  0.2846  0.2642
 5000TIP3    H139195   4.272   4.589  18.141  0.7010 -0.3230  0.1377
 5000TIP3    H239196   4.255   4.512  18.011 -1.5394  0.3624 -0.0134
 5001TIP3   OH239197   2.127   4.024  19.532  0.0926 -0.6282 -0.5426
 5001TIP3    H139198   2.126   4.057  19.622 -2.2835  0.1885 -0.8100
 5001TIP3    H239199   2.160   3.935  19.539 -1.5870 -1.1658  1.3887
 5002TIP3   OH239200   6.634   5.757  19.823 -0.4237  0.1540 -0.4255
 5002TIP3    H139201   6.683   5.822  19.772  0.4194 -1.2457 -1.4616
 5002TIP3    H239202   6.545   5.793  19.828 -0.1775  1.0040 -1.6671
 5003TIP3   OH239203   0.149   4.303  19.632 -0.5096 -0.6425 -0.1457
 5003TIP3    H139204   0.182   4.358  19.703 -0.6920 -1.1640  0.3500
 5003TIP3    H239205   0.222   4.243  19.613  0.2511  0.7178 -1.7115
 5004TIP3   OH239206   3.573   3.938  19.382 -0.1696 -0.1369  0.6460
 5004TIP3    H139207   3.493   3.979  19.415 -0.5540 -0.5709  0.2639
 5004TIP3    H239208   3.629   3.928  19.459 -1.7330 -2.7306  1.5699
 5005TIP3   OH239209   1.649   3.929  20.951  0.4191 -0.0303  0.5846
 5005TIP3    H139210   1.677   3.984  20.878 -0.3391  1.8896  1.6622
 5005TIP3    H239211   1.606   3.990  21.012 -0.0614 -1.7581  2.0618
 5006TIP3   OH239212   3.199   4.371  18.352  0.6709 -0.7138 -0.2565
 5006TIP3    H139213   3.236   4.284  18.367 -0.5782 -0.9820  1.5377
 5006TIP3    H239214   3.254   4.409  18.283  0.2429 -3.5176 -2.3256
 5007TIP3   OH239215   4.947   5.461  19.302 -0.0117  0.1566 -0.0940
 5007TIP3    H139216   4.928   5.368  19.312 -0.4296  0.1290 -1.0435
 5007TIP3    H239217   4.883   5.492  19.238 -0.4952  1.3094  0.9066
 5008TIP3   OH239218   2.896   6.437  18.894  0.3675 -0.3026  0.6282
 5008TIP3    H139219   2.977   6.485  18.912 -0.6396  1.7713 -0.0957
 5008TIP3    H239220   2.895   6.425  18.799 -1.1017  1.5270  0.3685
 5009TIP3   OH239221   5.108   1.290  19.114  0.3952  0.0358 -0.1244
 5009TIP3    H139222   5.165   1.363  19.137  1.6540 -1.2563  1.1013
 5009TIP3    H239223   5.046   1.327  19.052  0.3590  2.3812  1.1792
 5010TIP3   OH239224   4.601   0.342  20.092 -0.7168  0.0635 -0.4163
 5010TIP3    H139225   4.574   0.328  20.183 -0.9779 -2.5552 -0.8303
 5010TIP3    H239226   4.556   0.423  20.066 -1.0957  0.5510  1.5840
 5011TIP3   OH239227   1.699   3.682  21.048 -0.1395  0.4695 -0.1275
 5011TIP3    H139228   1.745   3.649  20.971  2.6381  0.9721  1.1607
 5011TIP3    H239229   1.678   3.773  21.027 -0.6000  0.2165 -0.7695
 5012TIP3   OH239230   1.842   5.034  18.306  0.1228 -0.3438 -0.1822
 5012TIP3    H139231   1.843   4.970  18.235  0.8389  0.7895 -1.2406
 5012TIP3    H239232   1.757   5.079  18.297 -0.3402 -1.0537  0.5027
 5013TIP3   OH239233   1.013   3.675  18.234  0.4645 -0.2566 -0.0518
 5013TIP3    H139234   1.105   3.701  18.239  0.6243 -0.9136  0.7697
 5013TIP3    H239235   0.987   3.664  18.325  0.0763 -1.7542 -0.3150
 5014TIP3   OH239236   5.789   0.903  17.768 -0.2043 -0.3131 -0.6729
 5014TIP3    H139237   5.789   0.998  17.758 -0.3249 -0.2628 -0.2386
 5014TIP3    H239238   5.705   0.875  17.731 -0.2346 -0.2343 -0.6638
 5015TIP3   OH239239   3.251   1.704  20.753 -0.4210 -0.2745 -0.3508
 5015TIP3    H139240   3.233   1.790  20.792  1.7372 -0.1292  0.5016
 5015TIP3    H239241   3.305   1.723  20.677 -0.4729 -0.8321 -0.5325
 5016TIP3   OH239242   1.730   6.510  20.961  0.0137  0.3269 -0.1198
 5016TIP3    H139243   1.807   6.565  20.952  0.0948 -0.0267 -2.1973
 5016TIP3    H239244   1.664   6.566  21.002  1.1230  0.8636  0.9733
 5017TIP3   OH239245   3.247   3.397  17.937 -0.5746 -0.2027  0.2309
 5017TIP3    H139246   3.320   3.399  17.875 -0.9095  1.4159 -0.1439
 5017TIP3    H239247   3.289   3.381  18.022 -0.0671 -1.8941 -0.2974
 5018TIP3   OH239248   3.891   2.863  20.124  0.3420  0.1725 -0.5847
 5018TIP3    H139249   3.886   2.902  20.036  0.4583  1.5083 -0.0241
 5018TIP3    H239250   3.800   2.854  20.151  0.3180  0.1318 -0.6767
 5019TIP3   OH239251   3.908   0.832  18.536  0.5422 -0.1520 -0.2166
 5019TIP3    H139252   3.963   0.855  18.462  0.3489  1.2035  0.0256
 5019TIP3    H239253   3.819   0.833  18.501  0.5684 -0.9945 -0.3045
 5020TIP3   OH239254   2.238   0.655  19.513  0.0161 -0.2196  0.1435
 5020TIP3    H139255   2.222   0.561  19.522 -0.2458 -0.2785 -0.8561
 5020TIP3    H239256   2.172   0.695  19.569 -1.1587 -0.5896 -0.9225
 5021TIP3   OH239257   5.620   2.239  19.537  0.0537  0.5238  0.1175
 5021TIP3    H139258   5.539   2.285  19.560  0.8001  1.2676  1.3925
 5021TIP3    H239259   5.656   2.211  19.622  0.2026 -1.4516 -0.5395
 5022TIP3   OH239260   0.507   4.222  18.526 -0.1185 -0.0778  0.0637
 5022TIP3    H139261   0.416   4.214  18.497  0.0787 -0.3546 -0.4940
 5022TIP3    H239262   0.504   4.204  18.620 -0.7719  0.8408  0.2390
 5023TIP3   OH239263   0.902   0.095  19.288  0.1536 -0.1472  0.0069
 5023TIP3    H139264   0.919   0.159  19.218 -0.3469  0.4851  0.4548
 5023TIP3    H239265   0.877   0.148  19.363  0.0158 -0.8648  0.4729
 5024TIP3   OH239266   3.095   5.045  19.294 -0.0041  0.2319  0.4723
 5024TIP3    H139267   3.076   4.963  19.249 -0.0128 -0.3402  1.4975
 5024TIP3    H239268   3.176   5.076  19.254  0.6505 -0.8967  0.8897
 5025TIP3   OH239269   2.855   5.005  21.139 -0.1576 -0.0809 -0.4082
 5025TIP3    H139270   2.815   5.086  21.108 -0.6771 -0.4667 -0.7725
 5025TIP3    H239271   2.938   5.032  21.177  0.3172  0.4649 -1.7563
 5026TIP3   OH239272   5.254   1.588  19.136 -0.4650 -0.2278  0.0558
 5026TIP3    H139273   5.297   1.673  19.124  0.4911 -0.6289  0.5095
 5026TIP3    H239274   5.236   1.558  19.047  0.5621 -0.2109 -0.1777
 5027TIP3   OH239275   1.504   3.006  19.264  0.0254 -0.0893  0.1438
 5027TIP3    H139276   1.458   3.027  19.346  0.0068 -0.9775  0.3792
 5027TIP3    H239277   1.549   3.087  19.240  0.4719  0.0498  1.3308
 5028TIP3   OH239278   2.412   2.249  18.272  0.2068 -0.2390  0.3943
 5028TIP3    H139279   2.356   2.176  18.246 -1.4053  0.8652  0.6312
 5028TIP3    H239280   2.433   2.295  18.191 -0.3349  0.1017  0.4447
 5029TIP3   OH239281   4.026   1.056  20.528 -0.4607 -0.5283 -0.3191
 5029TIP3    H139282   4.007   1.046  20.435 -2.0727  0.0420 -0.0759
 5029TIP3    H239283   3.955   1.109  20.562  0.3954 -0.2568  1.1479
 5030TIP3   OH239284   6.606   3.146  18.858 -0.1030 -0.0159 -0.0072
 5030TIP3    H139285   6.595   3.052  18.843  2.6144 -0.2996 -0.6622
 5030TIP3    H239286   6.669   3.152  18.929 -1.7962  1.3916  1.4960
 5031TIP3   OH239287   0.966   0.259  20.318  0.1966 -0.6645 -0.4182
 5031TIP3    H139288   0.900   0.295  20.259  0.0038 -0.2020  0.0598
 5031TIP3    H239289   0.930   0.277  20.406  1.4955  0.6888 -0.1161
 5032TIP3   OH239290   1.193   2.738  18.721 -0.0130  0.0654  0.5956
 5032TIP3    H139291   1.255   2.713  18.653 -1.1975  2.2670 -1.4523
 5032TIP3    H239292   1.110   2.701  18.693 -0.2680 -0.1564  1.6049
 5033TIP3   OH239293   5.269   3.507  18.734  0.2001  0.5641  0.4617
 5033TIP3    H139294   5.206   3.568  18.696 -1.2984 -0.1779  1.6040
 5033TIP3    H239295   5.307   3.554  18.808 -1.1324  0.0923  1.4903
 5034TIP3   OH239296   4.467   0.488  18.297  0.0197  0.0692 -0.1202
 5034TIP3    H139297   4.471   0.582  18.284 -0.8473  0.0821 -0.3567
 5034TIP3    H239298   4.558   0.459  18.294  0.4638  1.1290  1.7900
 5035TIP3   OH239299   2.594   4.268  20.017 -0.7085  0.6325  0.0777
 5035TIP3    H139300   2.588   4.178  20.049 -1.4001  0.6888  0.1259
 5035TIP3    H239301   2.517   4.312  20.054 -0.7215  1.0785 -0.4590
 5036TIP3   OH239302   5.281   0.411  19.437  0.2421 -0.6515  0.0094
 5036TIP3    H139303   5.314   0.347  19.373 -1.1680 -0.2751 -1.1399
 5036TIP3    H239304   5.329   0.492  19.416 -0.8688 -0.2806 -1.2232
 5037TIP3   OH239305   6.516   2.923  18.724  0.1198  0.1033  0.2279
 5037TIP3    H139306   6.455   2.984  18.682  1.0139 -0.7368 -2.5554
 5037TIP3    H239307   6.508   2.842  18.673  0.4683 -1.4674  2.5108
 5038TIP3   OH239308   3.490   2.746  20.018  0.3393  0.6662  0.1209
 5038TIP3    H139309   3.418   2.694  20.053  0.4114  0.7798  0.4460
 5038TIP3    H239310   3.541   2.685  19.965  0.5110  0.3666  0.6260
 5039TIP3   OH239311   1.032   0.870  18.159  0.5698 -0.8601  0.5614
 5039TIP3    H139312   1.079   0.909  18.085  0.2780  1.3003  1.4641
 5039TIP3    H239313   1.074   0.784  18.171  2.3932 -0.1515 -0.4210
 5040TIP3   OH239314   4.198   0.113  20.553 -0.5830 -0.5939  0.7918
 5040TIP3    H139315   4.223   0.026  20.522 -1.9383 -0.8508  0.3668
 5040TIP3    H239316   4.193   0.166  20.473  0.5423 -0.0107  1.0755
 5041TIP3   OH239317   1.412   1.915  19.486 -0.1894  0.4405 -0.0386
 5041TIP3    H139318   1.378   1.892  19.400  2.3819 -0.0368 -1.0204
 5041TIP3    H239319   1.470   1.989  19.470  0.5018  0.2123  1.2465
 5042TIP3   OH239320   0.857   1.101  21.038 -0.3954 -0.0416 -0.1623
 5042TIP3    H139321   0.770   1.068  21.061 -0.0450 -0.3081  0.8498
 5042TIP3    H239322   0.842   1.192  21.013 -0.8754  0.1470  0.7500
 5043TIP3   OH239323   5.151   4.703  19.553 -0.5288 -0.2895  1.1275
 5043TIP3    H139324   5.189   4.740  19.474 -0.2655  0.3631  1.5522
 5043TIP3    H239325   5.058   4.727  19.548 -0.2702  0.9023  1.6446
 5044TIP3   OH239326   4.420   5.308  19.186 -0.3060  0.3764 -0.1608
 5044TIP3    H139327   4.324   5.306  19.182 -0.4115 -0.4661  1.5409
 5044TIP3    H239328   4.444   5.222  19.221  1.1372  0.2925 -1.3000
 5045TIP3   OH239329   5.774   6.161  19.297 -1.0320  0.7320 -0.2659
 5045TIP3    H139330   5.733   6.135  19.379  0.2148  1.2798  0.5623
 5045TIP3    H239331   5.759   6.087  19.238 -1.4127  0.0619  0.6473
 5046TIP3   OH239332   1.199   1.363  17.658 -0.3159  0.1013 -0.1996
 5046TIP3    H139333   1.128   1.410  17.703 -0.2512  0.5511 -0.5682
 5046TIP3    H239334   1.190   1.273  17.689 -0.6878  0.2699  0.2069
 5047TIP3   OH239335   0.343   0.307  20.416  0.4439  0.0766  0.2528
 5047TIP3    H139336   0.358   0.358  20.495 -0.7533  0.8445 -0.0003
 5047TIP3    H239337   0.335   0.372  20.346  0.6218 -0.5495 -0.3672
 5048TIP3   OH239338   3.935   0.471  19.184  0.1554 -0.3091  0.6144
 5048TIP3    H139339   3.985   0.436  19.110  0.7927  1.9021 -0.0939
 5048TIP3    H239340   4.002   0.506  19.243 -0.4281  2.4467 -0.2138
 5049TIP3   OH239341   5.809   4.817  19.961  0.2392 -0.4211  0.2711
 5049TIP3    H139342   5.728   4.858  19.931 -1.0104 -2.7118  0.2673
 5049TIP3    H239343   5.864   4.813  19.882 -0.2130 -0.1612 -0.0651
 5050TIP3   OH239344   5.327   6.654  18.048 -0.4489 -0.4242 -0.4500
 5050TIP3    H139345   5.389   6.607  18.104 -1.3045 -1.0095  0.0337
 5050TIP3    H239346   5.286   6.586  17.994 -0.5725 -0.0320 -0.8582
 5051TIP3   OH239347   6.464   3.346  18.421  0.7535  0.9369 -0.0193
 5051TIP3    H139348   6.478   3.328  18.514 -0.1699  1.2532  0.1883
 5051TIP3    H239349   6.412   3.426  18.419 -1.3850 -0.3924 -0.7079
 5052TIP3   OH239350   0.906   4.640  18.167 -0.1082 -0.4878 -0.0447
 5052TIP3    H139351   0.908   4.544  18.172  1.5352 -0.5108 -0.4129
 5052TIP3    H239352   0.999   4.665  18.165 -0.3397  1.3308  3.6253
 5053TIP3   OH239353   1.738   5.584  17.930  0.8325  0.4188 -0.6753
 5053TIP3    H139354   1.722   5.537  18.012  1.5537 -0.0394 -0.7883
 5053TIP3    H239355   1.694   5.531  17.863  0.8481  0.4050 -0.6760
 5054TIP3   OH239356   3.050   1.812  18.813  0.3878  0.4074 -0.0610
 5054TIP3    H139357   3.118   1.837  18.750 -1.3904 -1.0187 -2.7262
 5054TIP3    H239358   2.979   1.875  18.798  0.6247  1.2363  1.9541
 5055TIP3   OH239359   1.192   3.848  19.810  0.0540 -0.2698 -0.0177
 5055TIP3    H139360   1.150   3.932  19.791  0.1814 -0.2851 -0.3782
 5055TIP3    H239361   1.270   3.847  19.754  0.0608 -0.6240 -0.0038
 5056TIP3   OH239362   5.132   4.313  20.506 -0.1758  0.1089 -0.8081
 5056TIP3    H139363   5.177   4.228  20.505 -0.0726  0.1549 -0.2663
 5056TIP3    H239364   5.185   4.370  20.451  0.9615  0.4298  0.5761
 5057TIP3   OH239365   1.914   2.797  20.335  0.0972 -0.1377 -0.1047
 5057TIP3    H139366   1.986   2.759  20.385  1.3752  1.7762 -0.3808
 5057TIP3    H239367   1.953   2.823  20.252 -1.5718 -1.5651 -1.4010
 5058TIP3   OH239368   4.329   0.390  19.222  0.2849 -0.2381  0.3529
 5058TIP3    H139369   4.341   0.367  19.129 -1.2829  1.5220 -0.3616
 5058TIP3    H239370   4.303   0.307  19.264  1.5134 -1.1736 -0.6568
 5059TIP3   OH239371   0.450   3.187  18.680 -1.1066 -0.0653 -0.2738
 5059TIP3    H139372   0.376   3.127  18.691 -1.0022 -0.1544 -0.0396
 5059TIP3    H239373   0.411   3.274  18.689 -1.3223 -0.0822 -1.0054
 5060TIP3   OH239374   6.291   0.327  20.954 -0.2938  0.0602 -0.3921
 5060TIP3    H139375   6.224   0.324  20.886  0.0658  0.3547 -0.7681
 5060TIP3    H239376   6.242   0.333  21.036 -0.7302  0.6464 -0.6853
 5061TIP3   OH239377   5.703   0.574  18.268 -0.2610 -0.4656  0.3582
 5061TIP3    H139378   5.706   0.489  18.225  0.3671 -0.9356  1.3017
 5061TIP3    H239379   5.667   0.633  18.202  0.0595 -1.2942 -0.5796
 5062TIP3   OH239380   1.837   0.832  19.899 -0.3427 -0.0087 -0.0835
 5062TIP3    H139381   1.796   0.798  19.978 -1.2033  0.5426 -0.2822
 5062TIP3    H239382   1.848   0.756  19.842 -1.3363 -0.1211 -0.1319
 5063TIP3   OH239383   1.637   1.497  18.444 -0.5894  0.7198 -0.3771
 5063TIP3    H139384   1.637   1.473  18.537 -1.7929  0.0034 -0.5365
 5063TIP3    H239385   1.570   1.440  18.405  2.0147 -1.2640 -2.3038
 5064TIP3   OH239386   4.359   2.091  19.461 -0.0009 -0.2654 -0.3327
 5064TIP3    H139387   4.450   2.083  19.435  0.5123  1.9759  0.5373
 5064TIP3    H239388   4.316   2.137  19.389 -0.1677 -0.2345 -0.2168
 5065TIP3   OH239389   4.941   2.886  18.378  0.4990  0.2923 -0.0370
 5065TIP3    H139390   4.939   2.795  18.349  0.6053  0.5566 -0.9110
 5065TIP3    H239391   5.031   2.915  18.360  1.5976 -0.4388  3.5691
 5066TIP3   OH239392   4.466   5.228  20.357 -0.1819 -0.3769  0.6115
 5066TIP3    H139393   4.423   5.304  20.318 -0.2143 -1.0603 -0.7136
 5066TIP3    H239394   4.497   5.177  20.283  3.2325  0.2285  1.4689
 5067TIP3   OH239395   3.121   1.807  20.487 -0.0213 -0.0422  0.5593
 5067TIP3    H139396   3.075   1.842  20.411 -1.5015 -0.1387  1.3629
 5067TIP3    H239397   3.211   1.795  20.458 -0.5606 -0.1027 -1.1750
 5068TIP3   OH239398   1.589   4.203  21.081 -0.1608  0.0081 -0.2189
 5068TIP3    H139399   1.588   4.255  21.001 -1.7838  0.7557  0.2508
 5068TIP3    H239400   1.659   4.241  21.134  1.3070 -0.8415 -1.4610
 5069TIP3   OH239401   2.271   4.472  20.980  0.2192  0.1132 -0.1084
 5069TIP3    H139402   2.286   4.566  20.969 -0.6162  0.4545  1.4218
 5069TIP3    H239403   2.208   4.449  20.911  0.4004  0.6619 -0.4633
 5070TIP3   OH239404   2.806   3.371  19.374  0.7067  0.0502  0.4116
 5070TIP3    H139405   2.847   3.413  19.450  1.6301 -1.6995  0.9433
 5070TIP3    H239406   2.728   3.328  19.409  2.4144 -2.8554  1.0125
 5071TIP3   OH239407   0.897   4.990  18.658  0.5889  0.7600 -0.1681
 5071TIP3    H139408   0.834   4.995  18.586  1.1522 -1.7089 -0.9025
 5071TIP3    H239409   0.982   5.004  18.616  0.9452 -0.9732 -0.0585
 5072TIP3   OH239410   0.705   3.056  20.025  0.2726  0.0028  0.3732
 5072TIP3    H139411   0.630   3.030  20.078 -0.3793  0.1481 -0.4612
 5072TIP3    H239412   0.681   3.141  19.989  1.9703  1.3611  2.2716
 5073TIP3   OH239413   4.879   5.455  19.829 -0.2715  0.3294 -0.4634
 5073TIP3    H139414   4.856   5.401  19.904 -0.8649  0.9139 -0.2124
 5073TIP3    H239415   4.908   5.393  19.762 -2.7535 -0.5025 -0.8681
 5074TIP3   OH239416   1.102   4.505  19.669  0.7758 -0.3759 -0.2105
 5074TIP3    H139417   1.172   4.516  19.605  1.1578  2.6064  0.5623
 5074TIP3    H239418   1.033   4.457  19.623  1.3489  0.9656 -2.5988
 5075TIP3   OH239419   3.748   2.580  18.595  0.4677 -0.4298 -0.1647
 5075TIP3    H139420   3.697   2.540  18.665 -0.3903  0.0545 -0.4876
 5075TIP3    H239421   3.682   2.626  18.541  1.2703  0.3787 -0.4823
 5076TIP3   OH239422   6.108   5.496  19.227  0.1023  0.0909  0.4932
 5076TIP3    H139423   6.036   5.513  19.289 -1.2950  0.8662 -1.2691
 5076TIP3    H239424   6.125   5.402  19.236  0.2747  0.2524  2.3509
 5077TIP3   OH239425   1.285   0.695  19.566 -0.5920 -0.2312  0.1066
 5077TIP3    H139426   1.354   0.701  19.632 -0.6975 -0.1558  0.2101
 5077TIP3    H239427   1.297   0.609  19.526 -0.4539 -0.2277  0.1413
 5078TIP3   OH239428   1.461   5.115  18.909  0.4482  0.0956 -0.0460
 5078TIP3    H139429   1.439   5.177  18.978  0.5532 -0.5757  0.5931
 5078TIP3    H239430   1.540   5.072  18.940  0.9912  0.3809 -0.9725
 5079TIP3   OH239431   1.072   1.552  20.461  0.3218  0.2964  0.5340
 5079TIP3    H139432   1.070   1.458  20.441  1.0649  0.4388 -0.2907
 5079TIP3    H239433   1.111   1.557  20.548 -1.4912 -0.2500  1.4422
 5080TIP3   OH239434   4.557   2.773  20.279  0.3539 -0.1795 -0.1932
 5080TIP3    H139435   4.533   2.863  20.259  1.5682  0.2194  0.0150
 5080TIP3    H239436   4.607   2.780  20.360  1.5466 -0.8665 -0.8431
 5081TIP3   OH239437   2.832   6.261  20.823 -0.1565 -0.4879 -0.1751
 5081TIP3    H139438   2.764   6.235  20.885  0.8288  0.4380  1.3553
 5081TIP3    H239439   2.843   6.355  20.838 -0.2515 -0.1123 -2.1586
 5082TIP3   OH239440   2.233   1.402  20.791  0.5327 -1.2193 -0.7228
 5082TIP3    H139441   2.290   1.336  20.830 -2.3188 -1.7137  3.2573
 5082TIP3    H239442   2.197   1.450  20.866 -2.5037  0.5096 -3.0490
 5083TIP3   OH239443   4.765   5.845  18.952  0.5243  0.7003  0.2471
 5083TIP3    H139444   4.675   5.819  18.974  0.4837 -0.2615 -0.9599
 5083TIP3    H239445   4.771   5.936  18.982 -1.3358  1.2839 -0.9581
 5084TIP3   OH239446   3.752   0.233  20.469 -0.3356  0.3594 -0.0533
 5084TIP3    H139447   3.740   0.155  20.415  0.3611  0.1041  0.1465
 5084TIP3    H239448   3.756   0.200  20.559 -0.7604  0.7044  0.0986
 5085TIP3   OH239449   1.509   5.230  18.429  0.0307 -0.7059 -0.0144
 5085TIP3    H139450   1.504   5.317  18.390  1.8541  0.0688  1.3553
 5085TIP3    H239451   1.532   5.172  18.357  0.9026  0.2987 -0.5680
 5086TIP3   OH239452   0.330   5.560  20.437 -0.1266  0.5442 -0.0663
 5086TIP3    H139453   0.260   5.626  20.439 -0.1905  0.5577 -1.6141
 5086TIP3    H239454   0.331   5.524  20.525 -0.0119  2.7058  0.8709
 5087TIP3   OH239455   4.659   3.359  19.165 -0.5480  0.5010  0.2878
 5087TIP3    H139456   4.584   3.418  19.172 -0.3462  0.7301  0.5771
 5087TIP3    H239457   4.660   3.331  19.074 -1.4969 -0.1957  0.4822
 5088TIP3   OH239458   2.694   5.955  18.179  0.1970 -0.0952  0.0487
 5088TIP3    H139459   2.627   5.940  18.246  0.4366 -0.2574  0.2531
 5088TIP3    H239460   2.748   6.026  18.213  0.6360 -0.5280  0.2724
 5089TIP3   OH239461   4.063   1.202  19.291 -0.2598  0.2355 -0.1072
 5089TIP3    H139462   3.992   1.214  19.354 -3.0339  1.4757 -3.1255
 5089TIP3    H239463   4.092   1.291  19.270  1.1401 -0.1900 -0.0555
 5090TIP3   OH239464   3.885   6.229  20.518 -0.4746 -0.5497  0.1855
 5090TIP3    H139465   3.906   6.280  20.440  0.6994 -1.2571  0.0160
 5090TIP3    H239466   3.822   6.164  20.488 -2.2714  0.9567  0.4791
 5091TIP3   OH239467   4.319   5.125  19.453  0.4112  0.0933 -0.0056
 5091TIP3    H139468   4.333   5.118  19.548 -0.4037  0.4400  0.1509
 5091TIP3    H239469   4.249   5.190  19.444  0.8846  0.4947 -0.8822
 5092TIP3   OH239470   0.293   4.533  19.788  0.0162 -0.0637 -0.0300
 5092TIP3    H139471   0.361   4.469  19.811  0.5465  0.3387 -0.4309
 5092TIP3    H239472   0.322   4.569  19.704 -0.8832 -0.1357 -0.3776
 5093TIP3   OH239473   1.807   3.053  18.426 -0.1602 -0.0042 -0.7283
 5093TIP3    H139474   1.899   3.079  18.424 -0.4228  1.0814  0.2637
 5093TIP3    H239475   1.760   3.128  18.392 -0.7806  0.0622  0.2318
 5094TIP3   OH239476   0.456   3.714  18.888  0.2856 -0.4261 -0.2715
 5094TIP3    H139477   0.363   3.727  18.868  0.6021 -0.0782 -1.5896
 5094TIP3    H239478   0.486   3.653  18.821  1.1752 -0.0073 -0.2609
 5095TIP3   OH239479   6.523   5.567  17.548 -0.0382  0.3748 -0.0349
 5095TIP3    H139480   6.544   5.599  17.461 -2.3992 -0.3514 -0.9589
 5095TIP3    H239481   6.580   5.617  17.607  1.1232  1.3692 -1.9133
 5096TIP3   OH239482   5.355   3.686  21.138 -0.4020 -0.0238 -0.3337
 5096TIP3    H139483   5.413   3.715  21.208  1.2116  0.0852 -1.6662
 5096TIP3    H239484   5.406   3.698  21.058 -1.8726 -0.9629 -1.4573
 5097TIP3   OH239485   2.322   3.213  19.589  0.0285 -0.3133  0.0441
 5097TIP3    H139486   2.263   3.288  19.587  0.7809  0.2886 -0.1977
 5097TIP3    H239487   2.282   3.149  19.530  0.5983  0.8743 -1.7156
 5098TIP3   OH239488   1.267   5.231  19.076 -0.3617  0.0198 -0.2568
 5098TIP3    H139489   1.237   5.320  19.095  1.3102  0.4326  0.6409
 5098TIP3    H239490   1.278   5.190  19.161 -0.2685 -0.7550 -0.6326
 5099TIP3   OH239491   2.915   1.441  18.492  0.6975 -0.2814 -0.6303
 5099TIP3    H139492   2.973   1.427  18.566  0.8065 -0.4694 -0.7490
 5099TIP3    H239493   2.827   1.427  18.527  0.7077  0.2300 -0.3939
 5100TIP3   OH239494   2.194   2.768  17.740  0.1632 -0.4722  0.3188
 5100TIP3    H139495   2.121   2.783  17.800 -0.9168  2.8896 -1.4927
 5100TIP3    H239496   2.213   2.855  17.704  1.4342 -2.0338 -3.3331
 5101TIP3   OH239497   1.003   3.608  19.228 -0.2917 -0.6189 -0.0809
 5101TIP3    H139498   0.918   3.576  19.257 -1.4319  0.8228 -1.6013
 5101TIP3    H239499   1.020   3.684  19.283  0.8556 -1.8291  1.3262
 5102TIP3   OH239500   5.206   3.203  18.507  0.3011 -0.4537 -0.0375
 5102TIP3    H139501   5.148   3.187  18.581 -1.8776  1.6697 -1.1205
 5102TIP3    H239502   5.213   3.119  18.462 -0.0350 -1.2736  1.3818
 5103TIP3   OH239503   3.042   1.720  18.386  0.4170  0.1373  0.1196
 5103TIP3    H139504   3.115   1.748  18.332  0.4851 -0.4309 -0.0882
 5103TIP3    H239505   3.065   1.749  18.475  1.2566 -0.7043  0.1912
 5104TIP3   OH239506   5.398   3.993  20.778  0.5643  0.7524 -0.3014
 5104TIP3    H139507   5.305   3.971  20.770  0.8207 -0.5229 -0.1046
 5104TIP3    H239508   5.403   4.087  20.762 -0.7068  0.7600 -0.7124
 5105TIP3   OH239509   3.671   0.619  20.166  0.0541  0.1736 -0.8030
 5105TIP3    H139510   3.718   0.702  20.180  0.8064 -0.3756  0.0184
 5105TIP3    H239511   3.633   0.628  20.079  1.9700  0.5220 -1.6558
 5106TIP3   OH239512   5.224   0.863  20.849  0.0974  0.7670 -0.2986
 5106TIP3    H139513   5.230   0.771  20.824  0.0926  0.2778  1.4133
 5106TIP3    H239514   5.153   0.867  20.912  0.6046  1.8130  0.2394
 5107TIP3   OH239515   1.751   6.244  19.167  0.2641 -0.1884  0.4073
 5107TIP3    H139516   1.827   6.188  19.151  1.2966  1.6597 -1.6285
 5107TIP3    H239517   1.686   6.214  19.104  0.1375 -0.2910  0.5852
 5108TIP3   OH239518   5.065   4.451  19.685  0.8189  0.5549 -0.0706
 5108TIP3    H139519   5.109   4.479  19.605  2.0661 -1.5371 -0.1976
 5108TIP3    H239520   5.137   4.430  19.745 -0.0450 -0.6147  0.5920
 5109TIP3   OH239521   4.840   5.800  20.803 -0.4785  0.2676  0.1694
 5109TIP3    H139522   4.806   5.863  20.867 -0.8741  0.0209  0.2013
 5109TIP3    H239523   4.789   5.816  20.724 -1.2219 -0.6259  0.4472
 5110TIP3   OH239524   1.851   2.310  20.303  0.3789 -0.4997  0.1478
 5110TIP3    H139525   1.945   2.302  20.320  0.7026 -3.2803 -2.1191
 5110TIP3    H239526   1.820   2.219  20.305 -2.3388  0.3675  0.9902
 5111TIP3   OH239527   5.704   1.650  19.570 -0.2056 -0.1110 -0.9801
 5111TIP3    H139528   5.661   1.689  19.494 -2.0950  0.2446  0.2106
 5111TIP3    H239529   5.729   1.563  19.541  0.1560  0.4098 -2.3435
 5112TIP3   OH239530   2.279   3.556  21.082 -0.4960 -0.5262  0.2498
 5112TIP3    H139531   2.197   3.603  21.098  0.8806  1.5605  1.8501
 5112TIP3    H239532   2.253   3.470  21.051 -3.2472  0.5207 -0.5911
 5113TIP3   OH239533   6.363   1.251  19.253  0.5141 -0.2435  0.0166
 5113TIP3    H139534   6.302   1.178  19.261 -0.6046  0.8542  2.6978
 5113TIP3    H239535   6.318   1.325  19.293  2.2004  1.5768 -1.2296
 5114TIP3   OH239536   4.203   0.822  19.127  0.0230  0.3536  0.4291
 5114TIP3    H139537   4.220   0.757  19.059 -0.6491 -0.6292  1.1774
 5114TIP3    H239538   4.231   0.780  19.208  2.7998  2.2971  0.5955
 5115TIP3   OH239539   4.278   4.533  19.872  0.0766 -0.5678  0.5738
 5115TIP3    H139540   4.286   4.460  19.811 -0.2510  0.1445 -0.3345
 5115TIP3    H239541   4.289   4.611  19.818  2.8537  0.0485  1.8982
 5116TIP3   OH239542   4.357   4.749  17.765 -0.3554 -0.1765 -0.0277
 5116TIP3    H139543   4.299   4.825  17.774 -0.4941 -0.4135  1.1985
 5116TIP3    H239544   4.303   4.675  17.791 -0.9877 -1.0956 -3.4027
 5117TIP3   OH239545   3.730   6.246  18.797  0.4234  0.1766  0.1738
 5117TIP3    H139546   3.702   6.279  18.712 -0.0980 -0.9817 -0.1360
 5117TIP3    H239547   3.697   6.156  18.799  1.6901 -0.2927  1.0007
 5118TIP3   OH239548   4.193   6.345  18.111 -0.0706  0.0022  0.7847
 5118TIP3    H139549   4.131   6.278  18.139 -1.4726  0.7597 -0.3286
 5118TIP3    H239550   4.163   6.371  18.023  0.5211  1.9259  1.0864
 5119TIP3   OH239551   4.586   5.217  18.690  0.0672 -0.1416  0.1442
 5119TIP3    H139552   4.647   5.178  18.628 -1.4549 -1.2438 -0.7069
 5119TIP3    H239553   4.574   5.307  18.659  1.3990  0.1851  0.4769
 5120TIP3   OH239554   3.081   5.385  18.420 -0.0809 -0.6263 -0.3697
 5120TIP3    H139555   3.163   5.401  18.467 -1.0162 -0.4907  1.2746
 5120TIP3    H239556   3.030   5.331  18.479 -1.3715 -0.3181 -1.1761
 5121TIP3   OH239557   2.093   1.329  17.469 -0.1538 -0.2185  0.6426
 5121TIP3    H139558   2.125   1.280  17.545  0.7233 -0.2620  0.2509
 5121TIP3    H239559   2.135   1.414  17.476  1.0787 -0.6897 -0.5491
 5122TIP3   OH239560   2.749   3.860  20.036 -0.4503 -0.4061  0.1854
 5122TIP3    H139561   2.809   3.889  19.967 -0.8677 -0.0920 -0.0524
 5122TIP3    H239562   2.749   3.765  20.029  0.1666 -0.4195  0.3159
 5123TIP3   OH239563   1.203   6.674  18.379 -0.0239  0.0580  0.1916
 5123TIP3    H139564   1.262   6.734  18.333 -1.4838  0.6136 -1.0633
 5123TIP3    H239565   1.193   6.600  18.320 -1.5827  0.5748 -0.2347
 5124TIP3   OH239566   2.288   4.458  17.688  0.2400  0.1879 -0.2643
 5124TIP3    H139567   2.251   4.387  17.740  2.5067 -0.2560  0.8670
 5124TIP3    H239568   2.254   4.443  17.599 -2.1993 -0.1415  0.6377
 5125TIP3   OH239569   3.844   6.243  20.004 -0.1860  0.3112 -0.6274
 5125TIP3    H139570   3.888   6.255  19.920 -0.0734 -0.4999 -0.6928
 5125TIP3    H239571   3.902   6.186  20.054 -1.1835 -0.8703 -0.7534
 5126TIP3   OH239572   2.577   5.713  20.171  0.7752  0.0063 -0.2450
 5126TIP3    H139573   2.617   5.645  20.117  0.2578  0.1706 -0.8514
 5126TIP3    H239574   2.489   5.724  20.134  0.4920  0.2813  0.4909
 5127TIP3   OH239575   0.263   2.038  20.572  0.1210  0.0693  0.0629
 5127TIP3    H139576   0.214   2.088  20.637 -0.2739 -0.8058  0.4499
 5127TIP3    H239577   0.309   1.971  20.623 -3.4750 -3.3892 -0.8156
 5128TIP3   OH239578   4.057   6.409  18.979 -0.0542 -0.0211 -0.1201
 5128TIP3    H139579   4.091   6.324  19.005 -0.3276 -0.3689 -0.8674
 5128TIP3    H239580   4.132   6.456  18.942  0.0849  0.0473  0.2448
 5129TIP3   OH239581   3.103   6.625  18.918  0.4088  0.3426 -0.2409
 5129TIP3    H139582   3.150   6.606  19.000 -0.0978  0.2618  0.0367
 5129TIP3    H239583   3.164   6.677  18.866  1.8490 -1.9810 -1.0119
 5130TIP3   OH239584   5.041   4.605  20.513 -0.4880  0.6848 -0.3169
 5130TIP3    H139585   5.026   4.538  20.580 -1.2917  0.0169 -1.1328
 5130TIP3    H239586   5.123   4.647  20.539  1.3351 -2.1505 -0.9888
 5131TIP3   OH239587   5.854   5.985  19.076  0.4732 -0.6361  0.3187
 5131TIP3    H139588   5.946   6.011  19.077  0.2672  0.3184  3.1138
 5131TIP3    H239589   5.822   6.013  18.990  2.5645 -0.2289 -0.3841
 5132TIP3   OH239590   3.152   0.055  19.552 -0.3587  0.2586 -0.1374
 5132TIP3    H139591   3.075   0.110  19.557 -0.0391  0.6740  0.2951
 5132TIP3    H239592   3.222   0.113  19.522  0.2380  0.3707  1.4118
 5133TIP3   OH239593   2.073   5.446  19.379  0.2721 -0.7922 -0.3422
 5133TIP3    H139594   2.076   5.392  19.300 -0.4884  0.1499 -1.0330
 5133TIP3    H239595   2.025   5.525  19.353 -0.2388 -0.5784  1.1232
 5134TIP3   OH239596   2.519   5.244  19.939  0.4144  0.1526 -0.0127
 5134TIP3    H139597   2.474   5.177  19.888  0.0839  0.8217 -0.6135
 5134TIP3    H239598   2.602   5.258  19.893 -0.2136  1.3162 -0.8540
 5135TIP3   OH239599   3.649   4.757  20.248  0.5576 -0.1545  0.4588
 5135TIP3    H139600   3.685   4.703  20.318  1.4419  1.1022  0.9917
 5135TIP3    H239601   3.554   4.745  20.255  0.6913 -0.8389  1.2129
 5136TIP3   OH239602   2.631   1.221  20.372 -0.2914  0.3315  0.3882
 5136TIP3    H139603   2.724   1.235  20.390 -0.4953  1.1765  0.8424
 5136TIP3    H239604   2.598   1.308  20.348 -0.8293 -0.0888 -0.4324
 5137TIP3   OH239605   1.432   5.513  20.377  0.5302 -0.2120  0.2564
 5137TIP3    H139606   1.526   5.519  20.390  1.2820 -3.0963 -2.5826
 5137TIP3    H239607   1.407   5.595  20.335  1.2411  1.5036  2.9524
 5138TIP3   OH239608   5.437   0.177  18.243 -0.2253 -0.0739 -0.5422
 5138TIP3    H139609   5.411   0.212  18.158 -1.0714 -0.9753 -0.6855
 5138TIP3    H239610   5.494   0.103  18.222  3.1164  2.2142 -0.2254
 5139TIP3   OH239611   2.985   5.903  19.328 -0.0849 -0.0560  0.2419
 5139TIP3    H139612   2.997   5.912  19.233 -2.7786 -2.0327 -0.4150
 5139TIP3    H239613   2.987   5.808  19.343 -0.4024  0.1961  2.0391
 5140TIP3   OH239614   3.441   1.110  18.368 -0.2381  0.4794  0.2267
 5140TIP3    H139615   3.435   1.030  18.420  0.6999 -0.2473 -0.7268
 5140TIP3    H239616   3.516   1.095  18.310  0.4249  2.3637  0.5320
 5141TIP3   OH239617   0.322   3.695  19.757 -0.3475  0.2409 -0.1785
 5141TIP3    H139618   0.386   3.664  19.693  0.4439  0.3718  0.5332
 5141TIP3    H239619   0.345   3.649  19.838 -2.6616 -1.6180 -0.4496
 5142TIP3   OH239620   2.011   5.747  19.765  0.1059 -0.5636 -0.2233
 5142TIP3    H139621   1.962   5.665  19.753  0.5940 -0.7736 -0.7836
 5142TIP3    H239622   1.984   5.801  19.691  0.4722 -0.5550 -0.3472
 5143TIP3   OH239623   6.376   0.334  18.960  0.1885  0.0875  0.1829
 5143TIP3    H139624   6.328   0.297  19.034  0.1731  0.6712  0.4697
 5143TIP3    H239625   6.468   0.323  18.984  0.1951 -0.6077 -0.1558
 5144TIP3   OH239626   2.032   1.957  20.624  0.3351  0.0304 -0.4458
 5144TIP3    H139627   2.030   1.868  20.589  1.5201 -0.5226  0.7794
 5144TIP3    H239628   2.082   2.006  20.559 -3.1578  0.7269 -2.8874
 5145TIP3   OH239629   4.560   5.132  19.341 -0.2720 -0.4984 -0.9580
 5145TIP3    H139630   4.473   5.109  19.374  0.5665 -0.7184  1.2284
 5145TIP3    H239631   4.592   5.199  19.401  1.2086 -0.6746 -1.5022
 5146TIP3   OH239632   3.874   0.615  17.680 -0.0926 -0.1708  0.3862
 5146TIP3    H139633   3.852   0.707  17.663  0.2328 -0.2753 -0.6721
 5146TIP3    H239634   3.796   0.580  17.723  0.3833  0.9815  2.2938
 5147TIP3   OH239635   4.390   2.868  19.009 -0.0593 -0.1168  0.0715
 5147TIP3    H139636   4.317   2.840  19.064 -0.6018 -0.6240 -0.8746
 5147TIP3    H239637   4.425   2.786  18.974 -0.0176  0.2218 -0.6885
 5148TIP3   OH239638   6.107   4.077  19.744 -0.5219 -0.1362  0.1207
 5148TIP3    H139639   6.043   4.020  19.701  0.5319 -1.3066  0.0686
 5148TIP3    H239640   6.091   4.164  19.705 -1.8316 -0.4706 -0.1416
 5149TIP3   OH239641   2.756   1.950  18.579  0.2026  0.2826  0.0182
 5149TIP3    H139642   2.822   1.984  18.639 -0.2063  0.4711  0.3660
 5149TIP3    H239643   2.780   1.858  18.567  0.6348  0.3952 -0.0112
 5150TIP3   OH239644   0.342   1.474  18.955  0.1221  0.1747  0.6075
 5150TIP3    H139645   0.391   1.516  18.885 -0.5409 -0.5167 -0.2952
 5150TIP3    H239646   0.278   1.419  18.910  0.8816 -1.7129  1.7207
 5151TIP3   OH239647   4.726   4.812  19.056 -0.0758 -0.2477  0.0918
 5151TIP3    H139648   4.806   4.771  19.021  1.2448  1.3957  1.0073
 5151TIP3    H239649   4.700   4.874  18.988  0.3912  0.3700  0.4668
 5152TIP3   OH239650   4.953   2.187  19.298  0.3685  0.4522 -0.3895
 5152TIP3    H139651   4.923   2.238  19.223  0.0891 -0.1956 -0.7219
 5152TIP3    H239652   4.987   2.106  19.261 -0.2129 -0.0802  0.2093
 5153TIP3   OH239653   2.285   2.918  18.474 -0.1778 -0.3582 -0.5554
 5153TIP3    H139654   2.362   2.902  18.420 -0.3896 -0.1159 -0.9397
 5153TIP3    H239655   2.224   2.962  18.415 -0.3629  0.0305 -0.0798
 5154TIP3   OH239656   0.850   0.730  20.532 -0.0104 -0.8926  0.0524
 5154TIP3    H139657   0.800   0.651  20.553  1.1101 -1.9529 -1.1059
 5154TIP3    H239658   0.941   0.707  20.551  0.1137  1.1083  2.4003
 5155TIP3   OH239659   1.631   1.272  17.365 -0.3954  0.2317  0.0831
 5155TIP3    H139660   1.699   1.258  17.299 -0.0038 -1.6246  0.8381
 5155TIP3    H239661   1.575   1.341  17.327  1.6670  1.5671 -0.6981
 5156TIP3   OH239662   4.155   0.495  19.764 -0.0390 -0.0716  0.5548
 5156TIP3    H139663   4.221   0.435  19.797 -0.9320 -0.8917  0.8977
 5156TIP3    H239664   4.085   0.438  19.732 -0.1756  0.7480 -0.6900
 5157TIP3   OH239665   0.588   6.345  18.358  0.2900  0.0225  0.2849
 5157TIP3    H139666   0.555   6.419  18.307 -0.3020  0.2252  0.9345
 5157TIP3    H239667   0.512   6.288  18.369  1.0289 -1.3207 -1.2501
 5158TIP3   OH239668   1.196   2.829  20.004  0.4219  0.1806  0.1125
 5158TIP3    H139669   1.275   2.869  20.040 -0.7703  1.6708  1.2391
 5158TIP3    H239670   1.131   2.899  20.004 -0.7587 -0.8430 -1.3170
 5159TIP3   OH239671   1.324   6.679  20.264  0.3180  0.1696  0.1348
 5159TIP3    H139672   1.251   6.634  20.307  0.0132  1.2081  0.7296
 5159TIP3    H239673   1.345   6.622  20.189  0.4695 -1.3509  1.2821
 5160TIP3   OH239674   6.292   1.869  20.471  0.2566  0.0735 -0.4498
 5160TIP3    H139675   6.201   1.841  20.469  0.5001 -0.7225 -0.9634
 5160TIP3    H239676   6.327   1.831  20.552 -0.0421  0.9896  0.1269
 5161TIP3   OH239677   3.303   3.330  20.655 -0.5454  0.1263 -0.3255
 5161TIP3    H139678   3.344   3.280  20.584 -0.3462 -1.9128  1.1287
 5161TIP3    H239679   3.216   3.291  20.664 -0.7611  0.7229  0.2250
 5162TIP3   OH239680   1.871   1.200  18.630  0.0823  0.7084  0.0922
 5162TIP3    H139681   1.889   1.230  18.541 -0.9137 -0.0072 -0.3693
 5162TIP3    H239682   1.778   1.180  18.630  0.0132  0.9539  1.3850
 5163TIP3   OH239683   0.627   6.622  19.189 -0.0329  0.1213 -0.3764
 5163TIP3    H139684   0.695   6.572  19.234 -0.8093  0.2824  1.0436
 5163TIP3    H239685   0.553   6.561  19.183 -0.4297  0.5709 -0.1072
 5164TIP3   OH239686   1.933   5.612  17.700 -0.2700 -0.3815 -0.3382
 5164TIP3    H139687   1.841   5.585  17.693 -0.5691  0.4177  0.3423
 5164TIP3    H239688   1.974   5.575  17.622 -1.5357  0.6542 -1.5585
 5165TIP3   OH239689   0.552   1.753  20.369  0.4128 -0.1031  0.1113
 5165TIP3    H139690   0.632   1.758  20.317 -0.5798  0.2931 -1.4490
 5165TIP3    H239691   0.501   1.829  20.342 -0.5594 -0.4369  0.9612
 5166TIP3   OH239692   1.683   6.270  20.882  0.5733 -0.2110  0.1643
 5166TIP3    H139693   1.683   6.363  20.902  0.9866 -0.5514  1.9518
 5166TIP3    H239694   1.590   6.245  20.880  0.4776  0.1469  0.1644
 5167TIP3   OH239695   0.278   1.991  19.993  0.2533 -0.6264 -0.1362
 5167TIP3    H139696   0.259   1.898  19.987 -0.6114 -0.3931 -1.6389
 5167TIP3    H239697   0.322   2.013  19.911 -0.9417  0.5410 -0.5251
 5168TIP3   OH239698   3.500   0.196  19.695 -0.0598 -0.5827 -0.3971
 5168TIP3    H139699   3.466   0.188  19.784  1.3681 -0.0668  0.2336
 5168TIP3    H239700   3.549   0.115  19.681 -0.8548 -0.9694 -0.9865
 5169TIP3   OH239701   1.439   1.251  20.337  0.0880 -0.3795 -0.1921
 5169TIP3    H139702   1.406   1.340  20.350  2.1254  0.6902 -1.7843
 5169TIP3    H239703   1.473   1.225  20.423  0.6958  0.9539 -0.0072
 5170TIP3   OH239704   3.655   2.793  20.260 -0.3833 -0.0776  0.0577
 5170TIP3    H139705   3.596   2.731  20.218 -1.3817  0.5168  0.5460
 5170TIP3    H239706   3.701   2.741  20.327 -0.0749 -0.6211 -0.5650
 5171TIP3   OH239707   6.309   1.753  20.738  0.0834  0.7599  0.3682
 5171TIP3    H139708   6.376   1.766  20.806  0.2332  0.9986  0.1779
 5171TIP3    H239709   6.235   1.715  20.785 -0.0386  1.4895  0.7824
 5172TIP3   OH239710   4.948   0.889  19.875  0.0409 -0.2912 -0.1615
 5172TIP3    H139711   4.890   0.953  19.834 -0.0966  0.4935  1.2139
 5172TIP3    H239712   5.024   0.940  19.904 -1.5221  0.0480  4.0139
 5173TIP3   OH239713   3.143   6.499  18.216  0.7602  0.0167 -0.0400
 5173TIP3    H139714   3.051   6.479  18.199  1.1021  0.3889 -2.7067
 5173TIP3    H239715   3.141   6.589  18.249  0.1854  0.0354 -0.1016
 5174TIP3   OH239716   2.311   3.158  18.622  0.1391  0.6354 -0.5383
 5174TIP3    H139717   2.364   3.093  18.575  0.7161  1.0225 -0.4360
 5174TIP3    H239718   2.222   3.144  18.589 -0.1897 -1.6366  1.0170
 5175TIP3   OH239719   5.808   0.982  18.180  0.4289 -0.2759 -0.3949
 5175TIP3    H139720   5.792   1.069  18.144 -1.4217  0.5003  2.0156
 5175TIP3    H239721   5.775   0.922  18.113  1.0163  0.8699 -1.7587
 5176TIP3   OH239722   5.274   2.403  17.534  0.3679  0.7043  0.1273
 5176TIP3    H139723   5.352   2.389  17.587  0.8096  0.3328 -0.5933
 5176TIP3    H239724   5.226   2.472  17.579  0.6273  0.2652  1.0981
 5177TIP3   OH239725   1.605   1.320  20.950 -0.4304  0.1768 -0.1703
 5177TIP3    H139726   1.570   1.241  20.907 -2.0915 -0.1788  1.6531
 5177TIP3    H239727   1.694   1.295  20.976 -1.4389 -1.7964  1.8001
 5178TIP3   OH239728   4.918   4.148  19.108  0.3123  0.0477 -0.0932
 5178TIP3    H139729   4.924   4.240  19.082 -0.3195  0.5051  1.2482
 5178TIP3    H239730   4.922   4.150  19.204 -0.4234 -1.2596 -0.0087
 5179TIP3   OH239731   5.642   4.918  18.569 -0.4263  0.2527 -0.2112
 5179TIP3    H139732   5.716   4.858  18.582 -0.9935 -0.3832  0.1329
 5179TIP3    H239733   5.587   4.875  18.503 -0.6359  0.5841 -0.2543
 5180TIP3   OH239734   1.781   0.712  20.137  0.2264  0.1466  0.0922
 5180TIP3    H139735   1.828   0.629  20.132  0.9375  0.4631  1.1316
 5180TIP3    H239736   1.718   0.700  20.209 -0.9389 -0.0873 -0.9309
 5181TIP3   OH239737   5.654   5.450  20.984 -0.1839  0.1846  0.2494
 5181TIP3    H139738   5.592   5.425  20.915  0.3034 -0.4034  0.0094
 5181TIP3    H239739   5.639   5.386  21.054  1.2427 -1.0088 -0.4707
 5182TIP3   OH239740   0.908   6.257  20.151  0.4692 -0.2765  0.0745
 5182TIP3    H139741   0.842   6.309  20.197  1.0190 -0.5552  1.1912
 5182TIP3    H239742   0.955   6.321  20.096 -0.0159  0.0995  0.0892
 5183TIP3   OH239743   2.350   1.969  20.747 -0.8255  0.4197  0.2152
 5183TIP3    H139744   2.281   1.963  20.813  0.7280 -1.0746  1.8023
 5183TIP3    H239745   2.413   2.031  20.784 -0.4006  0.3062 -0.3164
 5184TIP3   OH239746   3.463   2.006  20.688  0.4977  0.0192 -0.9166
 5184TIP3    H139747   3.384   2.058  20.701  0.6210 -0.1851  0.9206
 5184TIP3    H239748   3.496   2.034  20.602 -1.2275  0.5213 -1.4674
 5185TIP3   OH239749   1.908   1.572  18.393 -0.1590 -0.3117  0.2406
 5185TIP3    H139750   1.914   1.635  18.466 -1.7819  1.1822 -0.8395
 5185TIP3    H239751   1.816   1.547  18.390 -0.1263 -0.3427 -1.2901
 5186TIP3   OH239752   6.104   4.572  18.917  0.2310  0.3349  0.4533
 5186TIP3    H139753   6.128   4.658  18.882  1.5838 -1.3645 -3.3757
 5186TIP3    H239754   6.033   4.542  18.861  1.5028 -1.9957 -0.0525
 5187TIP3   OH239755   4.483   3.870  20.941  0.1231  0.1537 -0.0968
 5187TIP3    H139756   4.389   3.860  20.960  0.1291 -0.2518 -0.2697
 5187TIP3    H239757   4.525   3.868  21.027  0.3257 -3.5094 -0.0944
 5188TIP3   OH239758   0.788   4.938  19.811  0.0602  0.1294 -0.6209
 5188TIP3    H139759   0.773   4.849  19.844 -0.1642  0.6231  0.6554
 5188TIP3    H239760   0.710   4.958  19.759 -0.8609  0.3247  0.7838
 5189TIP3   OH239761   6.190   1.725  18.698 -0.4160 -0.1372  0.2400
 5189TIP3    H139762   6.177   1.770  18.614  1.0834 -0.0749  0.0123
 5189TIP3    H239763   6.149   1.640  18.686  2.3737 -1.3813 -1.7390
 5190TIP3   OH239764   3.252   4.084  19.990  0.3619 -0.5032 -0.1023
 5190TIP3    H139765   3.166   4.123  20.006  0.7595  1.1538 -1.7153
 5190TIP3    H239766   3.291   4.077  20.077 -1.2464 -0.9629  0.6232
 5191TIP3   OH239767   0.725   4.263  18.177  0.0108 -0.3124 -0.2783
 5191TIP3    H139768   0.650   4.249  18.119 -0.8302  2.1448  0.0751
 5191TIP3    H239769   0.798   4.279  18.118 -1.3405  4.8281 -1.0256
 5192TIP3   OH239770   1.677   2.231  17.646  0.0280  0.0528 -0.1977
 5192TIP3    H139771   1.629   2.297  17.597 -0.2332 -0.4035 -0.5579
 5192TIP3    H239772   1.680   2.155  17.588 -1.6866 -1.0752  1.0878
 5193TIP3   OH239773   4.739   0.378  18.242  0.0897  0.2730 -0.5026
 5193TIP3    H139774   4.730   0.322  18.319  2.0687  1.5466  0.7716
 5193TIP3    H239775   4.734   0.318  18.168  1.3089 -1.5111  0.7513
 5194TIP3   OH239776   1.392   3.835  20.697  0.6014 -0.1510  0.1936
 5194TIP3    H139777   1.406   3.902  20.629 -0.2576 -0.8933 -0.7527
 5194TIP3    H239778   1.448   3.762  20.670 -1.0267 -1.1322 -0.7564
 5195TIP3   OH239779   4.523   6.262  20.974 -0.5537  0.4310  0.1049
 5195TIP3    H139780   4.542   6.258  20.881 -1.8197  1.7433 -0.2388
 5195TIP3    H239781   4.487   6.349  20.988  1.1000  0.8804  2.1292
 5196TIP3   OH239782   6.317   2.247  17.783  0.1655  0.2478  0.4259
 5196TIP3    H139783   6.333   2.154  17.767  1.5779  0.4524  0.5002
 5196TIP3    H239784   6.239   2.268  17.730 -0.0063 -0.9028  0.2070
 5197TIP3   OH239785   3.075   5.673  20.006  0.6344  0.7033 -0.0381
 5197TIP3    H139786   3.010   5.726  19.961  0.3689 -0.2061 -0.7622
 5197TIP3    H239787   3.034   5.652  20.091 -0.1598 -0.1101 -0.6038
 5198TIP3   OH239788   3.482   2.671  19.428  0.6257 -0.2733  0.3609
 5198TIP3    H139789   3.452   2.761  19.441  0.0798 -0.4909  0.6160
 5198TIP3    H239790   3.558   2.680  19.371  0.3417  0.3238  0.0633
 5199TIP3   OH239791   5.542   1.741  20.641  0.2075  0.3967 -0.2771
 5199TIP3    H139792   5.523   1.711  20.552 -0.3031 -1.3885  0.3907
 5199TIP3    H239793   5.465   1.792  20.667  1.0937  2.4629 -1.4338
 5200TIP3   OH239794   5.280   2.390  21.311 -0.3189 -0.9495 -0.4510
 5200TIP3    H139795   5.199   2.428  21.345  0.5564 -0.5066  1.2710
 5200TIP3    H239796   5.252   2.323  21.250 -1.9915 -1.0674  0.3994
 5201TIP3   OH239797   4.578   5.417  18.982 -0.3983 -0.2805  0.2520
 5201TIP3    H139798   4.509   5.401  19.046 -0.5691  1.2869  0.4916
 5201TIP3    H239799   4.533   5.454  18.906  0.2376  1.6094  0.7454
 5202TIP3   OH239800   0.181   3.082  18.459  0.6664  0.0523  0.4247
 5202TIP3    H139801   0.182   3.051  18.550 -2.4699  1.1935  0.9872
 5202TIP3    H239802   0.089   3.096  18.440  1.2882  0.4749 -2.7727
 5203TIP3   OH239803   3.207   4.449  20.529 -0.1884 -0.7498  0.4117
 5203TIP3    H139804   3.228   4.537  20.562 -0.2194 -0.9820  1.0691
 5203TIP3    H239805   3.128   4.461  20.478 -0.1978 -0.3912  0.5080
 5204TIP3   OH239806   4.656   6.468  19.204 -0.1620  0.1173  0.2463
 5204TIP3    H139807   4.712   6.542  19.226 -1.7561  2.0582 -1.7575
 5204TIP3    H239808   4.709   6.414  19.145 -0.1403  1.6612 -1.2231
 5205TIP3   OH239809   5.150   4.230  20.177 -0.1902  0.1391  0.1078
 5205TIP3    H139810   5.090   4.179  20.233  0.7766 -1.1307  0.0279
 5205TIP3    H239811   5.123   4.321  20.191 -1.3005 -0.2974  1.0624
 5206TIP3   OH239812   2.183   4.198  18.473  0.3347 -0.5052  0.2559
 5206TIP3    H139813   2.227   4.239  18.399  1.2055  0.9936  1.5430
 5206TIP3    H239814   2.143   4.271  18.521 -1.8100 -1.6294  0.2690
 5207TIP3   OH239815   3.203   2.414  20.765 -0.0710 -0.2304 -0.4285
 5207TIP3    H139816   3.210   2.345  20.832 -3.4647  0.0016  0.3741
 5207TIP3    H239817   3.198   2.496  20.816  2.1341  0.4884 -1.2835
 5208TIP3   OH239818   3.253   2.756  18.664 -0.4737 -0.0267 -0.3083
 5208TIP3    H139819   3.211   2.841  18.647  1.5455  1.5013  1.6583
 5208TIP3    H239820   3.180   2.696  18.677 -2.0092  1.6073 -0.8736
 5209TIP3   OH239821   4.779   6.519  18.466 -0.2222  0.4557 -0.1843
 5209TIP3    H139822   4.723   6.545  18.539  1.7982 -1.2805  2.1658
 5209TIP3    H239823   4.722   6.468  18.408 -1.3060 -0.6294  1.7370
 5210TIP3   OH239824   2.990   1.569  19.325  0.2777  0.8172 -0.1542
 5210TIP3    H139825   2.939   1.512  19.268  1.0435 -0.0003 -0.0370
 5210TIP3    H239826   3.013   1.644  19.269  0.0839  0.5538 -0.5878
 5211TIP3   OH239827   0.613   4.594  18.078 -0.2906 -0.4397  0.5596
 5211TIP3    H139828   0.693   4.545  18.093 -0.1467  0.4288  3.2020
 5211TIP3    H239829   0.636   4.657  18.010  0.8587 -1.0553  0.3499
 5212TIP3   OH239830   3.462   4.724  19.577 -0.4081 -0.1250 -0.1981
 5212TIP3    H139831   3.493   4.754  19.491  0.7442  2.5792  1.0397
 5212TIP3    H239832   3.499   4.636  19.586 -1.6587 -1.0572 -2.9470
 5213TIP3   OH239833   5.960   4.302  18.036  0.3437 -0.3037 -0.4735
 5213TIP3    H139834   6.050   4.277  18.055 -0.1016 -0.9005  0.9789
 5213TIP3    H239835   5.947   4.279  17.944  2.0534  0.9972 -1.0878
 5214TIP3   OH239836   3.121   1.951  20.847 -0.0887 -0.5315  0.1100
 5214TIP3    H139837   3.182   1.993  20.909  0.0650 -2.8853  1.6873
 5214TIP3    H239838   3.039   1.999  20.858  1.2759  2.6261 -1.9517
 5215TIP3   OH239839   6.578   3.450  17.323 -0.8678  0.2586 -0.9784
 5215TIP3    H139840   6.668   3.483  17.322 -0.9534  0.4946 -0.8541
 5215TIP3    H239841   6.585   3.363  17.362 -0.9997  1.1874  1.2471
 5216TIP3   OH239842   1.862   1.310  17.231  0.2225 -0.5529  0.1050
 5216TIP3    H139843   1.923   1.284  17.163 -0.0257 -0.7889 -0.0343
 5216TIP3    H239844   1.915   1.318  17.310  0.2912 -1.6547  0.1839
 5217TIP3   OH239845   2.290   4.743  18.393  0.1891  0.2273 -0.1135
 5217TIP3    H139846   2.310   4.660  18.435 -1.4524  0.2829  0.8455
 5217TIP3    H239847   2.312   4.810  18.458  1.9666  0.6165 -1.0559
 5218TIP3   OH239848   5.071   6.517  19.004 -0.0776  0.2219  0.3992
 5218TIP3    H139849   5.142   6.568  19.043 -0.1427  0.1778  0.5792
 5218TIP3    H239850   5.066   6.547  18.914 -0.2370  0.6627  0.5569
 5219TIP3   OH239851   4.762   3.859  18.481 -0.0073  0.3659  0.1617
 5219TIP3    H139852   4.842   3.822  18.444 -0.2303  0.2446 -0.2178
 5219TIP3    H239853   4.790   3.906  18.559  0.0183 -2.6247  2.1289
 5220TIP3   OH239854   3.941   3.482  19.189  0.0848 -0.2721 -0.0797
 5220TIP3    H139855   3.968   3.398  19.226 -0.3037 -0.2272  0.3078
 5220TIP3    H239856   3.908   3.532  19.264  0.7942  0.4206 -0.2103
 5221TIP3   OH239857   0.344   6.218  18.265  0.4571  0.2927 -0.0950
 5221TIP3    H139858   0.370   6.147  18.323 -0.0012 -0.3617 -0.6709
 5221TIP3    H239859   0.397   6.206  18.186 -0.8531 -0.4884 -0.8940
 5222TIP3   OH239860   1.957   2.914  20.808 -0.0297 -0.4676 -0.2830
 5222TIP3    H139861   2.015   2.855  20.760  1.8664 -0.1110  1.4639
 5222TIP3    H239862   1.954   2.993  20.755 -0.3899 -1.1320 -1.2807
 5223TIP3   OH239863   0.044   3.553  18.997  0.5965  0.2272 -0.6804
 5223TIP3    H139864   0.069   3.515  19.081  0.4397 -1.8352 -1.5055
 5223TIP3    H239865   0.112   3.617  18.979  0.5327  0.8599  1.0745
 5224TIP3   OH239866   6.599   6.211  18.594  0.0069 -0.1196  0.4142
 5224TIP3    H139867   6.601   6.306  18.605  1.0569 -0.1037  0.1380
 5224TIP3    H239868   6.609   6.198  18.499  0.2048 -0.5230  0.4896
 5225TIP3   OH239869   5.646   5.487  20.282  0.0535 -0.1025 -0.0229
 5225TIP3    H139870   5.664   5.393  20.283 -0.9976 -0.3262 -0.6367
 5225TIP3    H239871   5.669   5.517  20.370 -3.1042 -1.6387  1.4681
 5226TIP3   OH239872   2.103   1.305  19.418  0.7552  0.1468  0.4297
 5226TIP3    H139873   2.130   1.225  19.462 -0.3249 -0.3700  0.1972
 5226TIP3    H239874   2.120   1.289  19.325 -1.4906 -0.7541  0.0888
 5227TIP3   OH239875   3.054   4.284  20.910  0.2735 -0.1731  0.1887
 5227TIP3    H139876   3.137   4.241  20.928  0.6578  0.2849 -0.4708
 5227TIP3    H239877   2.995   4.253  20.980  1.1024 -0.1716  0.8988
 5228TIP3   OH239878   4.927   1.343  17.822 -0.4491  0.4890 -0.5958
 5228TIP3    H139879   4.937   1.429  17.782  0.9902  0.0562 -1.2512
 5228TIP3    H239880   5.009   1.329  17.869 -1.4368  0.2701  1.1658
 5229TIP3   OH239881   2.646   2.534  18.321  0.0052 -0.2409 -0.0418
 5229TIP3    H139882   2.738   2.529  18.347  0.3997  0.2767 -1.2531
 5229TIP3    H239883   2.630   2.452  18.273 -0.3563 -0.6135  0.6929
 5230TIP3   OH239884   2.984   3.776  17.410 -0.0865  0.2501  0.2564
 5230TIP3    H139885   2.950   3.705  17.464  1.1798  1.2964  2.5756
 5230TIP3    H239886   3.074   3.788  17.440  0.3913  1.4877 -1.5219
 5231TIP3   OH239887   1.728   6.068  18.009  0.3154 -0.0420 -0.0399
 5231TIP3    H139888   1.638   6.058  18.042  0.7427 -2.2969  0.6366
 5231TIP3    H239889   1.751   5.980  17.978  2.3378  0.4722 -0.0747
 5232TIP3   OH239890   4.494   2.322  17.959  0.0826 -0.0015 -0.1842
 5232TIP3    H139891   4.433   2.248  17.957 -0.2887  0.2868  0.2421
 5232TIP3    H239892   4.575   2.287  17.995  0.1940 -0.4051 -0.8180
 5233TIP3   OH239893   3.216   1.887  18.618  0.3254  0.5018  0.5398
 5233TIP3    H139894   3.258   1.972  18.608  0.8568  0.3588  1.4761
 5233TIP3    H239895   3.289   1.825  18.623 -0.0556 -0.1406 -1.0215
 5234TIP3   OH239896   2.731   0.041  20.046  0.5956 -0.4672  0.1577
 5234TIP3    H139897   2.679   0.117  20.068  1.2353 -0.2774  1.0534
 5234TIP3    H239898   2.667  -0.024  20.016  0.0505  0.4173 -0.6672
 5235TIP3   OH239899   0.872   0.295  19.020 -0.1612 -0.0527 -0.1676
 5235TIP3    H139900   0.938   0.251  18.966  0.8884  0.9011  0.3051
 5235TIP3    H239901   0.893   0.388  19.014 -1.1939  0.2329  0.3689
 5236TIP3   OH239902   0.005   6.574  21.144  0.2402  0.0990  0.0569
 5236TIP3    H139903  -0.049   6.499  21.118 -0.6420  0.3147  1.1970
 5236TIP3    H239904   0.092   6.537  21.157 -0.0372 -0.6047 -0.0335
 5237TIP3   OH239905   1.013   6.479  19.967 -0.3013  0.1292  0.1583
 5237TIP3    H139906   1.012   6.440  19.879 -0.7285 -0.6921  0.5162
 5237TIP3    H239907   0.981   6.569  19.953  0.8847  0.4477 -0.7019
 5238TIP3   OH239908   2.907   0.134  20.639  0.1507 -0.0158  0.0810
 5238TIP3    H139909   2.943   0.108  20.555  0.8446 -0.1825  0.4199
 5238TIP3    H239910   2.981   0.125  20.700 -0.6063 -0.9145  0.8964
 5239TIP3   OH239911   2.667   3.511  18.147 -0.2138 -0.0468  0.3456
 5239TIP3    H139912   2.632   3.551  18.067 -1.5498 -0.7191  0.5502
 5239TIP3    H239913   2.603   3.442  18.168  1.6204 -1.8110  0.4021
 5240TIP3   OH239914   3.051   3.052  18.027 -0.1366 -0.1419 -0.1346
 5240TIP3    H139915   3.036   2.961  18.000  1.3179 -0.8612  1.2297
 5240TIP3    H239916   3.033   3.051  18.121 -0.9148  1.1988 -0.2615
 5241TIP3   OH239917   3.582   3.310  19.090  0.4352  0.6905 -0.3023
 5241TIP3    H139918   3.646   3.240  19.098  0.8512  1.1952  1.2764
 5241TIP3    H239919   3.497   3.265  19.089  0.7222  0.1325 -0.0038
 5242TIP3   OH239920   1.662   1.504  19.483  0.2995  0.5046 -0.1098
 5242TIP3    H139921   1.592   1.513  19.418 -1.7129 -2.3658  1.4654
 5242TIP3    H239922   1.629   1.550  19.560  1.6488  1.8591 -0.2849
 5243TIP3   OH239923   0.380   1.657  18.771  0.6334 -0.4171 -0.4606
 5243TIP3    H139924   0.373   1.746  18.735 -0.2294  0.5415  1.8963
 5243TIP3    H239925   0.290   1.632  18.793  1.1554 -0.5810  1.7213
 5244TIP3   OH239926   0.241   4.111  18.951  0.0980 -0.0497 -0.6570
 5244TIP3    H139927   0.243   4.207  18.946 -0.0617 -0.0940 -1.9443
 5244TIP3    H239928   0.150   4.088  18.933 -0.0423 -0.4167  0.4790
 5245TIP3   OH239929   6.666   4.646  17.743 -0.4593 -0.2657 -0.8113
 5245TIP3    H139930   6.592   4.697  17.712 -0.4979  0.1231 -0.1074
 5245TIP3    H239931   6.736   4.710  17.755 -0.7781 -0.1831  0.9583
 5246TIP3   OH239932   3.407   1.334  19.278  0.3211  0.4213  0.4670
 5246TIP3    H139933   3.403   1.253  19.329 -1.5123  0.1366 -0.0481
 5246TIP3    H239934   3.415   1.305  19.187 -0.2222  0.8150  0.2907
 5247TIP3   OH239935   0.167   3.244  19.714  0.5483  0.6365 -0.1977
 5247TIP3    H139936   0.077   3.214  19.706  0.7446 -0.0694  0.1315
 5247TIP3    H239937   0.175   3.277  19.803  0.9876 -0.6540  0.2696
 5248TIP3   OH239938   3.197   3.935  20.422 -0.2462 -0.3853  0.3604
 5248TIP3    H139939   3.200   4.006  20.358  0.1277 -0.1655  0.6154
 5248TIP3    H239940   3.108   3.899  20.415 -0.2917 -0.1848 -0.0848
 5249TIP3   OH239941   2.500   1.513  20.616 -0.0884 -0.0934 -0.4463
 5249TIP3    H139942   2.517   1.584  20.678  0.6063  0.1211 -0.8692
 5249TIP3    H239943   2.406   1.497  20.622 -0.2507  0.8551 -0.3384
 5250TIP3   OH239944   1.918   5.858  18.973  0.2373 -0.2565  0.5058
 5250TIP3    H139945   1.853   5.920  19.006  0.1459 -0.5140  0.8121
 5250TIP3    H239946   1.875   5.773  18.975 -0.3139 -0.0794 -1.7885
 5251TIP3   OH239947   5.667   2.324  18.253  0.6342  0.1429 -0.5682
 5251TIP3    H139948   5.744   2.351  18.203  0.5376  0.8196 -0.3711
 5251TIP3    H239949   5.641   2.403  18.301 -0.0813 -0.1253 -0.5014
 5252TIP3   OH239950   0.087   0.174  18.973  0.2455  0.2340  0.4325
 5252TIP3    H139951   0.040   0.232  19.032 -0.9078  1.9183 -1.9732
 5252TIP3    H239952   0.175   0.212  18.967  0.9744 -1.0316  2.4243
 5253TIP3   OH239953   6.416   5.675  21.110  0.9889  0.0092 -0.1143
 5253TIP3    H139954   6.440   5.632  21.192 -1.4129 -2.9550 -0.8079
 5253TIP3    H239955   6.429   5.609  21.043 -2.8691  0.1987 -1.2793
 5254TIP3   OH239956   1.855   4.679  18.660 -0.0178 -0.1502  0.3430
 5254TIP3    H139957   1.787   4.627  18.617 -0.5081 -0.3386  1.3076
 5254TIP3    H239958   1.893   4.732  18.590 -3.0968  2.1267  0.1943
 5255TIP3   OH239959   2.479   5.762  19.455 -0.2133  0.3026 -0.4575
 5255TIP3    H139960   2.539   5.721  19.392  0.3211 -0.9603  0.8126
 5255TIP3    H239961   2.458   5.692  19.516 -3.0282  0.6982 -0.8415
 5256TIP3   OH239962   0.042   1.970  20.357  0.1327  0.0252 -0.5890
 5256TIP3    H139963   0.104   2.002  20.423 -0.6989  1.2428 -0.3913
 5256TIP3    H239964   0.047   1.874  20.366  1.9004  0.0862 -0.5078
 5257TIP3   OH239965   1.349   3.042  20.828 -0.3635  0.2442  0.1043
 5257TIP3    H139966   1.324   3.101  20.900  1.1080  1.6533 -0.4844
 5257TIP3    H239967   1.422   3.087  20.785 -0.0301 -1.4403 -1.1601
 5258TIP3   OH239968   2.417   2.720  17.562 -0.0022  1.0559  0.6651
 5258TIP3    H139969   2.327   2.725  17.593  0.2994 -2.9930  2.8922
 5258TIP3    H239970   2.414   2.664  17.485  0.6600 -0.5235  1.7241
 5259TIP3   OH239971   2.231   1.987  19.849 -0.2708  0.6294 -0.1582
 5259TIP3    H139972   2.303   2.010  19.791  1.7194 -0.8721  1.5404
 5259TIP3    H239973   2.243   2.044  19.925 -1.4128  0.9742 -0.2304
 5260TIP3   OH239974   5.081   1.043  19.170  0.4638  0.5641 -0.2198
 5260TIP3    H139975   5.019   1.035  19.243  0.5451  1.6380 -0.0034
 5260TIP3    H239976   5.090   1.138  19.158 -0.1916  0.4113 -2.1938
 5261TIP3   OH239977   6.080   0.903  19.514 -0.0865 -0.0689  0.2252
 5261TIP3    H139978   6.066   0.975  19.452 -0.0060 -0.9111 -0.7970
 5261TIP3    H239979   6.167   0.920  19.551  0.3615 -0.1838 -0.7576
 5262TIP3   OH239980   1.631   5.395  19.743  0.0363 -0.2424 -0.1472
 5262TIP3    H139981   1.547   5.439  19.756  0.1830 -0.5352  2.2254
 5262TIP3    H239982   1.607   5.307  19.714 -0.5174 -0.5230  1.1181
 5263TIP3   OH239983   3.147   6.383  19.709  0.4170 -0.2945  0.3621
 5263TIP3    H139984   3.124   6.450  19.645  2.5647  0.7252  0.5614
 5263TIP3    H239985   3.235   6.353  19.683  1.8224  0.8664  3.2875
 5264TIP3   OH239986   1.716   6.135  20.607  0.5786 -0.1331  0.4125
 5264TIP3    H139987   1.713   6.220  20.652  2.2293  0.6182 -0.7594
 5264TIP3    H239988   1.809   6.113  20.606  0.1773 -1.9776  0.6668
 5265TIP3   OH239989   2.753   0.921  19.820 -0.4308  0.1036 -0.1128
 5265TIP3    H139990   2.719   0.932  19.731 -0.9687  0.6670  0.1558
 5265TIP3    H239991   2.781   1.009  19.845 -1.5669  0.2262  0.7905
 5266TIP3   OH239992   4.053   3.335  18.821 -0.0017 -0.0903 -0.6684
 5266TIP3    H139993   4.090   3.250  18.846 -1.2437 -0.5450 -0.2799
 5266TIP3    H239994   4.025   3.374  18.903  2.7005  1.8126 -0.5390
 5267TIP3   OH239995   4.025   5.627  20.848  0.1474 -0.3410 -0.5653
 5267TIP3    H139996   4.072   5.658  20.926 -0.2946  2.1419 -1.1878
 5267TIP3    H239997   4.089   5.636  20.777 -0.1702 -0.3422 -0.8532
 5268TIP3   OH239998   4.897   2.129  20.136  0.0183 -0.1260  0.2963
 5268TIP3    H139999   4.908   2.034  20.147  2.6118  0.0619 -0.0520
 5268TIP3    H240000   4.986   2.164  20.141 -0.3462  1.8709 -3.4567
 5269TIP3   OH240001   1.527   0.068  20.444 -0.5870 -0.1355 -0.2859
 5269TIP3    H140002   1.485   0.018  20.514 -0.5761  0.8283  0.4362
 5269TIP3    H240003   1.459   0.074  20.376 -2.6113  3.2744  1.7427
 5270TIP3   OH240004   0.874   1.813  19.503  0.0386  0.7041 -0.2140
 5270TIP3    H140005   0.851   1.801  19.595  0.1603 -2.4921 -0.4830
 5270TIP3    H240006   0.796   1.852  19.463  0.0563  2.3077  1.2121
 5271TIP3   OH240007   2.903   3.769  18.841  0.0501 -0.1231  0.4040
 5271TIP3    H140008   2.824   3.717  18.852 -1.6524  1.3014 -3.5364
 5271TIP3    H240009   2.965   3.709  18.799 -1.3613  0.3854 -2.6569
 5272TIP3   OH240010   1.562   4.793  17.883 -0.7698 -0.0299 -0.1002
 5272TIP3    H140011   1.631   4.859  17.890 -1.1966  0.3102  0.9811
 5272TIP3    H240012   1.480   4.842  17.893 -1.0787 -0.7626  1.2076
 5273TIP3   OH240013   0.154   2.279  20.709  0.1373 -0.6028  0.0251
 5273TIP3    H140014   0.080   2.339  20.696 -0.4589 -1.8983 -4.6638
 5273TIP3    H240015   0.231   2.336  20.710 -0.7013  0.6193  2.9300
 5274TIP3   OH240016   2.084   2.980  18.299  0.2419  0.7583  0.1875
 5274TIP3    H140017   2.081   3.062  18.347 -0.4602  1.6722 -1.3307
 5274TIP3    H240018   2.083   3.006  18.207 -0.1011 -0.9582 -0.3385
 5275TIP3   OH240019   3.722   2.215  19.515  0.0208  0.1251  0.1018
 5275TIP3    H140020   3.797   2.271  19.532 -0.8717  0.8018  2.0874
 5275TIP3    H240021   3.663   2.269  19.463 -0.1091  0.4484  0.5781
 5276TIP3   OH240022   1.543   2.451  17.565 -0.0967  0.2570 -0.1190
 5276TIP3    H140023   1.507   2.530  17.605 -2.6667 -1.1046  0.5197
 5276TIP3    H240024   1.521   2.458  17.472 -2.0479 -0.4881  0.2419
 5277TIP3   OH240025   6.016   5.286  20.703  0.1494 -0.1373 -0.3961
 5277TIP3    H140026   6.076   5.226  20.658  0.0573 -2.5452  2.3769
 5277TIP3    H240027   5.929   5.259  20.674  0.1351 -1.0450  0.4522
 5278TIP3   OH240028   1.387   4.460  19.516 -0.0598  0.2284 -0.0187
 5278TIP3    H140029   1.443   4.425  19.585 -1.4748  1.5957  1.9153
 5278TIP3    H240030   1.436   4.533  19.480 -0.1078  0.7140  0.8861
 5279TIP3   OH240031   6.082   2.303  20.832  0.1724 -0.0650 -0.5325
 5279TIP3    H140032   6.126   2.387  20.824 -0.0957  0.1477  0.1958
 5279TIP3    H240033   5.998   2.323  20.874  0.0288 -0.6705 -0.5159
 5280TIP3   OH240034   0.340   4.921  20.046  0.6640  0.4819 -0.7184
 5280TIP3    H140035   0.428   4.958  20.059  0.6917  0.4055 -0.6863
 5280TIP3    H240036   0.306   4.967  19.969  0.1526  1.5812  0.1398
 5281TIP3   OH240037   2.565   5.004  21.136 -0.1205  0.2021 -0.0386
 5281TIP3    H140038   2.527   4.929  21.180 -0.2111  1.1006  1.4966
 5281TIP3    H240039   2.660   4.991  21.145 -0.1355  0.2367  0.1830
 5282TIP3   OH240040   6.361   3.290  19.979 -0.1318  0.1764  0.1642
 5282TIP3    H140041   6.417   3.363  19.954  0.4045 -0.5548 -0.8078
 5282TIP3    H240042   6.371   3.284  20.074 -0.4590  1.5798  0.3084
 5283TIP3   OH240043   0.565   4.264  19.105 -0.1344  0.1441  0.0451
 5283TIP3    H140044   0.476   4.299  19.107  0.3507  1.4990 -0.9658
 5283TIP3    H240045   0.618   4.335  19.068  1.3255 -0.7339  0.3852
 5284TIP3   OH240046   2.179   3.918  18.839 -0.0138  0.4705 -0.2759
 5284TIP3    H140047   2.198   4.010  18.856 -0.9255  0.6084  0.0699
 5284TIP3    H240048   2.083   3.915  18.831 -0.0398 -0.5344  0.2571
 5285TIP3   OH240049   6.085   6.641  20.574  0.3695  0.6170  0.3767
 5285TIP3    H140050   6.065   6.628  20.667  2.9234 -0.9956  0.7961
 5285TIP3    H240051   6.080   6.554  20.535  0.4315  1.0998 -0.7678
 5286TIP3   OH240052   0.957   1.574  19.662  0.9012  0.1133 -0.3254
 5286TIP3    H140053   0.916   1.502  19.711  0.0315  1.2016  0.6266
 5286TIP3    H240054   0.905   1.580  19.582  1.3341 -0.6690 -0.6745
 5287TIP3   OH240055   1.313   2.797  20.424 -0.2578 -0.6426 -0.0874
 5287TIP3    H140056   1.289   2.881  20.463 -1.6451 -1.0890  0.0535
 5287TIP3    H240057   1.406   2.788  20.443 -0.1419  0.7431  0.1121
 5288TIP3   OH240058   0.348   6.468  20.103 -0.1320  0.0028 -0.1655
 5288TIP3    H140059   0.397   6.389  20.082  1.1534  1.0330 -1.1868
 5288TIP3    H240060   0.393   6.504  20.179  0.5440  0.7954 -0.9262
 5289TIP3   OH240061   1.364   5.949  19.930  0.2379 -0.0655 -0.0431
 5289TIP3    H140062   1.335   5.863  19.901 -1.8018 -0.4612  2.6971
 5289TIP3    H240063   1.437   5.932  19.989 -1.3075 -0.1864  1.9283
 5290TIP3   OH240064   2.829   0.223  19.253 -0.0303  0.5447 -0.2752
 5290TIP3    H140065   2.827   0.139  19.206  0.8840  1.2952 -1.7266
 5290TIP3    H240066   2.922   0.238  19.270 -0.3061  0.5256  1.3996
 5291TIP3   OH240067   2.448   3.282  18.202  0.6353 -0.5102  0.1970
 5291TIP3    H140068   2.416   3.307  18.115  2.7439  1.5256 -0.1038
 5291TIP3    H240069   2.418   3.354  18.259  1.9690 -0.1604  0.4836
 5292TIP3   OH240070   0.801   1.783  21.215  0.0707  0.0363  0.6829
 5292TIP3    H140071   0.866   1.741  21.271  0.7568  0.8931  0.5466
 5292TIP3    H240072   0.823   1.876  21.217 -0.9885  0.3077  0.4131
 5293TIP3   OH240073   5.722   5.233  20.273 -0.0410 -0.0506 -0.0075
 5293TIP3    H140074   5.769   5.220  20.191 -0.7230 -0.2067 -0.3781
 5293TIP3    H240075   5.721   5.147  20.314 -1.3999 -0.4214 -0.7649
 5294TIP3   OH240076   1.626   4.622  18.077  0.1184  0.3941 -0.1074
 5294TIP3    H140077   1.549   4.572  18.104  0.0362  0.6148  0.0733
 5294TIP3    H240078   1.597   4.671  18.001  0.3095 -0.1220 -0.5192
 5295TIP3   OH240079   3.198   5.867  21.289  0.5298  0.2112  0.1375
 5295TIP3    H140080   3.131   5.863  21.357  0.0019 -1.4603 -0.4336
 5295TIP3    H240081   3.205   5.777  21.256  0.9541  0.9033 -1.8288
 5296TIP3   OH240082   0.345   5.820  20.170  0.5584  0.1938 -0.2058
 5296TIP3    H140083   0.411   5.750  20.170  0.6835  0.3007 -1.3817
 5296TIP3    H240084   0.357   5.863  20.255 -0.2208 -1.8424  0.9930
 5297TIP3   OH240085   2.021   3.380  21.256 -0.2239 -0.0013  0.0630
 5297TIP3    H140086   1.940   3.370  21.306 -0.0746 -1.0389  0.1292
 5297TIP3    H240087   2.079   3.430  21.314 -0.2623 -0.6635  0.6922
 5298TIP3   OH240088   0.693   5.718  19.485 -0.3361  0.3132  0.1633
 5298TIP3    H140089   0.742   5.636  19.481  0.1350  0.6365 -1.1280
 5298TIP3    H240090   0.605   5.695  19.453 -0.6719  0.0061  1.2621
 5299TIP3   OH240091   3.936   2.516  18.334  0.1276  0.4524 -0.9648
 5299TIP3    H140092   3.930   2.495  18.241  0.5386  3.5309 -1.7980
 5299TIP3    H240093   3.855   2.564  18.353 -0.5043 -1.1490  0.6129
 5300TIP3   OH240094   3.543   1.699  19.663 -0.5144 -0.6125 -0.0739
 5300TIP3    H140095   3.514   1.696  19.754  0.1866 -0.2291  0.1670
 5300TIP3    H240096   3.542   1.792  19.640 -1.4146 -0.7713 -0.7001
 5301TIP3   OH240097   6.299   4.825  20.608  0.1709 -0.0703  0.3650
 5301TIP3    H140098   6.345   4.818  20.692 -0.9790 -1.6188  0.9168
 5301TIP3    H240099   6.338   4.756  20.554 -0.4670 -0.4037  0.3258
 5302TIP3   OH240100   4.376   3.110  19.387  0.1609 -0.3188 -0.0749
 5302TIP3    H140101   4.326   3.113  19.306  0.8383  0.1904 -0.4765
 5302TIP3    H240102   4.466   3.130  19.362  0.0482  2.0766  1.0522
 5303TIP3   OH240103   6.599   3.938  19.725  0.0712 -0.2583  0.0342
 5303TIP3    H140104   6.670   3.927  19.662 -2.1681  1.8239 -3.1415
 5303TIP3    H240105   6.638   3.911  19.809  3.2852 -3.1346 -2.0806
 5304TIP3   OH240106   0.068   3.948  19.955  0.6082 -0.3696 -0.4126
 5304TIP3    H140107   0.079   4.031  20.001  1.1626 -1.3197  1.2530
 5304TIP3    H240108   0.120   3.957  19.876  1.4233  0.5343  0.2066
 5305TIP3   OH240109   4.319   2.296  18.937 -0.2689  0.3036 -0.3874
 5305TIP3    H140110   4.311   2.212  18.892  0.7731  1.7871 -3.7098
 5305TIP3    H240111   4.258   2.354  18.890  0.7175  1.9316  0.2466
 5306TIP3   OH240112   2.045   1.513  19.913 -0.1887  0.8161  0.1861
 5306TIP3    H140113   2.068   1.503  19.820  1.4234 -0.7331  0.7017
 5306TIP3    H240114   2.051   1.425  19.949  1.1372  1.6291  2.1706
 5307TIP3   OH240115   5.093   0.678  18.914  0.8526  0.2196  0.3333
 5307TIP3    H140116   5.119   0.587  18.923 -0.0328  0.0762  1.7039
 5307TIP3    H240117   5.116   0.718  18.997  1.4297  1.3245 -0.3260
 5308TIP3   OH240118   4.054   3.687  18.790 -0.4207 -0.1002  0.1498
 5308TIP3    H140119   3.986   3.639  18.838 -1.7792  0.4749 -1.1299
 5308TIP3    H240120   4.022   3.777  18.787 -0.2830 -0.0850 -1.6424
 5309TIP3   OH240121   2.239   5.097  20.169 -0.2093  0.4554 -0.3428
 5309TIP3    H140122   2.191   5.174  20.199  0.5341  1.7880 -2.3943
 5309TIP3    H240123   2.331   5.125  20.167  0.1805 -0.7623 -0.3353
 5310TIP3   OH240124   1.610   5.352  19.094  0.2745 -0.2293  0.6914
 5310TIP3    H140125   1.614   5.444  19.120  0.8099  0.0684 -0.3881
 5310TIP3    H240126   1.680   5.310  19.143  1.1721  0.2938 -0.0997
 5311TIP3   OH240127   0.217   3.376  20.542  0.2162 -0.2519  0.0245
 5311TIP3    H140128   0.184   3.428  20.616 -0.1081 -1.0522  0.4656
 5311TIP3    H240129   0.304   3.349  20.569  0.5363  0.3690 -0.3692
 5312TIP3   OH240130   6.119   4.351  19.682 -0.3278  0.2493  0.1984
 5312TIP3    H140131   6.204   4.368  19.642  0.0005  1.7771  1.4815
 5312TIP3    H240132   6.129   4.376  19.773 -1.7133 -1.0535  0.7579
 5313TIP3   OH240133   1.233   5.713  19.830  0.1718  0.4177 -0.1085
 5313TIP3    H140134   1.245   5.654  19.904 -0.1658  1.4740  0.8221
 5313TIP3    H240135   1.140   5.736  19.833  0.3701  1.2839 -0.2018
 5314TIP3   OH240136   5.687   3.411  18.686 -0.5650 -0.4125  0.2572
 5314TIP3    H140137   5.667   3.318  18.681  1.1153 -0.7928  0.2920
 5314TIP3    H240138   5.667   3.435  18.776  1.0307 -1.2609  0.8753
 5315TIP3   OH240139   2.770   5.077  19.784 -0.2368 -0.8224  0.4373
 5315TIP3    H140140   2.813   5.055  19.701  0.4013 -0.0188  0.5425
 5315TIP3    H240141   2.683   5.107  19.758  0.1393 -0.0708  0.0011
 5316TIP3   OH240142   3.599   2.224  19.844  0.3900  0.1357  0.2811
 5316TIP3    H140143   3.596   2.300  19.785  1.2412 -0.4565 -0.5547
 5316TIP3    H240144   3.669   2.169  19.808  2.8352  0.9659  3.3238
 5317TIP3   OH240145   5.797   3.486  20.672  0.5727  0.1450 -0.2147
 5317TIP3    H140146   5.768   3.450  20.589 -1.3878 -0.4278  0.6625
 5317TIP3    H240147   5.879   3.440  20.691 -1.2636 -3.2078  0.3491
 5318TIP3   OH240148   5.733   2.604  21.082  0.0950  0.5901 -0.5222
 5318TIP3    H140149   5.672   2.590  21.154 -0.0641  1.5954 -0.4531
 5318TIP3    H240150   5.708   2.688  21.045  0.4405  0.2808 -1.4989
 5319TIP3   OH240151   6.272   0.139  19.438 -0.0279 -0.6092  0.0514
 5319TIP3    H140152   6.256   0.064  19.494 -1.7767 -0.4179 -0.1610
 5319TIP3    H240153   6.294   0.210  19.499 -2.5371 -0.2333  0.6239
 5320TIP3   OH240154   3.907   5.633  20.347 -0.0674  0.4744  0.5631
 5320TIP3    H140155   3.985   5.601  20.393  0.4735 -0.5892 -1.0448
 5320TIP3    H240156   3.937   5.654  20.259 -1.8491 -1.3228 -0.5432
 5321TIP3   OH240157   4.882   6.254  19.515 -0.0082 -0.3003  0.1439
 5321TIP3    H140158   4.956   6.218  19.565 -0.3389 -3.0964 -1.1760
 5321TIP3    H240159   4.809   6.250  19.576  0.0803 -1.5003  0.2017
 5322TIP3   OH240160   2.735   2.792  20.259 -0.2695 -0.0950  0.2760
 5322TIP3    H140161   2.710   2.884  20.270 -0.5555 -0.1744  0.2960
 5322TIP3    H240162   2.772   2.767  20.343  0.5206  0.2165  0.0368
 5323TIP3   OH240163   6.566   0.745  20.171  0.1031 -0.1673  0.2557
 5323TIP3    H140164   6.483   0.774  20.209 -0.3910 -0.7849 -0.3269
 5323TIP3    H240165   6.573   0.653  20.196 -1.2954 -1.2360 -2.8688
 5324TIP3   OH240166   5.628   4.295  18.474 -0.1125 -0.7544 -0.0960
 5324TIP3    H140167   5.685   4.368  18.452  1.9074 -1.9536  0.9082
 5324TIP3    H240168   5.568   4.331  18.541  0.2197  0.2156 -0.3099
 5325TIP3   OH240169   4.538   0.110  18.953 -0.7774 -0.3470 -0.0753
 5325TIP3    H140170   4.506   0.049  19.019  0.7661 -2.6350 -1.3087
 5325TIP3    H240171   4.623   0.138  18.986 -1.2994  0.8800  0.2833
 5326TIP3   OH240172   3.267   2.755  20.180  0.8002  0.5142  0.2449
 5326TIP3    H140173   3.173   2.762  20.162  1.0850  0.5861 -1.3335
 5326TIP3    H240174   3.304   2.837  20.149  1.5382  0.0132 -0.2175
 5327TIP3   OH240175   1.268   2.785  19.367  0.1460  0.1367 -0.2665
 5327TIP3    H140176   1.257   2.712  19.428 -0.3084 -0.0254 -0.5368
 5327TIP3    H240177   1.317   2.850  19.416 -0.7699  0.2761  0.4893
 5328TIP3   OH240178   2.483   0.996  18.988  0.2056 -0.0863  0.0897
 5328TIP3    H140179   2.567   1.038  18.968 -0.2444  0.9034  0.2080
 5328TIP3    H240180   2.467   0.938  18.914  0.5294  0.4492 -0.4088
 5329TIP3   OH240181   4.954   4.696  19.263  0.1399  0.2961 -0.0123
 5329TIP3    H140182   4.972   4.788  19.241  3.4591 -0.2675 -0.0625
 5329TIP3    H240183   4.928   4.699  19.355 -3.1300  1.5154 -0.8239
 5330TIP3   OH240184   0.207   0.052  18.540 -0.0943 -0.3547 -0.0162
 5330TIP3    H140185   0.142   0.080  18.605  0.3883 -0.0093  0.3335
 5330TIP3    H240186   0.263   0.129  18.529 -1.0499  0.1095 -1.9867
 5331TIP3   OH240187   1.294   0.340  19.249 -0.0569 -1.1654  0.6968
 5331TIP3    H140188   1.229   0.409  19.262 -0.1677 -1.5681  2.5332
 5331TIP3    H240189   1.267   0.297  19.168 -0.9575 -0.1285  0.4222
 5332TIP3   OH240190   0.120   4.818  18.740 -0.0450  0.4831  0.3586
 5332TIP3    H140191   0.041   4.869  18.761  0.2772  1.4057 -0.6214
 5332TIP3    H240192   0.182   4.882  18.707  1.5510 -0.0607  2.1699
 5333TIP3   OH240193   2.855   3.932  18.337 -0.6090  0.4411 -0.5124
 5333TIP3    H140194   2.903   3.987  18.276 -1.7403  0.3152 -1.5658
 5333TIP3    H240195   2.771   3.916  18.294 -1.1871 -0.2189  0.7855
 5334TIP3   OH240196   2.445   3.650  19.346 -0.1495  0.1057  0.0705
 5334TIP3    H140197   2.427   3.652  19.440  0.3395 -0.1943  0.1723
 5334TIP3    H240198   2.398   3.726  19.311  0.3007  0.6661  0.6619
 5335TIP3   OH240199   3.668   2.131  20.865  0.2605 -0.4605  0.0715
 5335TIP3    H140200   3.607   2.067  20.902 -1.0785 -0.1422 -1.4754
 5335TIP3    H240201   3.633   2.216  20.891  1.3797 -0.2887  1.1199
 5336TIP3   OH240202   2.148   1.821  17.918 -0.2394 -0.2858  0.1261
 5336TIP3    H140203   2.101   1.844  17.838 -0.1368  0.5311  0.2919
 5336TIP3    H240204   2.221   1.767  17.888  0.2481  0.6588 -0.4303
 5337TIP3   OH240205   6.609   1.802  19.786 -0.5073 -0.1955  0.0062
 5337TIP3    H140206   6.575   1.880  19.831 -1.6714 -0.0885 -1.0293
 5337TIP3    H240207   6.702   1.801  19.809 -0.6433  1.0228  0.7203
 5338TIP3   OH240208   5.667   3.965  21.154 -0.1674 -0.2772 -0.3900
 5338TIP3    H140209   5.696   3.994  21.241 -1.7749  0.9914 -0.2308
 5338TIP3    H240210   5.657   3.870  21.163  0.7717 -0.3139  0.4656
 5339TIP3   OH240211   0.531   2.765  19.989  0.2219  0.0025  0.3665
 5339TIP3    H140212   0.548   2.768  19.895 -1.5663 -0.9462 -0.0200
 5339TIP3    H240213   0.607   2.720  20.025 -0.3475 -2.2139 -1.0165
 5340TIP3   OH240214   3.353   2.087  19.778  0.3485 -0.1534  0.0420
 5340TIP3    H140215   3.296   2.142  19.831 -0.7891 -2.5488  1.4511
 5340TIP3    H240216   3.441   2.124  19.792 -0.4374  1.8451  0.1262
 5341TIP3   OH240217   1.428   1.543  21.412  0.3123  0.0807  0.7656
 5341TIP3    H140218   1.451   1.470  21.355  1.7881  0.6842  0.5493
 5341TIP3    H240219   1.482   1.531  21.490  1.7343  1.7269  0.1008
 5342TIP3   OH240220   0.639   4.029  18.987 -0.3578  0.1616 -0.0935
 5342TIP3    H140221   0.620   3.963  19.054 -1.5937 -0.7478 -1.3071
 5342TIP3    H240222   0.618   4.112  19.030 -0.6907 -0.3606  0.7951
 5343TIP3   OH240223   0.148   5.662  19.310 -0.5423 -0.1864 -0.1852
 5343TIP3    H140224   0.101   5.627  19.234  0.8449  0.7559 -1.5297
 5343TIP3    H240225   0.232   5.616  19.309 -0.8369 -0.8103  1.3343
 5344TIP3   OH240226   5.394   1.621  17.849 -0.5884  0.2959 -0.0680
 5344TIP3    H140227   5.370   1.624  17.757  0.8629  1.7869 -0.4570
 5344TIP3    H240228   5.311   1.614  17.896 -1.4356  0.7711 -1.4549
 5345TIP3   OH240229   3.300   5.424  19.665  0.5985 -0.3409  0.2204
 5345TIP3    H140230   3.316   5.434  19.759  0.3971  1.0515  0.1309
 5345TIP3    H240231   3.373   5.471  19.624 -0.1811  0.4513 -0.2845
 5346TIP3   OH240232   0.128   5.736  20.477 -0.2835 -0.1881 -0.0250
 5346TIP3    H140233   0.085   5.790  20.543  0.1804  0.6537 -0.4008
 5346TIP3    H240234   0.088   5.649  20.487 -0.6730  0.0914  0.9213
 5347TIP3   OH240235   2.979   3.839  20.960  0.1280  0.6055 -0.0464
 5347TIP3    H140236   2.923   3.761  20.960  2.0339 -0.8684 -1.2035
 5347TIP3    H240237   2.955   3.886  20.880 -0.3384  0.6919  0.1401
 5348TIP3   OH240238   1.406   1.705  19.693 -0.0899 -0.5535  0.2088
 5348TIP3    H140239   1.409   1.752  19.610  1.0159 -0.1665  0.4568
 5348TIP3    H240240   1.321   1.728  19.731 -0.0933  0.2274 -0.2593
 5349TIP3   OH240241   6.327   4.200  21.348  0.1169 -0.1856  0.4789
 5349TIP3    H140242   6.299   4.173  21.435 -1.3410  0.0535  0.1064
 5349TIP3    H240243   6.257   4.172  21.290  0.9283 -0.0728 -0.5936
 5350TIP3   OH240244   3.640   4.967  19.642  0.4304  0.6324 -0.0556
 5350TIP3    H140245   3.705   4.975  19.711  1.2390  0.8986 -0.8197
 5350TIP3    H240246   3.579   4.901  19.673  1.7487 -0.5362  0.1676
 5351TIP3   OH240247   4.156   4.843  20.380  0.0187  0.0734  0.0005
 5351TIP3    H140248   4.125   4.930  20.405 -0.6326 -0.4797  1.2226
 5351TIP3    H240249   4.128   4.786  20.452 -2.0592 -1.6537 -2.0313
 5352TIP3   OH240250   4.495   2.003  20.421 -0.0337  0.7206 -0.1040
 5352TIP3    H140251   4.426   1.966  20.475 -0.7148 -0.0896 -1.4612
 5352TIP3    H240252   4.576   1.984  20.469 -0.4625 -1.5383 -0.1594
 5353TIP3   OH240253   2.779   5.225  21.012  0.1398  0.0040  0.7053
 5353TIP3    H140254   2.743   5.313  21.005 -1.1281 -0.5978 -1.1858
 5353TIP3    H240255   2.864   5.230  20.969  0.1011  0.3297  0.6655
 5354TIP3   OH240256   4.062   1.399  19.038 -0.5485  0.1056  0.3100
 5354TIP3    H140257   4.033   1.420  18.949  0.2741 -2.3097 -0.6049
 5354TIP3    H240258   4.073   1.304  19.037  0.9076  0.2012  2.5873
 5355TIP3   OH240259   2.813   3.613  20.914 -0.2205 -0.5989 -0.6035
 5355TIP3    H140260   2.779   3.630  20.826  0.4553 -1.7155 -1.1069
 5355TIP3    H240261   2.735   3.598  20.967 -0.5979 -2.1515 -1.5264
 5356TIP3   OH240262   6.176   5.752  19.550 -0.3448 -0.2926 -0.5103
 5356TIP3    H140263   6.119   5.826  19.572  0.0130  0.2286 -1.2891
 5356TIP3    H240264   6.265   5.784  19.569 -0.0809 -0.0729 -1.9324
 5357TIP3   OH240265   0.208   2.932  21.034 -0.6167 -0.1109  0.1394
 5357TIP3    H140266   0.177   2.949  21.123  0.2063 -1.1658  0.6642
 5357TIP3    H240267   0.193   3.013  20.987 -1.0351  0.4850  1.2577
 5358TIP3   OH240268   2.457   2.303  20.874 -0.1475  0.0361  0.4044
 5358TIP3    H140269   2.504   2.220  20.860  1.0664  0.5066  1.4760
 5358TIP3    H240270   2.371   2.276  20.905 -0.3010 -0.8394 -0.6965
 5359TIP3   OH240271   1.913   1.471  20.677 -0.5251  0.2105  0.1767
 5359TIP3    H140272   2.005   1.470  20.653 -0.7717 -0.4873 -0.8055
 5359TIP3    H240273   1.910   1.523  20.758  0.9703 -1.4411  1.3580
 5360TIP3   OH240274   2.137   5.457  18.910 -0.0291  0.1917 -0.4103
 5360TIP3    H140275   2.072   5.458  18.839 -1.8295 -0.2241  1.1332
 5360TIP3    H240276   2.212   5.410  18.873 -0.9686 -0.1645 -1.9799
 5361TIP3   OH240277   4.338   0.778  18.673 -0.0907 -0.2364 -0.2036
 5361TIP3    H140278   4.265   0.825  18.714  0.6725  0.4998  0.3232
 5361TIP3    H240279   4.402   0.846  18.653  1.2079 -1.1011  0.9250
 5362TIP3   OH240280   0.094   3.893  18.626 -0.1409 -0.4154 -0.4442
 5362TIP3    H140281   0.034   3.870  18.555  1.5670 -0.7796 -1.8547
 5362TIP3    H240282   0.075   3.985  18.645 -0.3088 -0.1690 -1.7226
 5363TIP3   OH240283   3.326   6.276  18.370 -0.1337 -0.0752 -0.1773
 5363TIP3    H140284   3.375   6.193  18.370  0.3637  0.2115  0.1157
 5363TIP3    H240285   3.258   6.262  18.436  1.7687  0.7596  2.1175
 5364TIP3   OH240286   4.952   1.026  18.668  0.3221 -0.5049  0.8318
 5364TIP3    H140287   4.868   1.064  18.644  0.3193 -0.2114  1.2919
 5364TIP3    H240288   4.940   0.997  18.759  0.5158 -1.0444  0.6863
 5365TIP3   OH240289   1.243   4.051  18.507 -0.0389  0.0592 -0.4066
 5365TIP3    H140290   1.319   3.996  18.490  0.1883  0.1421  0.2929
 5365TIP3    H240291   1.276   4.120  18.565 -0.1443  1.3538 -1.8214
 5366TIP3   OH240292   6.057   2.041  19.898  0.3118 -0.6466 -0.0459
 5366TIP3    H140293   6.026   2.097  19.969  2.2082 -0.0993  0.4126
 5366TIP3    H240294   6.111   1.975  19.942  2.4238  0.3383 -0.9847
 5367TIP3   OH240295   1.287   5.629  18.849 -0.0388  0.0451  0.0050
 5367TIP3    H140296   1.369   5.592  18.814  0.5271  0.4477  0.8653
 5367TIP3    H240297   1.266   5.574  18.924 -1.5614 -1.1710 -1.2318
 5368TIP3   OH240298   0.659   0.603  18.357  0.5178  0.5252  0.0304
 5368TIP3    H140299   0.611   0.608  18.275 -0.1743  0.2067  0.4023
 5368TIP3    H240300   0.741   0.560  18.334  0.1244 -0.0100 -0.4119
 5369TIP3   OH240301   2.545   0.974  17.573 -0.2096  0.2178 -0.0616
 5369TIP3    H140302   2.495   1.047  17.535 -0.4119 -0.5825 -1.3847
 5369TIP3    H240303   2.484   0.900  17.571  0.5998 -0.4474 -0.4710
 5370TIP3   OH240304   0.830   0.578  19.090  0.3266 -0.1016 -0.7947
 5370TIP3    H140305   0.825   0.564  19.185 -1.3684 -1.0523 -0.9737
 5370TIP3    H240306   0.923   0.572  19.069  0.8523  1.2137  0.9465
 5371TIP3   OH240307   1.527   4.448  19.764  0.8133 -0.0387  0.1734
 5371TIP3    H140308   1.446   4.496  19.780  1.0501  0.2658  0.4896
 5371TIP3    H240309   1.542   4.400  19.846 -0.5588 -2.3810 -0.8670
 5372TIP3   OH240310   1.708   5.289  20.129 -0.5756 -0.1155  0.2236
 5372TIP3    H140311   1.717   5.307  20.036  0.0839 -0.3954  0.2269
 5372TIP3    H240312   1.745   5.201  20.140  0.1115  0.2447  0.8749
 5373TIP3   OH240313   3.316   4.835  18.622 -0.2129 -0.0960  0.0020
 5373TIP3    H140314   3.222   4.823  18.611 -0.2504  0.1621  0.0262
 5373TIP3    H240315   3.324   4.921  18.665  0.0937  0.6084 -1.4040
 5374TIP3   OH240316   5.984   4.969  20.104 -0.0273 -0.5639  0.0798
 5374TIP3    H140317   5.937   5.051  20.083  0.3269 -0.1061  1.0316
 5374TIP3    H240318   5.920   4.900  20.086  0.0517 -0.1762 -1.8972
 5375TIP3   OH240319   0.382   5.524  21.049 -0.6443 -0.8775 -0.0872
 5375TIP3    H140320   0.396   5.615  21.021 -1.0295 -1.1302 -1.1359
 5375TIP3    H240321   0.420   5.471  20.979 -1.3555 -1.5302  0.0081
 5376TIP3   OH240322   4.091   4.211  20.217  0.1730  0.1234  0.2111
 5376TIP3    H140323   4.001   4.183  20.199  0.3375  0.2191 -0.8250
 5376TIP3    H240324   4.086   4.307  20.219  0.2352  0.1257  0.2664
 5377TIP3   OH240325   5.070   1.158  19.947  0.0252 -0.2718 -0.5499
 5377TIP3    H140326   5.161   1.130  19.940 -0.0083 -0.2395 -1.2646
 5377TIP3    H240327   5.074   1.241  19.994  0.1933 -1.0785  0.9151
 5378TIP3   OH240328   5.566   5.077  18.319  0.2534  0.0322  0.1937
 5378TIP3    H140329   5.629   5.027  18.267  1.1980  1.4635 -0.0868
 5378TIP3    H240330   5.481   5.046  18.288  0.7695 -2.1671  0.8104
 5379TIP3   OH240331   1.336   1.771  21.291  0.2414 -0.0108  0.4293
 5379TIP3    H140332   1.415   1.825  21.282  0.2622 -0.3144 -1.9857
 5379TIP3    H240333   1.367   1.690  21.331  1.0753  0.1031  0.0537
 5380TIP3   OH240334   2.974   3.758  19.416 -0.1477  0.3550  0.0192
 5380TIP3    H140335   3.038   3.820  19.451 -0.3164 -0.8956  2.8569
 5380TIP3    H240336   3.025   3.682  19.390 -0.2434  0.4284 -0.3944
 5381TIP3   OH240337   6.461   4.217  20.517 -0.7280 -0.1607 -0.0266
 5381TIP3    H140338   6.546   4.257  20.533 -1.9656  3.0337 -0.6917
 5381TIP3    H240339   6.443   4.166  20.597  0.8706  0.8169  1.0149
 5382TIP3   OH240340   4.904   5.898  21.161 -0.0575 -0.1719  0.2674
 5382TIP3    H140341   4.830   5.934  21.113  0.2510 -0.6404 -0.5743
 5382TIP3    H240342   4.933   5.969  21.218 -2.5761 -0.6506  2.3464
 5383TIP3   OH240343   4.020   5.701  17.587 -0.2634  0.4487  0.1465
 5383TIP3    H140344   3.953   5.697  17.655 -2.0093 -1.4410 -1.5408
 5383TIP3    H240345   4.081   5.631  17.608  0.4739  1.2843  0.9142
 5384TIP3   OH240346   4.716   4.905  19.323  0.0782  0.4150 -0.5858
 5384TIP3    H140347   4.746   4.905  19.232 -0.4726  0.8972 -0.7681
 5384TIP3    H240348   4.673   4.989  19.335 -1.4074 -0.3283 -0.3966
 5385TIP3   OH240349   1.286   2.535  20.105  0.0017 -0.0005 -0.6467
 5385TIP3    H140350   1.215   2.585  20.145  0.4131 -0.6902  1.0400
 5385TIP3    H240351   1.350   2.523  20.175  0.0808 -2.5555 -1.0369
 5386TIP3   OH240352   4.448   0.949  18.024 -0.4512 -0.5088 -0.0218
 5386TIP3    H140353   4.486   1.007  17.958 -0.5691 -1.0111 -0.5445
 5386TIP3    H240354   4.465   0.861  17.991  0.2242 -0.7916  1.0368
 5387TIP3   OH240355   1.333   3.776  20.960 -0.6662 -0.1059 -0.1068
 5387TIP3    H140356   1.350   3.801  20.869 -1.7524  0.6673 -0.1128
 5387TIP3    H240357   1.364   3.851  21.012  0.9948 -1.0009  0.2717
 5388TIP3   OH240358   5.995   4.232  20.425  0.0245 -0.1025  0.4434
 5388TIP3    H140359   5.918   4.288  20.415 -0.3638 -0.4426  1.3886
 5388TIP3    H240360   6.041   4.267  20.501  1.6152  0.9894 -0.9608
 5389TIP3   OH240361   3.732   2.455  19.716  0.7334  0.0815  0.2918
 5389TIP3    H140362   3.693   2.539  19.692 -0.5807 -0.6443 -0.2258
 5389TIP3    H240363   3.810   2.448  19.662  0.8971  0.9967  0.4000
 5390TIP3   OH240364   4.504   5.685  19.372  0.5580 -0.2658 -0.2875
 5390TIP3    H140365   4.503   5.692  19.276  0.1195  1.1519 -0.2151
 5390TIP3    H240366   4.579   5.738  19.399  1.1063 -1.2405  0.1310
 5391TIP3   OH240367   3.769   6.650  11.301 -0.2323 -0.2492  0.3853
 5391TIP3    H140368   3.693   6.688  11.256  1.0571  0.7158 -1.0739
 5391TIP3    H240369   3.743   6.646  11.393 -1.7164  0.9356  0.0580
 5392TIP3   OH240370   4.865   3.063   9.932 -0.8494  0.1772  0.0997
 5392TIP3    H140371   4.817   3.123   9.989 -3.0766 -0.2672 -1.1959
 5392TIP3    H240372   4.837   2.976   9.961  0.1471 -0.1420  0.1198
 5393TIP3   OH240373   3.929   0.800  12.118 -0.5250 -0.0273  0.4919
 5393TIP3    H140374   3.939   0.789  12.213 -1.2312 -1.6437  0.4193
 5393TIP3    H240375   3.834   0.801  12.104 -0.4821  2.5478 -0.0005
 5394TIP3   OH240376   6.415   4.885  13.280 -0.8297 -0.5325 -0.2045
 5394TIP3    H140377   6.321   4.868  13.285 -1.0754 -0.0455 -2.2335
 5394TIP3    H240378   6.421   4.981  13.283 -0.5682 -0.4803 -1.7360
 5395TIP3   OH240379   6.349   2.321  10.249 -0.5110  0.2386 -0.1790
 5395TIP3    H140380   6.397   2.239  10.246 -1.8405 -0.6132  0.6008
 5395TIP3    H240381   6.405   2.385  10.205  0.5342 -1.0897 -0.8053
 5396TIP3   OH240382   4.613   1.681  12.187  0.1796  0.4033  0.2930
 5396TIP3    H140383   4.634   1.738  12.261  1.3065 -0.7932  0.9395
 5396TIP3    H240384   4.555   1.734  12.132 -2.5763  0.5879  3.0886
 5397TIP3   OH240385   4.035   1.629  12.115 -0.0747  0.3375 -0.7582
 5397TIP3    H140386   4.126   1.609  12.133  0.8235  3.4300 -1.2369
 5397TIP3    H240387   3.987   1.592  12.189  1.6462 -0.7122 -0.1174
 5398TIP3   OH240388   4.194   4.978  11.822  0.0719  0.3410  0.2229
 5398TIP3    H140389   4.211   4.888  11.795 -1.6805 -0.2189  0.8703
 5398TIP3    H240390   4.161   4.970  11.912  0.2610  1.6681  0.4294
 5399TIP3   OH240391   6.581   4.280  10.824 -0.0638  0.1632 -0.0688
 5399TIP3    H140392   6.518   4.286  10.895  0.2659 -0.6701  0.3149
 5399TIP3    H240393   6.588   4.186  10.806  0.0304  0.3456 -1.0471
 5400TIP3   OH240394   5.266   6.584  12.221  0.7934 -0.4970 -0.2834
 5400TIP3    H140395   5.282   6.594  12.315  1.0710 -0.6498 -0.3146
 5400TIP3    H240396   5.337   6.633  12.179  0.5009 -0.1748 -0.4144
 5401TIP3   OH240397   1.299   3.727  12.527 -0.1060  0.0399 -0.4278
 5401TIP3    H140398   1.291   3.769  12.613  0.0591 -0.4165 -0.1850
 5401TIP3    H240399   1.352   3.649  12.543  0.6698  0.4137 -1.1153
 5402TIP3   OH240400   3.684   6.045  11.825 -0.4023 -0.1355  0.2602
 5402TIP3    H140401   3.597   6.026  11.859 -1.5802 -1.0483 -2.9677
 5402TIP3    H240402   3.723   5.959  11.810  0.9497  0.2655  1.2828
 5403TIP3   OH240403   6.470   3.788  11.319 -0.3234  0.4727 -0.5557
 5403TIP3    H140404   6.542   3.806  11.259 -0.4189  0.4915 -0.6640
 5403TIP3    H240405   6.490   3.841  11.396  0.1907 -0.1195 -0.2732
 5404TIP3   OH240406   4.269   4.692  10.919 -0.5289 -0.0901  0.2025
 5404TIP3    H140407   4.206   4.621  10.903 -0.1498 -0.8437  1.8347
 5404TIP3    H240408   4.226   4.746  10.985 -0.9288  1.4030 -1.2288
 5405TIP3   OH240409   6.001   2.209   9.874 -0.2323  0.4739 -0.6062
 5405TIP3    H140410   6.072   2.149   9.850 -1.5074 -1.9564  1.1798
 5405TIP3    H240411   6.008   2.216   9.970 -3.8075 -2.0547  0.0703
 5406TIP3   OH240412   2.662   2.090  11.329  0.0528 -0.3168  0.0027
 5406TIP3    H140413   2.571   2.062  11.341 -0.3711  1.0956  0.2532
 5406TIP3    H240414   2.710   2.009  11.313 -1.0722 -1.2062  0.9614
 5407TIP3   OH240415   1.906   3.468  12.594 -0.2319 -0.7423  0.3001
 5407TIP3    H140416   1.814   3.467  12.569 -0.1495 -1.5350  0.0231
 5407TIP3    H240417   1.910   3.534  12.663 -0.8490 -0.0965 -0.2620
 5408TIP3   OH240418   2.108   3.512  10.036  0.0905  0.0364 -0.2609
 5408TIP3    H140419   2.137   3.557  10.115 -0.4929 -0.5545  0.3056
 5408TIP3    H240420   2.117   3.419  10.056 -0.7519 -0.1340 -0.6168
 5409TIP3   OH240421   1.939   5.753  12.049  0.3585  0.1392 -0.3109
 5409TIP3    H140422   2.021   5.712  12.077  0.1777 -0.1359 -0.1797
 5409TIP3    H240423   1.895   5.685  11.996 -0.1611 -0.0085  0.3010
 5410TIP3   OH240424   3.315   2.980  10.439 -0.3132 -0.4105 -0.0736
 5410TIP3    H140425   3.342   2.929  10.516  1.4685  0.8661  0.2106
 5410TIP3    H240426   3.332   3.071  10.463 -0.2529  0.0601 -1.7619
 5411TIP3   OH240427   4.285   4.089  11.427  0.2820  0.7801  0.1166
 5411TIP3    H140428   4.360   4.033  11.446 -0.0689 -0.0821 -0.9211
 5411TIP3    H240429   4.225   4.033  11.377 -0.2628  1.9623 -0.6117
 5412TIP3   OH240430   2.088   4.562   9.692  0.2261  0.5659 -0.5447
 5412TIP3    H140431   2.067   4.649   9.727 -0.1200  0.6921 -1.0477
 5412TIP3    H240432   2.172   4.539   9.731 -0.7483  0.1207  1.4270
 5413TIP3   OH240433   4.713   5.780   9.917  0.2874  0.1283  0.1619
 5413TIP3    H140434   4.709   5.830   9.835  1.6836  1.8334  1.0909
 5413TIP3    H240435   4.677   5.839   9.983  0.3131 -0.7734  1.0024
 5414TIP3   OH240436   5.691   2.491  10.629  0.3588 -0.1016 -1.0227
 5414TIP3    H140437   5.621   2.427  10.644  1.0452 -1.1644 -2.1593
 5414TIP3    H240438   5.767   2.438  10.608  1.6310  1.0206  0.5379
 5415TIP3   OH240439   3.936   2.037  11.385 -0.0079  0.6111 -0.2091
 5415TIP3    H140440   4.028   2.026  11.410 -0.4227 -0.5961  0.9275
 5415TIP3    H240441   3.938   2.066  11.294  1.4995  0.9428 -0.0883
 5416TIP3   OH240442   5.094   0.122  12.387 -0.2791  0.3712  0.0183
 5416TIP3    H140443   5.179   0.145  12.348  0.1230 -0.2942  0.4711
 5416TIP3    H240444   5.117   0.069  12.463 -1.1426 -0.5187 -0.3232
 5417TIP3   OH240445   5.301   0.917  10.152  0.0765 -0.0640  0.0749
 5417TIP3    H140446   5.376   0.935  10.208 -1.5699  0.3712  2.2579
 5417TIP3    H240447   5.230   0.970  10.188 -0.8659  1.1211 -3.1232
 5418TIP3   OH240448   5.837   5.903  11.101 -0.1143 -0.2902 -0.0299
 5418TIP3    H140449   5.860   5.836  11.038 -2.0459  0.0364 -1.1658
 5418TIP3    H240450   5.905   5.898  11.168  0.5757 -2.3696 -0.8206
 5419TIP3   OH240451   1.993   6.453  11.028  0.8202  0.2993 -0.1336
 5419TIP3    H140452   2.005   6.393  10.955  0.3801  2.3936 -2.0249
 5419TIP3    H240453   2.078   6.495  11.039  0.1402  2.1805 -1.5550
 5420TIP3   OH240454   2.271   4.289  12.070 -0.4453 -0.1245 -0.1385
 5420TIP3    H140455   2.336   4.350  12.035  1.6068 -1.8519  0.4505
 5420TIP3    H240456   2.317   4.244  12.141 -2.8195 -0.3309  1.3657
 5421TIP3   OH240457   5.886   4.705  12.516  0.0601 -0.2393 -0.5163
 5421TIP3    H140458   5.839   4.644  12.573 -0.5751  1.6388  1.0971
 5421TIP3    H240459   5.946   4.751  12.574 -1.2964  2.4478 -1.0685
 5422TIP3   OH240460   6.007   1.005  10.116  0.3180  0.4785  0.4414
 5422TIP3    H140461   5.920   1.031  10.145  0.0662 -1.0414  1.1593
 5422TIP3    H240462   6.053   1.087  10.098 -1.6802  1.3133 -1.3142
 5423TIP3   OH240463   4.444   2.837  11.385  0.2842 -0.1363 -0.1917
 5423TIP3    H140464   4.453   2.752  11.426 -0.3828  0.0051  0.2777
 5423TIP3    H240465   4.354   2.865  11.407  0.5433  0.7495 -0.1932
 5424TIP3   OH240466   1.221   6.403  12.738 -0.0198 -0.1315  0.4532
 5424TIP3    H140467   1.126   6.407  12.745 -0.1706 -1.7307 -0.2141
 5424TIP3    H240468   1.250   6.365  12.821 -0.2244 -2.0658 -0.3111
 5425TIP3   OH240469   1.700   6.489  11.406  0.4346  0.3575  0.4488
 5425TIP3    H140470   1.619   6.514  11.451  1.1345  0.9544  1.4079
 5425TIP3    H240471   1.720   6.401  11.438 -0.5717 -0.3926 -0.8717
 5426TIP3   OH240472   3.738   5.617   9.948  0.5237 -0.1180  0.5812
 5426TIP3    H140473   3.766   5.547   9.889 -0.4041 -0.1921  0.2119
 5426TIP3    H240474   3.642   5.615   9.944  0.4881  1.5381  0.1334
 5427TIP3   OH240475   0.784   4.172  11.552  0.1230  0.8573  0.4803
 5427TIP3    H140476   0.845   4.100  11.538  0.0734  0.5975  1.4758
 5427TIP3    H240477   0.699   4.137  11.523  0.0241  0.3486  1.3323
 5428TIP3   OH240478   5.659   0.141  11.520 -0.2412 -0.2446  0.1218
 5428TIP3    H140479   5.722   0.182  11.461 -1.2727  2.3577  0.7128
 5428TIP3    H240480   5.689   0.164  11.608 -0.2488 -1.7590  0.5515
 5429TIP3   OH240481   4.816   2.619  10.546 -0.2875  0.2058 -0.5937
 5429TIP3    H140482   4.733   2.664  10.566 -0.1199  0.2152  0.1149
 5429TIP3    H240483   4.796   2.566  10.469 -1.6780 -1.6459  0.9154
 5430TIP3   OH240484   4.922   2.399   9.881 -0.3640 -0.4633 -0.2558
 5430TIP3    H140485   4.982   2.399   9.956 -0.9661 -2.9939  0.3413
 5430TIP3    H240486   4.926   2.488   9.847  2.9698 -0.2412  0.3372
 5431TIP3   OH240487   1.154   4.386  10.065 -0.0613 -0.4780  0.3696
 5431TIP3    H140488   1.150   4.299  10.106 -0.5946  0.0317  1.4358
 5431TIP3    H240489   1.210   4.437  10.123  0.3380 -0.1322 -0.3166
 5432TIP3   OH240490   0.063   4.110  11.560 -0.3718 -0.1450  0.7385
 5432TIP3    H140491   0.084   4.021  11.589  0.3575 -0.2299 -0.0459
 5432TIP3    H240492   0.147   4.155  11.556 -0.7345  0.5881  1.1151
 5433TIP3   OH240493   4.937   0.236   9.495 -0.2798  0.9801  0.3324
 5433TIP3    H140494   4.956   0.280   9.413 -0.3668  1.4945  0.5811
 5433TIP3    H240495   4.966   0.146   9.482  2.0992  1.6422  0.6176
 5434TIP3   OH240496   5.657   1.995  11.301 -0.3786 -0.0199 -0.0372
 5434TIP3    H140497   5.742   1.951  11.300  0.2025  1.0593  0.3963
 5434TIP3    H240498   5.631   1.995  11.393  0.0881  1.3732  0.1155
 5435TIP3   OH240499   3.573   3.805  12.106 -0.0129  0.1895  0.6094
 5435TIP3    H140500   3.605   3.781  12.019  0.4405  0.5451  0.6737
 5435TIP3    H240501   3.609   3.738  12.164  0.0092  0.1752  0.5790
 5436TIP3   OH240502   3.725   2.866  11.600  0.5279 -0.1804  0.5971
 5436TIP3    H140503   3.685   2.802  11.660 -0.8811  0.5443  0.4741
 5436TIP3    H240504   3.655   2.887  11.538  0.6933  2.0249  1.0705
 5437TIP3   OH240505   5.229   0.429  12.704 -0.1854 -0.4613  0.1247
 5437TIP3    H140506   5.148   0.397  12.666 -0.7905  0.2676  0.7536
 5437TIP3    H240507   5.201   0.479  12.781  0.8341  0.0302  0.1948
 5438TIP3   OH240508   6.414   3.320  10.030  0.8001  0.1538 -0.4079
 5438TIP3    H140509   6.338   3.375  10.049  0.4804 -0.6415  0.7018
 5438TIP3    H240510   6.436   3.340   9.939 -1.2415 -0.1944 -1.0196
 5439TIP3   OH240511   1.709   6.362  12.817 -0.0253  0.2098 -0.4683
 5439TIP3    H140512   1.737   6.332  12.903 -1.5921 -2.1988 -0.6845
 5439TIP3    H240513   1.645   6.430  12.835  0.0787  0.1249  0.2514
 5440TIP3   OH240514   2.384   3.494  10.640 -0.1437  0.0862  0.3765
 5440TIP3    H140515   2.383   3.404  10.607  0.1739 -0.8068  2.6376
 5440TIP3    H240516   2.295   3.510  10.671 -0.1819  0.5456  0.0487
 5441TIP3   OH240517   5.025   2.574  11.167 -0.3021  0.3323 -0.0741
 5441TIP3    H140518   5.104   2.604  11.123 -1.0199 -0.9862 -2.4439
 5441TIP3    H240519   4.978   2.523  11.101 -1.4687 -1.8499  2.2550
 5442TIP3   OH240520   1.164   1.434  12.347  0.0311 -0.1546 -1.1690
 5442TIP3    H140521   1.178   1.514  12.398  0.2639 -0.1378 -1.2579
 5442TIP3    H240522   1.239   1.431  12.287  1.2072 -1.5533  0.2736
 5443TIP3   OH240523   0.759   5.823  10.525  0.3719 -0.1165  0.3293
 5443TIP3    H140524   0.832   5.869  10.567  0.1394  0.5669 -0.0027
 5443TIP3    H240525   0.765   5.848  10.433 -0.2730 -0.0754  0.2965
 5444TIP3   OH240526   2.528   0.739  11.191  0.3613 -0.0949 -0.3682
 5444TIP3    H140527   2.617   0.772  11.198  0.7767 -0.7705 -2.1886
 5444TIP3    H240528   2.477   0.798  11.248  2.0684 -0.2886  1.4867
 5445TIP3   OH240529   3.022   1.466   9.359 -0.4422 -0.7162  0.6235
 5445TIP3    H140530   2.978   1.438   9.279 -0.5017 -1.9990  1.0726
 5445TIP3    H240531   2.999   1.558   9.368  1.2953  0.0752 -1.9516
 5446TIP3   OH240532   1.932   6.408  11.700  0.3166 -0.3391 -0.3487
 5446TIP3    H140533   1.965   6.426  11.612 -1.2599  0.1853 -0.8571
 5446TIP3    H240534   1.957   6.485  11.751  0.6879 -0.3694 -0.4782
 5447TIP3   OH240535   5.345   4.752  12.460  0.1727  0.0215 -0.0748
 5447TIP3    H140536   5.291   4.814  12.411  0.7029  1.8024  1.4764
 5447TIP3    H240537   5.328   4.773  12.552  1.9640 -0.7277  0.4687
 5448TIP3   OH240538   4.973   6.218   9.767 -0.3787 -0.0370  0.6642
 5448TIP3    H140539   4.951   6.189   9.679  0.2381 -0.5358  0.6691
 5448TIP3    H240540   5.060   6.258   9.758  0.2922 -1.2958  1.2754
 5449TIP3   OH240541   1.367   3.617  11.164 -0.0345  0.3051  0.4059
 5449TIP3    H140542   1.359   3.709  11.188 -0.5053  0.2545  0.4519
 5449TIP3    H240543   1.383   3.618  11.070  1.0593  0.4722  0.5820
 5450TIP3   OH240544   2.764   0.429  10.725 -0.4145 -0.1600  0.3768
 5450TIP3    H140545   2.849   0.465  10.697 -0.7989 -0.4951 -1.2922
 5450TIP3    H240546   2.777   0.409  10.818  0.6694  1.7301  0.6858
 5451TIP3   OH240547   3.101   0.744  10.521 -0.0180  0.7492  0.1402
 5451TIP3    H140548   3.051   0.787  10.452 -1.1253 -0.5900  0.0581
 5451TIP3    H240549   3.120   0.657  10.486  0.3124  0.4153  1.1077
 5452TIP3   OH240550   2.201   4.509  12.535  0.5104  0.1085 -0.1408
 5452TIP3    H140551   2.230   4.600  12.540 -0.2860  0.4300 -1.1344
 5452TIP3    H240552   2.178   4.486  12.625  2.6703  0.1939  0.5121
 5453TIP3   OH240553   3.876   2.355  10.204  0.4080  0.3588  0.2550
 5453TIP3    H140554   3.937   2.294  10.246 -0.3835 -1.3426 -0.9361
 5453TIP3    H240555   3.828   2.395  10.276 -0.1919 -1.6985  1.0770
 5454TIP3   OH240556   0.519   5.149  12.128 -0.2741 -0.1761  0.2506
 5454TIP3    H140557   0.608   5.124  12.107 -0.0547  0.7505  0.0356
 5454TIP3    H240558   0.489   5.082  12.190 -0.0793 -1.5315 -1.0598
 5455TIP3   OH240559   0.055   1.507  10.654 -0.2889 -0.5208  0.2186
 5455TIP3    H140560   0.063   1.504  10.749 -0.4079  0.3117  0.2619
 5455TIP3    H240561   0.132   1.554  10.624  0.1654 -1.4792 -0.1721
 5456TIP3   OH240562   1.097   4.731  10.313 -0.0555 -0.2913 -0.5145
 5456TIP3    H140563   1.063   4.792  10.247  1.5413  0.3758 -0.7862
 5456TIP3    H240564   1.181   4.703  10.277  1.5136  1.1054  1.7622
 5457TIP3   OH240565   3.812   1.847  11.680 -0.2775 -0.7437 -0.4735
 5457TIP3    H140566   3.818   1.939  11.705  0.1579 -0.0588 -2.8719
 5457TIP3    H240567   3.894   1.808  11.709  1.0767  0.4858 -2.4375
 5458TIP3   OH240568   1.561   6.148  13.095 -0.0660 -0.7149 -0.5916
 5458TIP3    H140569   1.580   6.067  13.143  0.4329 -1.5454 -2.1143
 5458TIP3    H240570   1.638   6.202  13.109  1.2771 -1.9973 -2.4896
 5459TIP3   OH240571   1.978   3.478  11.696 -0.6595  0.1099 -0.6066
 5459TIP3    H140572   2.046   3.536  11.731  0.2187 -0.4606 -1.3156
 5459TIP3    H240573   1.901   3.534  11.686  0.2847  1.2898 -1.6530
 5460TIP3   OH240574   1.906   4.880  12.957 -0.3386  0.2535 -0.1146
 5460TIP3    H140575   1.825   4.829  12.957  0.4212 -0.9887 -0.8264
 5460TIP3    H240576   1.975   4.816  12.940  0.8601  1.2060  0.9324
 5461TIP3   OH240577   6.371   4.366  11.113  0.9357  0.6206 -0.3228
 5461TIP3    H140578   6.420   4.310  11.174  1.1046 -0.9890 -1.8285
 5461TIP3    H240579   6.286   4.324  11.105  0.7831  1.0251 -0.8917
 5462TIP3   OH240580   4.460   2.707   9.766 -0.8780 -0.1397  0.1713
 5462TIP3    H140581   4.488   2.784   9.717  0.2433  0.8899  2.3109
 5462TIP3    H240582   4.504   2.633   9.723 -0.1314  0.6753 -0.4931
 5463TIP3   OH240583   1.666   5.791  10.405 -0.1008  0.2361 -0.3497
 5463TIP3    H140584   1.615   5.861  10.363 -1.8251 -1.8645 -1.9835
 5463TIP3    H240585   1.621   5.710  10.380  1.7645 -1.4972  1.5123
 5464TIP3   OH240586   5.989   3.642  10.701  0.3264 -0.3675 -0.1309
 5464TIP3    H140587   5.899   3.666  10.680  0.7018 -0.8483 -2.5278
 5464TIP3    H240588   5.984   3.548  10.722  0.2521 -0.3559 -0.0959
 5465TIP3   OH240589   6.261   2.108   9.788  0.3783 -0.2479  0.2658
 5465TIP3    H140590   6.291   2.040   9.849 -2.1179 -1.2435  0.5002
 5465TIP3    H240591   6.234   2.059   9.710 -1.9423  0.3525  0.6325
 5466TIP3   OH240592   4.497   3.819  11.131 -0.2787 -0.1558 -0.3464
 5466TIP3    H140593   4.592   3.818  11.133 -0.2288 -0.0353 -1.7362
 5466TIP3    H240594   4.475   3.873  11.055 -1.4733  0.7581  0.6048
 5467TIP3   OH240595   5.568   3.857  12.886 -0.2027  0.2693 -0.3882
 5467TIP3    H140596   5.515   3.868  12.965 -0.8620 -1.3833 -0.5660
 5467TIP3    H240597   5.558   3.940  12.839  0.0935  1.2244  1.1793
 5468TIP3   OH240598   1.092   3.757  11.463  0.4403 -0.1583  0.3330
 5468TIP3    H140599   1.138   3.802  11.533  0.0239  0.9410 -0.0827
 5468TIP3    H240600   1.113   3.665  11.476  1.7586  0.1999  0.8726
 5469TIP3   OH240601   6.166   2.938   9.454  0.3005  0.5055 -0.2138
 5469TIP3    H140602   6.236   2.906   9.511  0.6392 -1.0052 -1.4077
 5469TIP3    H240603   6.118   2.859   9.429 -1.2323  1.4053 -0.2190
 5470TIP3   OH240604   5.574   5.786  10.609 -0.0397 -0.5717 -0.4915
 5470TIP3    H140605   5.524   5.855  10.566  1.2839  1.2822  0.7918
 5470TIP3    H240606   5.575   5.714  10.546 -1.9851  0.3205 -1.6334
 5471TIP3   OH240607   0.907   4.052  11.052  0.0279 -0.0515  0.0629
 5471TIP3    H140608   0.970   4.073  11.121 -0.3649 -0.5464  0.5735
 5471TIP3    H240609   0.871   4.137  11.025  0.2876  0.1533  0.3549
 5472TIP3   OH240610   3.610   5.850   9.500  0.4155  0.2710  0.1506
 5472TIP3    H140611   3.697   5.825   9.468  0.7534 -0.3685  1.4846
 5472TIP3    H240612   3.558   5.770   9.491 -0.2293  0.8275 -1.2275
 5473TIP3   OH240613   0.311   5.703  12.320  0.2026 -0.1185 -0.7248
 5473TIP3    H140614   0.268   5.755  12.253 -0.3143  0.3886 -0.0194
 5473TIP3    H240615   0.342   5.767  12.384 -0.8390 -0.6698  0.3820
 5474TIP3   OH240616   5.784   5.867   9.358  0.0508 -0.0382  0.2476
 5474TIP3    H140617   5.699   5.880   9.400  1.2781  2.7473  2.1553
 5474TIP3    H240618   5.765   5.808   9.285 -2.9160 -2.2106  2.4661
 5475TIP3   OH240619   0.626   3.321  11.687 -0.0384  0.1095 -0.5886
 5475TIP3    H140620   0.615   3.304  11.594  0.9951  1.0370 -0.8932
 5475TIP3    H240621   0.694   3.260  11.715 -0.9363 -0.7684 -0.2245
 5476TIP3   OH240622   1.818   0.671  11.452 -0.2342  0.2284  0.3853
 5476TIP3    H140623   1.740   0.705  11.496  0.5162 -0.2971  2.1627
 5476TIP3    H240624   1.816   0.713  11.366 -1.4923  1.6426  1.0621
 5477TIP3   OH240625   6.164   5.874  10.654 -0.1699  0.0956 -0.4279
 5477TIP3    H140626   6.207   5.957  10.672 -0.9079  0.2176  0.8459
 5477TIP3    H240627   6.217   5.809  10.700 -0.4809  0.0574 -0.1215
 5478TIP3   OH240628   3.682   2.788  10.419  0.1949 -0.1883  0.1685
 5478TIP3    H140629   3.769   2.749  10.432  0.5045  0.2448 -0.5112
 5478TIP3    H240630   3.621   2.723  10.453  0.6286 -1.8588 -2.0144
 5479TIP3   OH240631   0.141   6.155  10.677  0.0630 -0.8692  0.3628
 5479TIP3    H140632   0.147   6.182  10.586  0.0117 -2.3569 -0.0935
 5479TIP3    H240633   0.166   6.234  10.726 -1.2478  0.3738 -0.8593
 5480TIP3   OH240634   6.537   2.662  10.421  0.6768 -0.5082 -0.1842
 5480TIP3    H140635   6.542   2.751  10.457  1.1456  0.0438 -1.5526
 5480TIP3    H240636   6.444   2.647  10.407  0.5853 -0.2822  0.1494
 5481TIP3   OH240637   5.295   6.127  10.691 -0.2432 -0.0703 -0.0458
 5481TIP3    H140638   5.355   6.200  10.679 -1.0877  0.6434 -0.0674
 5481TIP3    H240639   5.350   6.049  10.688  0.9657  0.6320  1.9949
 5482TIP3   OH240640   1.561   1.573  13.108 -0.2714  0.3846  1.1830
 5482TIP3    H140641   1.477   1.528  13.102  0.8712 -1.8063  0.3323
 5482TIP3    H240642   1.621   1.506  13.142  1.3372  1.5687  0.7904
 5483TIP3   OH240643   4.764   1.946  13.049  0.7188 -0.2024 -0.1545
 5483TIP3    H140644   4.816   1.971  12.972  1.2975 -1.3403 -0.1534
 5483TIP3    H240645   4.806   1.866  13.081  0.9488  0.6188  1.7736
 5484TIP3   OH240646   3.137   4.310  12.067 -0.5852  0.1937 -0.1838
 5484TIP3    H140647   3.097   4.395  12.048 -1.4922 -0.6115 -2.0825
 5484TIP3    H240648   3.101   4.251  12.001  0.3120 -1.5999  0.8627
 5485TIP3   OH240649   3.971   2.605  12.634  0.3595 -0.0044  0.0538
 5485TIP3    H140650   4.062   2.582  12.618  0.0708 -1.0669 -0.1818
 5485TIP3    H240651   3.927   2.521  12.647 -1.1157  0.2565 -2.6065
 5486TIP3   OH240652   1.771   5.497   9.771 -0.7221 -0.0776  0.5377
 5486TIP3    H140653   1.679   5.520   9.786 -0.7072  0.0900  0.3852
 5486TIP3    H240654   1.767   5.426   9.707 -0.7114  0.8179 -0.5050
 5487TIP3   OH240655   6.627   4.820  12.349  0.1077  0.1576  0.1536
 5487TIP3    H140656   6.582   4.791  12.269  0.8606 -2.6396  0.6295
 5487TIP3    H240657   6.565   4.804  12.419  0.4048  0.1017  0.4049
 5488TIP3   OH240658   4.594   2.310  10.713  0.0034 -0.4538  0.3244
 5488TIP3    H140659   4.508   2.334  10.679 -0.0576 -1.0094  0.0835
 5488TIP3    H240660   4.603   2.362  10.793  1.9350  4.2514 -2.5652
 5489TIP3   OH240661   5.092   6.248  11.316  0.6253 -0.4118 -0.3487
 5489TIP3    H140662   5.154   6.313  11.347  0.2872  0.0932 -0.7269
 5489TIP3    H240663   5.092   6.181  11.385 -1.2058  1.3849  1.5658
 5490TIP3   OH240664   2.831   0.808   9.686 -0.2390  0.1840 -0.1424
 5490TIP3    H140665   2.868   0.741   9.743 -0.4815  1.7463  1.9621
 5490TIP3    H240666   2.906   0.860   9.658 -0.1215 -0.5698 -1.3113
 5491TIP3   OH240667   1.412   6.097  12.230  0.1175  0.1717  0.2685
 5491TIP3    H140668   1.390   6.154  12.304  1.8770  0.0341  0.9535
 5491TIP3    H240669   1.400   6.152  12.153 -2.4318  0.1183  0.5334
 5492TIP3   OH240670   1.067   0.762  11.314 -0.1380  0.1375  0.8707
 5492TIP3    H140671   0.990   0.707  11.325 -0.8335  1.0195  0.6036
 5492TIP3    H240672   1.034   0.839  11.266  0.2238  1.9961  3.4091
 5493TIP3   OH240673   4.575   2.228   9.654 -0.4650 -0.4283  0.5710
 5493TIP3    H140674   4.502   2.244   9.713 -1.1112 -0.6105 -0.1618
 5493TIP3    H240675   4.646   2.198   9.711 -1.4534 -1.8204  1.1271
 5494TIP3   OH240676   1.097   6.576  11.216 -0.6586 -0.1730  0.0042
 5494TIP3    H140677   1.114   6.655  11.267 -1.8854  0.8648 -1.1149
 5494TIP3    H240678   1.018   6.538  11.255 -1.4298  0.4642 -0.8805
 5495TIP3   OH240679   1.593   4.406  10.253  0.2236 -0.1238 -0.6038
 5495TIP3    H140680   1.607   4.445  10.167  0.9115 -1.3677 -1.0750
 5495TIP3    H240681   1.608   4.478  10.314  3.0282  0.0768 -1.3762
 5496TIP3   OH240682   5.686   1.119  11.195 -0.3349 -0.2095  0.0815
 5496TIP3    H140683   5.590   1.115  11.192 -0.2976 -0.3010 -1.8661
 5496TIP3    H240684   5.705   1.202  11.240 -1.3520  0.3903 -0.5434
 5497TIP3   OH240685   3.401   6.368  11.242  0.0878 -0.4850  0.5919
 5497TIP3    H140686   3.417   6.408  11.328 -1.9153  0.8815  0.4180
 5497TIP3    H240687   3.442   6.428  11.180 -0.1518 -0.4149  0.4999
 5498TIP3   OH240688   2.091   4.911  11.506  0.1738 -0.0874 -0.0507
 5498TIP3    H140689   2.025   4.856  11.547 -1.1440  1.6054  0.2454
 5498TIP3    H240690   2.073   4.905  11.412 -0.7998  0.7819  0.0599
 5499TIP3   OH240691   2.851   0.120  12.300 -0.5332  0.3333 -0.0118
 5499TIP3    H140692   2.891   0.082  12.222 -2.6258  0.3351 -1.1605
 5499TIP3    H240693   2.818   0.205  12.271 -2.0411 -0.0048  0.6295
 5500TIP3   OH240694   1.356   5.576  11.165  0.1934 -0.2997 -0.0768
 5500TIP3    H140695   1.403   5.552  11.085 -1.4039  0.1492 -1.1998
 5500TIP3    H240696   1.266   5.547  11.150 -0.0753 -0.5113  1.7194
 5501TIP3   OH240697   0.738   4.392  10.038 -0.2401 -0.5666 -0.0960
 5501TIP3    H140698   0.800   4.438  10.095 -0.2887 -2.2552  1.4113
 5501TIP3    H240699   0.794   4.342   9.978 -0.1244 -1.2408  0.5553
 5502TIP3   OH240700   0.774   3.878  10.187 -0.1428  0.9084 -0.1772
 5502TIP3    H140701   0.686   3.875  10.150 -0.7214  1.2510  1.1082
 5502TIP3    H240702   0.800   3.970  10.179 -0.0649  0.8855 -0.1861
 5503TIP3   OH240703   1.457   3.702  10.362 -0.3762  0.1590 -0.5386
 5503TIP3    H140704   1.482   3.617  10.325 -0.6911  0.2093 -0.8788
 5503TIP3    H240705   1.528   3.761  10.335  0.1901 -0.1382  0.2854
 5504TIP3   OH240706   0.508   5.324  12.670 -0.4230 -0.1567  0.0247
 5504TIP3    H140707   0.510   5.323  12.766  0.4128  0.0622  0.0213
 5504TIP3    H240708   0.563   5.399  12.646 -0.2177 -0.5067 -0.6311
 5505TIP3   OH240709   4.866   2.850  11.697 -0.2877 -0.0742  0.1726
 5505TIP3    H140710   4.902   2.867  11.609 -0.5832  1.0324  0.2557
 5505TIP3    H240711   4.936   2.802  11.742  1.2134  2.1119  0.3650
 5506TIP3   OH240712   3.283   0.789  11.105 -0.4907  0.0251 -0.0759
 5506TIP3    H140713   3.310   0.859  11.045 -0.8272 -0.4744 -0.8260
 5506TIP3    H240714   3.250   0.720  11.048 -0.6214 -0.5521  0.6822
 5507TIP3   OH240715   2.145   5.983  13.308  0.1653 -0.3702  0.4033
 5507TIP3    H140716   2.070   5.926  13.293  0.9824 -1.4975  0.4880
 5507TIP3    H240717   2.123   6.064  13.262 -1.3063 -0.4980  0.8361
 5508TIP3   OH240718   1.277   5.564  12.117  0.1145 -0.3868 -0.1411
 5508TIP3    H140719   1.344   5.598  12.058  0.1477 -0.8094 -0.3492
 5508TIP3    H240720   1.322   5.550  12.200  0.0354  0.3450  0.0328
 5509TIP3   OH240721   4.608   1.417  12.138 -0.0056  0.0817 -0.0175
 5509TIP3    H140722   4.599   1.510  12.155 -0.5937  0.0835 -0.3190
 5509TIP3    H240723   4.577   1.375  12.218  1.1274  0.1440  0.4816
 5510TIP3   OH240724   4.110   5.386   9.910  0.1723 -0.4533  0.1355
 5510TIP3    H140725   4.147   5.390   9.998 -0.1302  0.1738  0.2374
 5510TIP3    H240726   4.169   5.440   9.857  0.1455 -0.5310  0.0261
 5511TIP3   OH240727   6.408   2.105  10.667 -0.3074 -0.0685  0.2588
 5511TIP3    H140728   6.426   2.198  10.652 -0.6217  0.0655  0.7250
 5511TIP3    H240729   6.353   2.080  10.593 -2.3224  0.7350  1.4343
 5512TIP3   OH240730   0.148   0.122   9.522  0.2864 -0.2367  0.0307
 5512TIP3    H140731   0.147   0.046   9.580  0.4261 -0.5413 -0.3608
 5512TIP3    H240732   0.239   0.150   9.520  0.0709  0.5660  0.9708
 5513TIP3   OH240733   4.369   4.711  11.291  0.0499  0.3555  0.0443
 5513TIP3    H140734   4.396   4.735  11.202  1.2286 -0.3327  0.2075
 5513TIP3    H240735   4.402   4.622  11.303 -1.1156 -0.0064  0.7641
 5514TIP3   OH240736   3.390   0.520  11.216 -0.3835 -0.4935 -0.4442
 5514TIP3    H140737   3.403   0.513  11.310 -0.3499  0.9015 -0.3324
 5514TIP3    H240738   3.336   0.598  11.205 -1.9518 -1.6623 -1.4610
 5515TIP3   OH240739   2.896   4.587  11.405  0.9897  0.4291 -0.1627
 5515TIP3    H140740   2.896   4.678  11.437  0.5383  0.3972 -0.0636
 5515TIP3    H240741   2.988   4.569  11.386  1.1918  0.6508  0.5549
 5516TIP3   OH240742   0.953   1.806  11.766 -0.1924  0.3268  0.1009
 5516TIP3    H140743   0.953   1.901  11.774  1.6377  0.3419  0.4749
 5516TIP3    H240744   0.894   1.787  11.693 -0.9275  1.7105  0.3178
 5517TIP3   OH240745   5.728   2.290  19.272 -0.0273  0.2149  0.0703
 5517TIP3    H140746   5.731   2.384  19.255 -0.2628  0.2988  0.4858
 5517TIP3    H240747   5.694   2.282  19.361 -1.1156 -0.3008 -0.3702
 5518TIP3   OH240748   0.446   1.555  11.275 -0.5082  0.4773 -0.0408
 5518TIP3    H140749   0.425   1.487  11.340  1.2682 -0.0014  0.1099
 5518TIP3    H240750   0.542   1.550  11.267 -0.4249  2.4065 -0.6599
 5519TIP3   OH240751   5.316   1.269  11.828  0.3849  0.3215  0.3076
 5519TIP3    H140752   5.244   1.212  11.799 -1.6721  0.3329  4.5880
 5519TIP3    H240753   5.374   1.275  11.753 -3.1910 -1.1450 -2.9066
 5520TIP3   OH240754   2.411   4.138  12.264  0.6376 -0.0037 -0.0897
 5520TIP3    H140755   2.357   4.071  12.307 -0.8796  1.3365  0.1921
 5520TIP3    H240756   2.501   4.105  12.272  0.1284 -1.1370  1.6621
 5521TIP3   OH240757   2.281   1.870  11.652 -0.8911  0.1494 -0.0081
 5521TIP3    H140758   2.192   1.900  11.632 -1.2659 -0.9109 -0.0115
 5521TIP3    H240759   2.268   1.790  11.704  0.0069 -1.2749 -1.8487
 5522TIP3   OH240760   4.511   3.802  12.647  0.3510  0.1005 -0.2630
 5522TIP3    H140761   4.505   3.728  12.708  0.6480 -0.7370 -1.2324
 5522TIP3    H240762   4.443   3.862  12.676  2.5425  1.3045  2.9466
 5523TIP3   OH240763   3.903   3.256  10.363  0.2365 -0.0889 -0.2567
 5523TIP3    H140764   3.965   3.229  10.431 -1.5542  1.8794  2.3513
 5523TIP3    H240765   3.955   3.308  10.303  1.2921  1.0677  1.5697
 5524TIP3   OH240766   2.448   1.048  10.343 -0.1395  0.1957  0.2815
 5524TIP3    H140767   2.399   0.980  10.390  0.2214  0.7059  1.4494
 5524TIP3    H240768   2.535   1.010  10.329 -0.4984 -0.2715 -0.7465
 5525TIP3   OH240769   2.735   0.902  10.918 -0.0240 -0.1812 -0.5433
 5525TIP3    H140770   2.722   0.881  11.010 -0.9050 -0.2771 -0.6813
 5525TIP3    H240771   2.825   0.934  10.913  1.0473 -2.8588 -0.1335
 5526TIP3   OH240772   4.158   0.270   9.392 -0.3666  0.2312 -0.3234
 5526TIP3    H140773   4.121   0.190   9.431 -0.0634 -0.0898 -0.6824
 5526TIP3    H240774   4.110   0.341   9.434  0.0107 -0.0993  0.6998
 5527TIP3   OH240775   3.474   4.749  11.609 -0.2622  0.0590  0.0484
 5527TIP3    H140776   3.501   4.706  11.528  2.0186  1.4310 -0.0122
 5527TIP3    H240777   3.548   4.737  11.669 -2.0795 -1.3920  2.1989
 5528TIP3   OH240778   4.119   4.127  10.054  0.5328 -0.1162  0.3607
 5528TIP3    H140779   4.196   4.170  10.017  0.8399  0.0705  1.1974
 5528TIP3    H240780   4.074   4.195  10.104  1.4411 -0.8897  2.3465
 5529TIP3   OH240781   3.878   1.636  20.105  1.0223 -0.1665 -0.2493
 5529TIP3    H140782   3.920   1.663  20.187  2.2896 -1.9019 -0.2755
 5529TIP3    H240783   3.809   1.701  20.091  0.3604 -0.1595  2.5119
 5530TIP3   OH240784   6.537   1.232  10.900 -0.0442  0.1661 -0.1574
 5530TIP3    H140785   6.449   1.244  10.863  0.2233 -1.2311 -1.3620
 5530TIP3    H240786   6.522   1.219  10.994 -0.9998  1.0974 -0.1557
 5531TIP3   OH240787   4.664   0.957   9.499 -1.0228 -0.3167 -0.3964
 5531TIP3    H140788   4.651   0.882   9.442 -1.7171 -1.8832  1.7192
 5531TIP3    H240789   4.600   0.946   9.569  0.9055  0.5740  1.6230
 5532TIP3   OH240790   5.073   0.560   9.424  0.1271 -0.4379  0.1648
 5532TIP3    H140791   5.070   0.621   9.498 -1.8333  1.4722 -1.3702
 5532TIP3    H240792   5.150   0.586   9.374 -0.1807  0.1849  0.0125
 5533TIP3   OH240793   6.139   5.353  12.817  0.0315 -0.4955  0.1364
 5533TIP3    H140794   6.136   5.372  12.911  0.3250 -0.3982  0.1283
 5533TIP3    H240795   6.049   5.360  12.787  0.0571  0.3641  0.2347
 5534TIP3   OH240796   0.788   4.471  11.449 -0.4951  0.8443  0.0135
 5534TIP3    H140797   0.811   4.554  11.491 -1.4112  0.3768  1.5440
 5534TIP3    H240798   0.811   4.405  11.514 -0.1135 -0.0841 -1.0415
 5535TIP3   OH240799   2.028   1.869   9.481 -0.2936 -0.5505 -0.5682
 5535TIP3    H140800   1.993   1.956   9.462 -0.1413 -0.5706 -0.9510
 5535TIP3    H240801   2.116   1.886   9.515 -0.8638 -0.4686  0.9254
 5536TIP3   OH240802   3.432   0.729  10.056 -0.2339 -0.3219 -0.0870
 5536TIP3    H140803   3.439   0.679   9.974  3.4581 -1.0825  0.4956
 5536TIP3    H240804   3.471   0.814  10.035  0.6064 -0.4716  0.7885
 5537TIP3   OH240805   6.217   5.458   9.921 -0.3038  0.4270  0.9297
 5537TIP3    H140806   6.254   5.521   9.984  0.4682  0.5448  0.3678
 5537TIP3    H240807   6.253   5.484   9.837 -1.2981  0.2413  0.4267
 5538TIP3   OH240808   1.955   1.054  11.869 -0.2068  0.4121  0.5308
 5538TIP3    H140809   1.960   1.135  11.919 -0.0207  1.0818 -0.5400
 5538TIP3    H240810   1.903   0.995  11.923 -2.1255  1.9267  0.4111
 5539TIP3   OH240811   0.407   3.692  12.038  0.1738 -0.2675  0.0477
 5539TIP3    H140812   0.381   3.667  12.126 -1.7010  0.6314 -0.2204
 5539TIP3    H240813   0.490   3.646  12.024  0.3750 -0.6355  2.1576
 5540TIP3   OH240814   6.321   2.510   9.666 -0.1443  0.3511  0.1954
 5540TIP3    H140815   6.327   2.584   9.606 -1.4542 -0.0717 -0.5063
 5540TIP3    H240816   6.235   2.520   9.707  0.7707  0.6877  2.1125
 5541TIP3   OH240817   1.866   5.282  11.085  0.2801 -0.1878  0.2827
 5541TIP3    H140818   1.794   5.321  11.135 -0.0202  1.4845 -1.3479
 5541TIP3    H240819   1.908   5.356  11.041  1.5353 -1.4026 -0.6609
 5542TIP3   OH240820   2.606   5.571  12.924 -0.6481 -0.1012  0.3826
 5542TIP3    H140821   2.562   5.490  12.947 -0.3532 -0.4609 -0.2838
 5542TIP3    H240822   2.544   5.640  12.947 -0.7175 -0.4802  1.3895
 5543TIP3   OH240823   1.652   6.522  12.181  0.6239  0.1027 -0.2364
 5543TIP3    H140824   1.582   6.585  12.193  0.0026 -0.3211 -1.4648
 5543TIP3    H240825   1.621   6.443  12.225  1.3201  0.5566  1.1370
 5544TIP3   OH240826   4.981   3.142  11.319  0.0646  0.8690  0.0511
 5544TIP3    H140827   4.980   3.059  11.367 -2.7444  0.9248  0.3005
 5544TIP3    H240828   4.994   3.117  11.228 -2.1282 -0.0889 -0.0719
 5545TIP3   OH240829   0.792   2.056  10.092 -0.3557  0.1147 -0.1002
 5545TIP3    H140830   0.784   2.149  10.114  0.5153 -0.0753  1.0883
 5545TIP3    H240831   0.771   2.010  10.173 -2.7788 -0.8391 -1.1552
 5546TIP3   OH240832   0.323   0.098  11.799 -0.6275 -0.2308 -0.0629
 5546TIP3    H140833   0.299   0.179  11.843  0.1509  0.3543 -0.7022
 5546TIP3    H240834   0.239   0.063  11.768 -1.1982 -0.6553  1.8205
 5547TIP3   OH240835   5.176   5.463   9.856  0.0171 -0.0835 -0.1714
 5547TIP3    H140836   5.224   5.449   9.937  0.6259 -1.4649 -0.7213
 5547TIP3    H240837   5.094   5.505   9.882  0.4829  0.0785  1.0673
 5548TIP3   OH240838   3.516   5.187  10.459 -0.1029 -0.4221  0.0313
 5548TIP3    H140839   3.509   5.278  10.428  2.1930 -0.0466  0.4789
 5548TIP3    H240840   3.479   5.135  10.388  0.3124  0.7376 -1.0759
 5549TIP3   OH240841   5.529   0.629  10.637  0.7224  0.1308  0.1762
 5549TIP3    H140842   5.576   0.614  10.556 -2.4768 -2.2487 -1.4712
 5549TIP3    H240843   5.511   0.541  10.672 -0.1467  0.9968  2.0988
 5550TIP3   OH240844   1.631   5.357  12.510  0.0533  0.2792  0.5592
 5550TIP3    H140845   1.637   5.390  12.420 -2.2377 -0.2707  0.1542
 5550TIP3    H240846   1.610   5.265  12.500 -3.2191  0.8019  1.5635
 5551TIP3   OH240847   1.067   3.773  12.380 -0.2768  0.2913 -0.0663
 5551TIP3    H140848   1.153   3.782  12.420  0.1272 -1.5151 -0.4482
 5551TIP3    H240849   1.037   3.863  12.367  1.4668  0.9498  0.2248
 5552TIP3   OH240850   2.399   2.772  10.881 -0.1111 -0.4017  0.1832
 5552TIP3    H140851   2.318   2.724  10.863 -0.8879  1.0476 -0.4272
 5552TIP3    H240852   2.372   2.842  10.941  0.4854  0.5964 -0.6658
 5553TIP3   OH240853   4.998   4.455  10.096  0.2880  0.1024  0.1587
 5553TIP3    H140854   4.969   4.438  10.006 -0.5378  1.4252  0.1453
 5553TIP3    H240855   5.082   4.499  10.086  0.3980 -0.1273  0.0561
 5554TIP3   OH240856   2.052   4.860  10.873 -0.4991 -0.4696 -0.2321
 5554TIP3    H140857   2.041   4.879  10.780  3.7785 -1.9323 -1.2862
 5554TIP3    H240858   2.059   4.946  10.915 -1.1616  0.2202 -1.4820
 5555TIP3   OH240859   0.351   5.853  11.320  0.0556 -0.1201  0.5342
 5555TIP3    H140860   0.419   5.802  11.275  0.7832  0.2139  1.2258
 5555TIP3    H240861   0.392   5.938  11.337 -0.9288  0.4806 -0.0397
 5556TIP3   OH240862   5.363   4.376  12.134 -0.0069  0.0911 -0.4789
 5556TIP3    H140863   5.430   4.443  12.132 -0.3845  0.6025  1.5590
 5556TIP3    H240864   5.361   4.341  12.045  3.6139 -0.6276 -0.4319
 5557TIP3   OH240865   3.857   0.413  10.393  0.1105 -0.1401 -0.0475
 5557TIP3    H140866   3.800   0.417  10.470 -0.4056 -0.0572 -0.4334
 5557TIP3    H240867   3.945   0.431  10.428 -0.2619  0.9415  0.3648
 5558TIP3   OH240868   1.334   6.426  11.200 -0.5116 -0.0554  0.0189
 5558TIP3    H140869   1.251   6.475  11.198  1.5827  3.8642  0.0282
 5558TIP3    H240870   1.343   6.399  11.291 -0.5474  1.9841  0.6783
 5559TIP3   OH240871   6.147   0.171  10.250 -0.1864  0.1865  0.4963
 5559TIP3    H140872   6.058   0.200  10.271  0.1644  1.1234  0.7194
 5559TIP3    H240873   6.151   0.081  10.284 -0.9881  0.1954  0.6393
 5560TIP3   OH240874   4.984   0.635  10.575 -0.0629 -0.4924 -0.1390
 5560TIP3    H140875   5.072   0.662  10.602  0.0202  0.8640 -1.6302
 5560TIP3    H240876   4.993   0.543  10.551  0.7816 -0.5505  0.3810
 5561TIP3   OH240877   6.616   0.653  11.851 -0.0840 -0.2865 -0.3505
 5561TIP3    H140878   6.590   0.742  11.827  1.4801 -0.1045 -1.5918
 5561TIP3    H240879   6.693   0.665  11.907  1.1660 -0.8188 -1.8620
 5562TIP3   OH240880   6.283   1.518  10.867 -0.5667 -0.1250 -0.0291
 5562TIP3    H140881   6.237   1.434  10.876  0.1831 -0.6874 -1.2346
 5562TIP3    H240882   6.347   1.518  10.937  0.4191 -1.2375 -0.8956
 5563TIP3   OH240883   5.769   6.628   9.490  0.5721  0.8022  0.0963
 5563TIP3    H140884   5.731   6.686   9.424  1.4152  0.2494 -0.8994
 5563TIP3    H240885   5.693   6.587   9.532 -0.0198 -0.4459 -1.9986
 5564TIP3   OH240886   1.216   5.058  11.576  0.3162 -0.3281 -0.0387
 5564TIP3    H140887   1.121   5.060  11.564  0.1138  2.6626  1.1122
 5564TIP3    H240888   1.229   5.014  11.660 -0.0753 -0.3942 -0.0122
 5565TIP3   OH240889   0.806   4.779  12.215  0.4536 -0.2673  0.3072
 5565TIP3    H140890   0.872   4.710  12.216  0.9362  0.1861  1.3942
 5565TIP3    H240891   0.796   4.805  12.307 -1.1004 -0.1872  0.1448
 5566TIP3   OH240892   0.667   4.815  12.874  0.3883  0.2198 -0.2037
 5566TIP3    H140893   0.686   4.908  12.888  1.4636 -0.1322  0.8615
 5566TIP3    H240894   0.735   4.786  12.813 -0.2541  0.2309 -0.9419
 5567TIP3   OH240895   2.043   3.672  12.782  0.4865 -0.2644 -1.0098
 5567TIP3    H140896   2.132   3.638  12.794  1.2139  1.2516 -1.8343
 5567TIP3    H240897   2.050   3.765  12.804 -0.6186  0.1510 -2.2951
 5568TIP3   OH240898   0.144   0.489  11.406  0.1454  0.5825  0.6904
 5568TIP3    H140899   0.199   0.459  11.334 -1.1158  2.6343 -1.2487
 5568TIP3    H240900   0.080   0.419  11.418  0.9063 -0.1736  0.4725
 5569TIP3   OH240901   1.756   2.307   9.921 -0.0495  0.1599 -0.0257
 5569TIP3    H140902   1.709   2.389   9.903  1.7852  1.0883 -0.8590
 5569TIP3    H240903   1.725   2.246   9.855 -2.5459 -0.3531  1.5036
 5570TIP3   OH240904   3.557   2.958  10.083 -0.1335 -0.1867  0.3038
 5570TIP3    H140905   3.592   3.002  10.161  0.5670 -0.8446  0.3790
 5570TIP3    H240906   3.627   2.898  10.057 -0.8769 -0.9027 -0.0762
 5571TIP3   OH240907   5.485   2.882  12.623 -0.1965 -0.0786  0.0201
 5571TIP3    H140908   5.414   2.945  12.635  0.7664  0.6575  2.3426
 5571TIP3    H240909   5.538   2.891  12.702  0.9424 -2.5954 -0.3888
 5572TIP3   OH240910   0.088   3.371  12.939  0.6019 -0.0925  0.3036
 5572TIP3    H140911   0.023   3.424  12.985 -0.9963 -0.8858 -0.9268
 5572TIP3    H240912   0.153   3.348  13.006 -0.7831  0.0988  1.7683
 5573TIP3   OH240913   6.246   2.063  11.308  0.0147  0.2979  0.4685
 5573TIP3    H140914   6.324   2.009  11.321  0.1100 -0.2743 -1.9660
 5573TIP3    H240915   6.263   2.142  11.359  2.0638  0.0570  0.2551
 5574TIP3   OH240916   3.742   5.850  12.750 -0.2828 -0.0226 -0.2148
 5574TIP3    H140917   3.806   5.919  12.770 -1.0637  0.4915  0.5849
 5574TIP3    H240918   3.793   5.783  12.704  1.3217 -0.6367  2.2500
 5575TIP3   OH240919   0.753   4.810  12.512 -0.0457 -0.4788 -0.1046
 5575TIP3    H140920   0.821   4.796  12.577 -0.2388 -1.1769 -0.0470
 5575TIP3    H240921   0.676   4.836  12.562 -0.1608 -0.8961 -0.0667
 5576TIP3   OH240922   3.028   2.365  11.696 -0.1222 -0.0497  0.3420
 5576TIP3    H140923   2.994   2.297  11.753 -0.4237 -0.1252  0.0732
 5576TIP3    H240924   2.978   2.356  11.615 -0.6875  0.9737  0.5639
 5577TIP3   OH240925   0.787   1.913  10.360 -0.0882 -0.1975  0.1614
 5577TIP3    H140926   0.875   1.885  10.336 -0.1166 -0.8528  0.7847
 5577TIP3    H240927   0.789   1.920  10.455 -1.0238 -1.3687  0.2946
 5578TIP3   OH240928   1.440   0.538   9.814 -0.5116  0.0078 -0.0603
 5578TIP3    H140929   1.445   0.564   9.722  0.8022  1.6411  0.4340
 5578TIP3    H240930   1.492   0.603   9.860  0.7855 -2.0852  1.5962
 5579TIP3   OH240931   6.663   1.166  12.746 -0.4487 -0.3436 -0.0051
 5579TIP3    H140932   6.752   1.130  12.737 -0.4895 -0.0734 -1.7568
 5579TIP3    H240933   6.669   1.254  12.711 -1.7355 -0.8581 -1.6236
 5580TIP3   OH240934   1.797   1.096  12.257 -0.2490 -0.9088 -0.1590
 5580TIP3    H140935   1.890   1.087  12.280  0.1807  0.8281 -1.0714
 5580TIP3    H240936   1.785   1.189  12.241 -2.5500 -0.8503  1.4327
 5581TIP3   OH240937   4.020   6.563  10.981 -0.3287  0.6361 -0.1786
 5581TIP3    H140938   4.045   6.518  11.062  0.4930 -0.3968 -0.9683
 5581TIP3    H240939   4.046   6.502  10.912 -2.9047  0.5874 -1.1733
 5582TIP3   OH240940   4.581   3.273  11.136  0.2637 -0.2351  0.2069
 5582TIP3    H140941   4.611   3.228  11.215  0.0697 -0.4953  0.1313
 5582TIP3    H240942   4.611   3.218  11.064 -1.1859 -0.9996  0.1493
 5583TIP3   OH240943   4.914   4.636  10.472  0.3810  0.0514 -0.0280
 5583TIP3    H140944   5.010   4.632  10.465  0.2900 -3.0245 -0.7948
 5583TIP3    H240945   4.892   4.573  10.540 -1.1345  0.3758 -0.1949
 5584TIP3   OH240946   1.161   1.659  11.506  0.1376 -0.1735  0.3187
 5584TIP3    H140947   1.210   1.594  11.455 -1.4380 -0.6572 -0.6456
 5584TIP3    H240948   1.173   1.632  11.597  1.6476 -0.2663  0.1107
 5585TIP3   OH240949   1.203   0.139  11.229  0.1289 -0.4341 -0.0230
 5585TIP3    H140950   1.180   0.079  11.158  0.9544 -2.3649  1.2604
 5585TIP3    H240951   1.154   0.218  11.210 -0.2020 -1.1198 -2.3750
 5586TIP3   OH240952   1.589   6.539   9.675  0.0517 -0.4401  0.2144
 5586TIP3    H140953   1.644   6.461   9.675  0.3477 -0.2668  1.8637
 5586TIP3    H240954   1.552   6.543   9.763 -0.6012  0.8311 -0.0919
 5587TIP3   OH240955   4.121   0.959  11.084 -0.1277 -0.3033 -0.2414
 5587TIP3    H140956   4.068   1.037  11.097  0.4645  0.1189 -0.3115
 5587TIP3    H240957   4.138   0.927  11.173 -0.5259 -0.4681 -0.2204
 5588TIP3   OH240958   1.521   4.346  12.758  0.5544 -0.0201 -0.8842
 5588TIP3    H140959   1.521   4.309  12.846 -0.4964  0.3620 -0.6994
 5588TIP3    H240960   1.493   4.437  12.770 -0.1492 -0.1147 -1.6537
 5589TIP3   OH240961   2.682   4.426  12.315  0.1363 -0.4267  0.3895
 5589TIP3    H140962   2.598   4.456  12.281  0.4754 -1.6969 -1.7477
 5589TIP3    H240963   2.660   4.352  12.373 -0.3448  0.8533  1.9113
 5590TIP3   OH240964   5.787   5.555   9.681 -0.5313 -0.7358  0.2297
 5590TIP3    H140965   5.795   5.473   9.729 -0.2554 -1.1699 -0.5589
 5590TIP3    H240966   5.854   5.551   9.613 -0.3204  0.2698  0.3610
 5591TIP3   OH240967   2.472   0.238  11.289 -0.4556  0.1119  0.5360
 5591TIP3    H140968   2.420   0.316  11.269 -0.9882 -0.3413  0.1099
 5591TIP3    H240969   2.407   0.168  11.299 -0.0609 -0.0815  1.9237
 5592TIP3   OH240970   6.239   1.656  10.642 -0.4529  0.1352 -0.0843
 5592TIP3    H140971   6.247   1.610  10.726  1.9296 -1.3966 -1.0196
 5592TIP3    H240972   6.193   1.737  10.663 -0.6452 -0.5581  2.5424
 5593TIP3   OH240973   1.351   1.405  10.489 -0.6519 -0.0145 -0.2601
 5593TIP3    H140974   1.356   1.469  10.418 -0.6509  0.6107  0.2897
 5593TIP3    H240975   1.266   1.363  10.479 -0.2590 -0.6011 -1.1897
 5594TIP3   OH240976   5.915   5.891  11.965  0.7730 -0.6409 -0.2018
 5594TIP3    H140977   5.862   5.951  11.912 -0.2677 -2.6075 -1.5637
 5594TIP3    H240978   6.002   5.897  11.927  0.1612 -1.6096 -1.8816
 5595TIP3   OH240979   5.455   3.525   9.866  0.3590  0.1494  0.6562
 5595TIP3    H140980   5.466   3.614   9.831 -1.9788  0.3082  0.1889
 5595TIP3    H240981   5.361   3.512   9.870  0.5063 -0.9239  4.3837
 5596TIP3   OH240982   0.054   2.341  10.717  0.3953  0.3067  0.0324
 5596TIP3    H140983   0.076   2.430  10.744 -0.6043  0.6975 -0.3706
 5596TIP3    H240984   0.058   2.343  10.621  1.9955 -0.5416  0.0506
 5597TIP3   OH240985   5.975   3.167  11.814 -0.2833  0.6872 -0.0820
 5597TIP3    H140986   5.995   3.201  11.726  0.8529 -0.4752 -0.3072
 5597TIP3    H240987   5.906   3.102  11.799  0.0309  0.3643 -0.1552
 5598TIP3   OH240988   3.255   4.811  12.101  0.1920 -0.1536  0.3298
 5598TIP3    H140989   3.210   4.831  12.019 -0.6064  2.0138  1.2319
 5598TIP3    H240990   3.345   4.838  12.087  0.0621  0.1887  0.1496
 5599TIP3   OH240991   1.957   5.213  12.307 -0.5516  0.2917  0.4857
 5599TIP3    H140992   1.896   5.216  12.234  0.1289 -1.0778 -0.1715
 5599TIP3    H240993   1.989   5.303  12.315 -2.0037  0.8530  0.3151
 5600TIP3   OH240994   5.718   4.389  10.148  0.1110  0.5563 -0.0784
 5600TIP3    H140995   5.808   4.364  10.170  1.1736  2.6970 -1.5391
 5600TIP3    H240996   5.673   4.306  10.134  0.9271 -0.7204  3.7351
 5601TIP3   OH240997   5.125   3.750  11.292 -0.1493  0.0112 -0.0331
 5601TIP3    H140998   5.163   3.666  11.264 -0.1452  0.4354 -1.3876
 5601TIP3    H240999   5.038   3.727  11.324  0.0678 -0.5872  0.1385
 5602TIP3   OH241000   0.187   6.408  12.855  0.4662 -0.4343 -0.1676
 5602TIP3    H141001   0.135   6.473  12.902  1.0375  0.0213 -0.1505
 5602TIP3    H241002   0.271   6.452  12.838  0.2377 -0.5575 -1.7096
 5603TIP3   OH241003   5.335   4.003  10.678  0.2063 -0.1183  0.3827
 5603TIP3    H141004   5.414   3.967  10.637  0.8242 -0.4406  1.7756
 5603TIP3    H241005   5.270   3.935  10.667  0.3650 -0.2099 -0.0267
 5604TIP3   OH241006   0.961   1.001  11.958  0.2683  0.3284 -0.4300
 5604TIP3    H141007   0.972   1.081  12.009 -0.7788  0.7431 -0.8393
 5604TIP3    H241008   0.917   0.940  12.017  2.2517 -0.4483  0.3400
 5605TIP3   OH241009   5.721   4.187  11.072  0.2045 -0.6515  0.2550
 5605TIP3    H141010   5.765   4.214  11.153  0.2176  0.3769 -0.0805
 5605TIP3    H241011   5.708   4.269  11.024  1.6941 -1.3839 -1.5367
 5606TIP3   OH241012   2.406   1.234  10.066  0.2489  0.1018 -0.8437
 5606TIP3    H141013   2.433   1.241  10.157  0.2766 -1.0381 -0.7423
 5606TIP3    H241014   2.426   1.319  10.028  1.6008  0.1345 -0.1402
 5607TIP3   OH241015   2.640   3.066  10.652  0.2144 -0.1666  0.2688
 5607TIP3    H141016   2.700   3.126  10.607 -1.5857  0.6285 -1.2012
 5607TIP3    H241017   2.671   2.979  10.627 -1.0788  0.2040 -3.3109
 5608TIP3   OH241018   6.581   2.415  12.134  0.5143 -0.2210 -0.0403
 5608TIP3    H141019   6.548   2.494  12.177  2.3053  1.4110 -1.4780
 5608TIP3    H241020   6.676   2.429  12.127  0.8427 -2.3550 -0.6792
 5609TIP3   OH241021   0.220   2.949  10.306  0.7694  0.2465  0.2187
 5609TIP3    H141022   0.212   2.999  10.387  0.7060 -1.2823  1.1951
 5609TIP3    H241023   0.314   2.946  10.289  0.9982 -1.2678  1.4868
 5610TIP3   OH241024   1.029   2.152  10.967 -0.5774  0.4016 -0.1976
 5610TIP3    H141025   0.982   2.187  11.043 -0.7895 -0.2067 -0.0461
 5610TIP3    H241026   1.119   2.143  10.996 -0.8100 -0.5946  0.2520
 5611TIP3   OH241027   5.807   0.977   9.627 -0.0809 -0.4416  0.3893
 5611TIP3    H141028   5.757   1.047   9.668  1.9753  0.8701  0.7834
 5611TIP3    H241029   5.845   0.928   9.700  1.7558  0.5425  0.1654
 5612TIP3   OH241030   2.530   6.354  10.817 -0.0529  0.3144 -0.0583
 5612TIP3    H141031   2.604   6.396  10.775 -0.4246  0.8563 -0.1746
 5612TIP3    H241032   2.458   6.415  10.806 -0.6093 -0.3575 -0.2563
 5613TIP3   OH241033   2.110   2.990  11.153 -0.6535 -0.0636  0.3253
 5613TIP3    H141034   2.139   3.023  11.238 -0.3639 -0.7083  0.4798
 5613TIP3    H241035   2.040   3.051  11.126 -1.0813 -0.1367  1.2413
 5614TIP3   OH241036   2.696   5.256  12.437  0.2343  0.1187  0.1549
 5614TIP3    H141037   2.638   5.329  12.415  0.9240  0.7231  0.3283
 5614TIP3    H241038   2.646   5.205  12.501 -1.4962 -1.2392 -2.0931
 5615TIP3   OH241039   2.866   5.160  11.885 -0.4128 -0.4619  0.2157
 5615TIP3    H141040   2.846   5.246  11.923 -0.7780 -0.8447  0.8998
 5615TIP3    H241041   2.859   5.174  11.790  0.3452  0.4607  0.2802
 5616TIP3   OH241042   3.860   0.100  11.658 -0.3742  0.2250 -0.5940
 5616TIP3    H141043   3.847   0.182  11.611 -0.1853  1.2981  1.1302
 5616TIP3    H241044   3.950   0.104  11.689 -0.9811  0.3874  1.2936
 5617TIP3   OH241045   5.138   1.519  11.233  0.4798 -0.3205 -0.1929
 5617TIP3    H141046   5.146   1.598  11.286 -0.6615 -0.4939  0.2751
 5617TIP3    H241047   5.045   1.497  11.238  0.7221 -1.4900 -0.6165
 5618TIP3   OH241048   3.697   0.503  12.162  0.1334  0.2861  0.4234
 5618TIP3    H141049   3.679   0.464  12.077  1.0485  0.0456  0.3375
 5618TIP3    H241050   3.725   0.430  12.218  0.0505  0.5264  0.7879
 5619TIP3   OH241051   6.380   6.292  12.825  0.3879 -0.1044  0.8382
 5619TIP3    H141052   6.322   6.346  12.878  1.2182  2.3603 -0.5967
 5619TIP3    H241053   6.434   6.244  12.889 -2.0769 -1.2839  2.1699
 5620TIP3   OH241054   2.243   4.891  11.765 -0.5398  0.1933 -0.6236
 5620TIP3    H141055   2.281   4.804  11.752 -2.0758 -0.2711 -2.4077
 5620TIP3    H241056   2.154   4.883  11.732 -1.2031  2.0576  0.6063
 5621TIP3   OH241057   4.147   1.290  10.558 -0.2225 -0.9794 -0.1729
 5621TIP3    H141058   4.123   1.218  10.617  1.0461 -1.9302 -0.7729
 5621TIP3    H241059   4.227   1.326  10.596 -1.6350  1.1565  0.9588
 5622TIP3   OH241060   4.458   5.716  11.750 -0.9859  0.1963  0.0042
 5622TIP3    H141061   4.457   5.684  11.840 -1.8094 -1.0087 -0.4114
 5622TIP3    H241062   4.518   5.657  11.703  0.6983  1.7710  0.0599
 5623TIP3   OH241063   3.291   2.952  12.257  0.0642 -0.0493 -0.2805
 5623TIP3    H141064   3.287   3.043  12.228 -0.7498 -0.8379 -2.9729
 5623TIP3    H241065   3.204   2.933  12.291 -0.5345 -0.4144 -1.9242
 5624TIP3   OH241066   3.173   1.166  10.060 -0.2112 -0.1838  0.5167
 5624TIP3    H141067   3.109   1.109  10.018 -0.3838  0.8929 -0.7448
 5624TIP3    H241068   3.245   1.172   9.998  0.7398 -0.6430  1.5289
 5625TIP3   OH241069   0.356   5.243  11.921  0.0430 -0.2039 -0.3662
 5625TIP3    H141070   0.402   5.273  11.843 -1.1192  0.9094 -0.6508
 5625TIP3    H241071   0.416   5.181  11.962  0.4480 -1.2620 -2.4385
 5626TIP3   OH241072   0.659   2.987  11.274  0.0273 -0.0599 -0.0003
 5626TIP3    H141073   0.597   2.950  11.210  2.0431 -0.3308 -1.9104
 5626TIP3    H241074   0.743   2.947  11.252  1.5128  2.5359  0.5045
 5627TIP3   OH241075   3.193   0.085  10.399  0.3025 -0.0292 -0.1880
 5627TIP3    H141076   3.162   0.027  10.468 -0.6175  1.3622  0.6046
 5627TIP3    H241077   3.274   0.123  10.435  0.2045  0.1597 -0.1675
 5628TIP3   OH241078   6.555   1.306  12.207 -0.5372  0.6778  0.3794
 5628TIP3    H141079   6.484   1.247  12.180  0.6001  0.4731 -2.6120
 5628TIP3    H241080   6.525   1.393  12.181  0.5397  0.4890 -1.7950
 5629TIP3   OH241081   5.472   4.922  10.704 -0.3179 -0.2525  0.4845
 5629TIP3    H141082   5.409   4.849  10.710 -0.1363 -0.6848 -1.8210
 5629TIP3    H241083   5.434   4.990  10.759 -2.4309 -0.8013 -0.1687
 5630TIP3   OH241084   5.061   1.596  11.531  0.1459 -0.0593 -0.0344
 5630TIP3    H141085   5.010   1.649  11.469  1.5671  0.1292 -1.1139
 5630TIP3    H241086   5.026   1.508  11.522  0.2259 -0.0014 -1.0135
 5631TIP3   OH241087   0.296   4.730  10.568  0.2757  0.0251 -0.2557
 5631TIP3    H141088   0.289   4.642  10.530  1.5392 -0.9407  1.6055
 5631TIP3    H241089   0.335   4.783  10.497 -3.2961 -0.0308 -2.5122
 5632TIP3   OH241090   4.498   4.629   9.483 -0.4078 -0.4728 -0.1287
 5632TIP3    H141091   4.563   4.574   9.527 -0.4503 -0.3691  0.0625
 5632TIP3    H241092   4.416   4.612   9.530 -0.8369 -1.6906 -1.2587
 5633TIP3   OH241093   1.418   0.015  12.268  0.0927  0.6685  0.5243
 5633TIP3    H141094   1.380   0.079  12.208 -0.2978 -0.8426 -0.9187
 5633TIP3    H241095   1.343  -0.021  12.316 -0.2095 -1.0843 -1.1107
 5634TIP3   OH241096   1.033   5.024  10.418  0.2901 -0.0685 -0.0681
 5634TIP3    H141097   1.042   5.029  10.322  0.5316  0.1277 -0.0347
 5634TIP3    H241098   1.046   5.113  10.448  0.2290 -0.1334  0.1531
 5635TIP3   OH241099   6.078   0.520  11.202 -0.5793  0.2127  0.2152
 5635TIP3    H141100   6.114   0.524  11.114 -1.0889  1.2470  0.0423
 5635TIP3    H241101   6.066   0.426  11.219  0.8232 -0.0722 -0.2679
 5636TIP3   OH241102   4.361   4.744   9.957 -0.0716  0.2798 -0.1048
 5636TIP3    H141103   4.450   4.728   9.926 -0.3444 -0.6705 -0.4405
 5636TIP3    H241104   4.371   4.767  10.049  0.6002  1.2583 -0.4061
 5637TIP3   OH241105   5.492   5.098  11.562  0.6717 -0.3968  0.3060
 5637TIP3    H141106   5.523   5.163  11.625 -1.9980  1.6988 -0.3618
 5637TIP3    H241107   5.572   5.062  11.523  2.2943  1.7012  1.4930
 5638TIP3   OH241108   0.665   2.004  11.699 -0.1964 -1.1503  0.3916
 5638TIP3    H141109   0.571   2.004  11.718 -0.3552  1.8228  0.0781
 5638TIP3    H241110   0.672   1.962  11.614 -1.4118 -0.4509 -0.0805
 5639TIP3   OH241111   0.057   6.521  12.516  0.6730 -0.5181  0.0042
 5639TIP3    H141112   0.120   6.582  12.555 -1.9696  0.6546  2.8236
 5639TIP3    H241113   0.089   6.434  12.541  0.5383  0.1053  2.6560
 5640TIP3   OH241114   0.876   0.133  10.933  0.0581  0.1934  0.0061
 5640TIP3    H141115   0.865   0.117  10.839 -0.9325 -1.0958  0.3149
 5640TIP3    H241116   0.963   0.098  10.953 -0.2400 -0.7128 -0.2117
 5641TIP3   OH241117   3.705   3.338  10.635 -0.0062  0.0677 -0.1923
 5641TIP3    H141118   3.708   3.315  10.542  1.4377  1.8603 -0.6340
 5641TIP3    H241119   3.777   3.289  10.674 -0.2906 -0.2885 -0.1127
 5642TIP3   OH241120   2.334   0.909  12.429 -0.2525  0.4450  0.0788
 5642TIP3    H141121   2.245   0.926  12.457 -0.4244 -1.6387  0.9835
 5642TIP3    H241122   2.381   0.991  12.446 -1.6370  1.0696  1.0592
 5643TIP3   OH241123   2.651   0.174  11.037  0.0368  0.0091 -0.1029
 5643TIP3    H141124   2.642   0.194  11.130  0.9913 -0.2465  0.0580
 5643TIP3    H241125   2.563   0.149  11.009 -0.1791 -0.3135  0.8299
 5644TIP3   OH241126   5.432   6.578  11.737 -0.6840 -0.1972 -0.1507
 5644TIP3    H141127   5.357   6.522  11.758 -0.4056 -0.7936 -0.6881
 5644TIP3    H241128   5.394   6.649  11.684 -1.7171  2.3739  3.6560
 5645TIP3   OH241129   1.413   1.463  11.174  0.6807  0.1254  0.0328
 5645TIP3    H141130   1.491   1.408  11.186  0.0892 -0.3571  2.0017
 5645TIP3    H241131   1.401   1.467  11.079  1.4367 -2.1438 -0.2109
 5646TIP3   OH241132   2.647   2.806  11.605  0.3149 -0.4937  0.2922
 5646TIP3    H141133   2.640   2.710  11.603 -0.9886 -0.4223 -1.4453
 5646TIP3    H241134   2.578   2.834  11.664  0.0256 -0.6056  0.0130
 5647TIP3   OH241135   1.972   4.768   9.826  0.1551  0.2631 -0.5578
 5647TIP3    H141136   1.972   4.820   9.906 -0.5613  0.0241 -0.3899
 5647TIP3    H241137   1.882   4.737   9.818  0.1455  0.5014 -1.5999
 5648TIP3   OH241138   5.638   0.658  10.366 -0.4344  0.0088  0.2255
 5648TIP3    H141139   5.716   0.661  10.311 -0.7354 -1.2133 -0.3058
 5648TIP3    H241140   5.565   0.663  10.305 -0.8670  2.8667  0.8071
 5649TIP3   OH241141   1.252   0.519  10.034 -0.7934 -0.3952  0.6191
 5649TIP3    H141142   1.297   0.443  10.071 -2.0292 -0.6125  1.7060
 5649TIP3    H241143   1.284   0.523   9.944  1.9451 -0.1115  1.5148
 5650TIP3   OH241144   0.417   0.183   9.515  0.0687 -0.0301  0.2632
 5650TIP3    H141145   0.451   0.160   9.602 -1.0685  1.5410  1.1747
 5650TIP3    H241146   0.388   0.273   9.524  1.7553  0.9028 -2.3262
 5651TIP3   OH241147   5.494   1.757  12.587  0.0629  0.3359  0.2650
 5651TIP3    H141148   5.552   1.682  12.575  1.5649  1.2888  1.1762
 5651TIP3    H241149   5.417   1.722  12.631  0.7817 -0.6544  0.7494
 5652TIP3   OH241150   5.603   3.814  10.336 -0.5064  0.3509  0.5130
 5652TIP3    H141151   5.525   3.783  10.383 -0.2803 -0.5712  0.3122
 5652TIP3    H241152   5.578   3.900  10.302 -1.0818  0.5207  1.3154
 5653TIP3   OH241153   3.960   3.254  11.393 -0.6727 -0.0469 -0.4626
 5653TIP3    H141154   3.950   3.172  11.440  2.6470 -0.4271 -0.2167
 5653TIP3    H241155   3.980   3.319  11.461  1.4363 -0.0541 -1.0113
 5654TIP3   OH241156   3.537   4.719  12.732 -0.2352 -0.1711 -0.2493
 5654TIP3    H141157   3.502   4.634  12.760  1.3063 -0.9155 -0.4729
 5654TIP3    H241158   3.568   4.759  12.813 -0.9787  0.2084 -0.1410
 5655TIP3   OH241159   4.755   0.848  10.108  0.7769  0.0917  0.0989
 5655TIP3    H141160   4.806   0.769  10.090  1.6532  1.1173 -2.3393
 5655TIP3    H241161   4.809   0.920  10.074 -0.5972  1.6187  0.9827
 5656TIP3   OH241162   2.731   3.998   9.958  0.1841 -0.5670 -0.6010
 5656TIP3    H141163   2.714   3.969  10.047 -0.5242  0.7677 -0.2646
 5656TIP3    H241164   2.802   4.062   9.966  1.0776 -1.4620 -1.1903
 5657TIP3   OH241165   4.058   4.487  11.298  0.7596 -0.2619 -0.1143
 5657TIP3    H141166   4.001   4.410  11.289  0.6765 -0.4519  1.7213
 5657TIP3    H241167   4.142   4.451  11.325  0.7075  0.2813  0.8070
 5658TIP3   OH241168   2.975   3.510  10.604  0.2528  0.5899  0.4655
 5658TIP3    H141169   2.972   3.538  10.512  0.1230  1.7933  0.8217
 5658TIP3    H241170   3.064   3.531  10.632  0.3615  0.0216  0.5654
 5659TIP3   OH241171   5.710   5.450  12.118 -0.1154 -0.0057 -0.1224
 5659TIP3    H141172   5.773   5.511  12.080  0.0789  0.1809  0.4936
 5659TIP3    H241173   5.718   5.371  12.064  0.8036 -0.0648  0.0825
 5660TIP3   OH241174   4.852   4.896  10.622 -0.0189 -0.0642  0.2965
 5660TIP3    H141175   4.894   4.837  10.685  0.6324  0.8709  0.7591
 5660TIP3    H241176   4.796   4.839  10.569  3.2769 -1.8149 -1.6661
 5661TIP3   OH241177   6.329   2.403  11.958 -0.2232 -0.6350 -0.2378
 5661TIP3    H141178   6.282   2.376  12.036 -0.6540 -0.9266 -0.5931
 5661TIP3    H241179   6.399   2.337  11.949 -0.2982 -0.7180 -0.2133
 5662TIP3   OH241180   2.304   6.510  10.818  0.1572 -0.4661 -0.2734
 5662TIP3    H141181   2.236   6.567  10.782  3.2354  3.5858 -0.4036
 5662TIP3    H241182   2.297   6.523  10.913  1.1903  0.6521 -0.3308
 5663TIP3   OH241183   5.656   5.314  10.779  0.4961 -0.6134  0.4218
 5663TIP3    H141184   5.697   5.396  10.751  0.4217 -0.9241 -0.6717
 5663TIP3    H241185   5.585   5.342  10.837 -1.3517  0.3667 -2.0954
 5664TIP3   OH241186   4.199   6.244   9.735  0.5820  0.6228  0.1848
 5664TIP3    H141187   4.272   6.240   9.673  0.9414  0.3778  0.6200
 5664TIP3    H241188   4.170   6.153   9.744 -0.5654  0.8536 -0.8962
 5665TIP3   OH241189   4.790   3.639  11.635 -0.1837  0.3211  0.1072
 5665TIP3    H141190   4.803   3.720  11.586 -1.6995  1.2438  1.1675
 5665TIP3    H241191   4.696   3.632  11.647 -0.1555 -1.9089 -0.4050
 5666TIP3   OH241192   0.952   5.644  11.374 -0.3513 -0.1915 -0.0950
 5666TIP3    H141193   1.042   5.655  11.404  0.2867 -0.2476 -1.9104
 5666TIP3    H241194   0.928   5.555  11.402  0.6324 -0.6773 -0.7478
 5667TIP3   OH241195   0.472   3.085   9.520 -0.4011 -0.1966  0.2736
 5667TIP3    H141196   0.411   3.086   9.594 -1.6888 -0.7047 -0.7290
 5667TIP3    H241197   0.427   3.034   9.452 -0.1279  1.8334 -1.5611
 5668TIP3   OH241198   0.490   3.586   9.418  0.3887  0.4076  0.1892
 5668TIP3    H141199   0.478   3.666   9.368 -0.4381  0.2058  0.0506
 5668TIP3    H241200   0.402   3.551   9.429  0.7994 -0.8604 -0.3703
 5669TIP3   OH241201   2.956   5.436  10.547  0.4984 -0.3903  0.3074
 5669TIP3    H141202   2.934   5.510  10.490 -3.3274 -0.8314  0.9488
 5669TIP3    H241203   2.982   5.366  10.486  0.6318  0.3988 -0.5677
 5670TIP3   OH241204   4.986   6.653   9.411 -0.5331 -0.4455  0.2069
 5670TIP3    H141205   4.899   6.625   9.381 -0.5349  0.6614 -0.9165
 5670TIP3    H241206   5.047   6.593   9.367 -0.7106 -1.4273  1.2431
 5671TIP3   OH241207   4.176   4.386  10.993 -0.2105  0.1058 -0.1300
 5671TIP3    H141208   4.206   4.356  11.079 -0.1795 -0.8025 -0.4504
 5671TIP3    H241209   4.218   4.327  10.930 -1.4085 -0.1928 -0.6790
 5672TIP3   OH241210   5.255   1.029  13.217  0.2688  0.0528  0.4327
 5672TIP3    H141211   5.343   1.008  13.250 -0.2014 -1.7925  0.6412
 5672TIP3    H241212   5.230   0.951  13.167  0.0325  1.8338 -2.4044
 5673TIP3   OH241213   2.159   5.564  12.116  0.6513 -0.2862 -0.1632
 5673TIP3    H141214   2.236   5.620  12.103  1.6438 -1.8268 -1.3034
 5673TIP3    H241215   2.191   5.475  12.101 -0.7283 -1.2715  2.2356
 5674TIP3   OH241216   6.019   1.391  12.122  0.5698  0.2838  0.0895
 5674TIP3    H141217   5.990   1.359  12.208 -0.1990  0.8893  0.0702
 5674TIP3    H241218   6.021   1.487  12.132  1.9323  0.2994 -0.1231
 5675TIP3   OH241219   5.498   5.172  10.039  0.1408  0.1355  0.2611
 5675TIP3    H141220   5.452   5.244  10.081 -2.7362 -1.4813  0.1264
 5675TIP3    H241221   5.551   5.134  10.109  0.2360  1.2193  0.7977
 5676TIP3   OH241222   4.540   1.651  11.870  0.3739  0.6167  0.1624
 5676TIP3    H141223   4.514   1.563  11.842  1.4951 -0.1710  1.4502
 5676TIP3    H241224   4.459   1.690  11.903  0.2460 -0.8601  1.7927
 5677TIP3   OH241225   4.722   6.510  12.046 -0.1612 -0.3038 -0.3680
 5677TIP3    H141226   4.784   6.528  11.975  1.2179  0.1033  0.9084
 5677TIP3    H241227   4.766   6.541  12.125 -1.8495 -0.3462  0.6274
 5678TIP3   OH241228   2.478   5.170  10.605 -0.4821  0.2121  0.0504
 5678TIP3    H141229   2.560   5.218  10.604  0.1629 -0.8436 -1.1200
 5678TIP3    H241230   2.462   5.148  10.513 -1.8742  0.0506  0.3067
 5679TIP3   OH241231   3.334   5.806  10.747  0.1123 -0.0218  0.5281
 5679TIP3    H141232   3.355   5.714  10.737  2.4332  0.3783  1.1287
 5679TIP3    H241233   3.405   5.852  10.703 -1.6902  1.5164 -0.9437
 5680TIP3   OH241234   5.375   5.039  10.929  0.5011 -0.2593 -0.3641
 5680TIP3    H141235   5.325   5.095  10.989  0.0646 -0.5771 -0.4295
 5680TIP3    H241236   5.449   5.009  10.981 -0.9202 -2.1520  0.6789
 5681TIP3   OH241237   2.701   1.704  10.580  0.0921  0.6004  0.2591
 5681TIP3    H141238   2.743   1.673  10.660 -0.4390 -0.0521  0.2939
 5681TIP3    H241239   2.767   1.694  10.512 -0.2683 -1.2195  0.1461
 5682TIP3   OH241240   2.606   4.308  10.447  0.4129 -0.6333 -0.3130
 5682TIP3    H141241   2.544   4.271  10.385  0.6382  0.6042 -1.3159
 5682TIP3    H241242   2.649   4.232  10.486 -1.7448 -1.5366  0.4743
 5683TIP3   OH241243   6.142   5.415  11.595 -0.5616  0.2685 -0.0000
 5683TIP3    H141244   6.155   5.416  11.500 -1.2938 -0.0641 -0.1148
 5683TIP3    H241245   6.124   5.323  11.616  4.1494 -0.6250  1.1740
 5684TIP3   OH241246   1.047   0.596   9.192  0.1356 -0.5287  0.4660
 5684TIP3    H141247   1.079   0.602   9.282 -0.7601 -3.0356  1.0197
 5684TIP3    H241248   1.114   0.547   9.146  0.0116 -0.3209  0.0579
 5685TIP3   OH241249   0.812   0.109  10.657 -0.2443 -0.5462 -0.1685
 5685TIP3    H141250   0.826   0.191  10.610 -2.7121 -0.4534 -0.8805
 5685TIP3    H241251   0.790   0.045  10.589 -0.3625 -1.2958  0.5484
 5686TIP3   OH241252   1.779   0.243  10.410 -0.5424 -0.1193 -0.0504
 5686TIP3    H141253   1.856   0.282  10.452  0.2175 -0.3888 -1.1519
 5686TIP3    H241254   1.748   0.310  10.349 -2.1689  0.6160  1.4880
 5687TIP3   OH241255   5.786   0.873  11.267 -0.3177  0.2210 -0.0474
 5687TIP3    H141256   5.748   0.961  11.270 -0.2636  0.2234  0.9461
 5687TIP3    H241257   5.763   0.840  11.180 -0.5106  1.1382 -0.3571
 5688TIP3   OH241258   4.096   0.162  11.894  0.4828 -0.2956 -0.2872
 5688TIP3    H141259   4.014   0.186  11.939  1.4254 -0.3924  1.5616
 5688TIP3    H241260   4.140   0.102  11.954  1.6914 -0.6805 -1.4969
 5689TIP3   OH241261   5.265   6.009  12.639 -0.0904 -0.0580 -0.7290
 5689TIP3    H141262   5.208   6.048  12.573 -0.9693 -0.0448  0.0281
 5689TIP3    H241263   5.273   6.076  12.707 -0.5908 -0.7100 -0.0119
 5690TIP3   OH241264   6.364   1.560   9.949  0.2230 -0.3517 -0.4670
 5690TIP3    H141265   6.394   1.570  10.039 -0.2442  0.1185 -0.3580
 5690TIP3    H241266   6.441   1.530   9.901  0.2437 -1.5316  0.2580
 5691TIP3   OH241267   0.830   3.508  11.521 -0.3550 -0.5969 -0.3692
 5691TIP3    H141268   0.893   3.436  11.529  0.9036  0.4800 -0.3104
 5691TIP3    H241269   0.841   3.558  11.602 -1.4957 -0.5302 -0.2343
 5692TIP3   OH241270   0.643   0.145  12.697  0.1037  0.4683 -0.7109
 5692TIP3    H141271   0.663   0.234  12.726 -0.4180  0.2225  0.4694
 5692TIP3    H241272   0.728   0.105  12.682  0.3742  0.7991 -0.0879
 5693TIP3   OH241273   2.926   6.624  11.654 -0.5511 -0.1132 -0.6317
 5693TIP3    H141274   2.975   6.703  11.676 -1.6157  0.3514  0.1627
 5693TIP3    H241275   2.956   6.559  11.717 -1.4325  0.3675  0.3063
 5694TIP3   OH241276   3.730   2.423  10.417  0.3309  0.2063  0.2187
 5694TIP3    H141277   3.740   2.375  10.500 -0.0430  0.3091  0.3274
 5694TIP3    H241278   3.636   2.421  10.400  0.4895 -0.5416 -0.6454
 5695TIP3   OH241279   2.887   1.342   9.729  0.2287 -0.0230 -0.2933
 5695TIP3    H141280   2.954   1.384   9.783 -0.2224 -0.6256  0.7666
 5695TIP3    H241281   2.827   1.301   9.792  0.3181 -1.7354 -1.2701
 5696TIP3   OH241282   2.631   4.247  12.507 -0.1932 -0.3078 -0.8877
 5696TIP3    H141283   2.543   4.214  12.523 -1.2875  1.6756 -2.4286
 5696TIP3    H241284   2.679   4.172  12.473 -0.9087 -1.7074  1.0059
 5697TIP3   OH241285   0.033   2.031  10.100 -0.8474 -0.7231 -0.4317
 5697TIP3    H141286   0.057   2.078  10.179 -0.8378  0.1238 -0.9326
 5697TIP3    H241287   0.076   2.078  10.029 -0.3751 -1.8067 -0.8971
 5698TIP3   OH241288   0.334   2.599  10.505  0.1729  0.0037  0.0028
 5698TIP3    H141289   0.257   2.580  10.560  0.5088  0.4478  0.6357
 5698TIP3    H241290   0.299   2.605  10.416 -0.8613  2.1305  0.4997
 5699TIP3   OH241291   5.177   4.563   9.650 -0.3883 -0.2757  0.3845
 5699TIP3    H141292   5.235   4.490   9.668  0.0359 -0.3500 -1.1452
 5699TIP3    H241293   5.103   4.550   9.709  1.2334  0.0006  2.6040
 5700TIP3   OH241294   1.409   0.922  10.310  0.3694  0.5848 -0.2897
 5700TIP3    H141295   1.443   1.010  10.322  2.2468  0.0379 -1.1128
 5700TIP3    H241296   1.479   0.865  10.344 -0.2842 -0.5865 -0.8481
 5701TIP3   OH241297   6.080   2.284  10.116  0.5922  0.2172 -0.3579
 5701TIP3    H141298   6.151   2.222  10.131  0.8655  0.2999 -1.2456
 5701TIP3    H241299   6.117   2.369  10.141  0.3531  0.0954  0.4584
 5702TIP3   OH241300   0.620   5.097  10.657  0.2484  0.6700  0.0454
 5702TIP3    H141301   0.578   5.180  10.634 -1.1570 -0.5725 -2.2553
 5702TIP3    H241302   0.551   5.045  10.698  0.3908 -0.2414 -0.8300
 5703TIP3   OH241303   5.555   0.607   9.453  0.5120 -0.3159  0.4378
 5703TIP3    H141304   5.600   0.685   9.419  0.4921  0.6445  2.4400
 5703TIP3    H241305   5.463   0.625   9.437  0.4336  0.5339  1.6606
 5704TIP3   OH241306   0.542   4.727  12.138  0.3071 -0.4372  0.5417
 5704TIP3    H141307   0.549   4.674  12.059 -1.4777 -0.3766  0.3171
 5704TIP3    H241308   0.633   4.753  12.157  0.7460 -0.1250 -1.6996
 5705TIP3   OH241309   2.514   1.776  10.326 -0.0319  0.2970  0.3278
 5705TIP3    H141310   2.439   1.816  10.282  0.4876  1.0809  0.1327
 5705TIP3    H241311   2.488   1.685  10.339 -1.5978  0.8592  1.5665
 5706TIP3   OH241312   6.470   5.672  12.793 -0.5663 -0.4857  0.0547
 5706TIP3    H141313   6.462   5.631  12.879 -0.0297 -1.4874 -0.3525
 5706TIP3    H241314   6.415   5.750  12.798 -0.9360 -0.7985  1.1366
 5707TIP3   OH241315   0.478   5.577   9.902  0.5573  0.1261 -0.4862
 5707TIP3    H141316   0.543   5.507   9.892  0.1678 -0.3693  0.2830
 5707TIP3    H241317   0.394   5.533   9.897  0.2855  0.6841 -0.9285
 5708TIP3   OH241318   5.383   0.625  13.534  0.1134 -0.1861 -0.0449
 5708TIP3    H141319   5.342   0.611  13.449 -0.4698 -0.2304  0.2404
 5708TIP3    H241320   5.438   0.702  13.521 -0.1085 -0.0871 -0.4167
 5709TIP3   OH241321   2.719   3.826  12.081 -0.1657  0.4116 -0.4073
 5709TIP3    H141322   2.666   3.749  12.100  0.2041  0.4947  1.0695
 5709TIP3    H241323   2.792   3.821  12.143  2.1281 -0.2045 -2.9444
 5710TIP3   OH241324   1.050   3.369  10.945  0.6750  0.0056 -0.0586
 5710TIP3    H141325   0.983   3.301  10.956  1.4241 -0.7131  0.1060
 5710TIP3    H241326   1.004   3.451  10.965 -0.0470 -0.5185  0.4903
 5711TIP3   OH241327   3.750   4.413  12.900 -0.0212 -0.4315 -0.1965
 5711TIP3    H141328   3.843   4.393  12.915 -0.3409 -0.9555  1.2853
 5711TIP3    H241329   3.709   4.327  12.888 -0.5054 -0.2989  0.4529
 5712TIP3   OH241330   5.834   1.549  10.528  0.6192 -0.3882 -0.5444
 5712TIP3    H141331   5.789   1.497  10.462 -0.3426  1.4329 -1.4000
 5712TIP3    H241332   5.825   1.639  10.497 -0.2552  0.5869  2.2850
 5713TIP3   OH241333   3.309   1.935  10.194  0.5209  0.5619 -0.6173
 5713TIP3    H141334   3.309   2.026  10.225  0.3033  0.0279  1.0250
 5713TIP3    H241335   3.219   1.905  10.210  0.4971  0.1540 -1.4793
 5714TIP3   OH241336   1.418   0.824   0.881 -0.1247 -0.9265 -0.4431
 5714TIP3    H141337   1.380   0.754   0.829 -0.8058  0.1101 -1.4003
 5714TIP3    H241338   1.347   0.854   0.938 -0.9186  1.1403 -2.3662
 5715TIP3   OH241339   5.480   6.597  11.425 -0.3802 -0.0733  0.1720
 5715TIP3    H141340   5.533   6.521  11.400 -0.6084 -0.5072  0.9549
 5715TIP3    H241341   5.544   6.661  11.458 -0.1648  0.1734 -0.7081
 5716TIP3   OH241342   1.987   3.781  13.161 -0.0597 -0.9451 -0.4238
 5716TIP3    H141343   2.011   3.873  13.151  5.0384 -2.0474 -0.7013
 5716TIP3    H241344   1.918   3.767  13.095  0.2140  2.2503 -1.5502
 5717TIP3   OH241345   2.410   5.685  12.114 -0.2414  0.5370  0.4166
 5717TIP3    H141346   2.431   5.764  12.165 -0.7691  1.5960 -0.9270
 5717TIP3    H241347   2.488   5.631  12.120  1.1194  2.2694 -0.5798
 5718TIP3   OH241348   6.627   0.843  12.162 -0.1493  0.6049  0.0409
 5718TIP3    H141349   6.691   0.907  12.132 -0.7548  0.5034 -1.5397
 5718TIP3    H241350   6.544   0.870  12.122 -0.6651 -0.4526  0.3473
 5719TIP3   OH241351   5.491   0.815  12.665 -0.5508  0.0138 -0.4201
 5719TIP3    H141352   5.501   0.821  12.760 -4.1582 -1.4051  0.2095
 5719TIP3    H241353   5.478   0.721  12.649 -1.2376  0.3752 -2.1398
 5720TIP3   OH241354   4.449   6.197   9.572  0.5065  0.8796  0.2037
 5720TIP3    H141355   4.448   6.120   9.517 -0.2970  0.0798  1.2806
 5720TIP3    H241356   4.501   6.261   9.524 -1.0142  0.6003 -1.9595
 5721TIP3   OH241357   4.930   2.896  11.433  0.1594  0.3963 -0.4331
 5721TIP3    H141358   4.887   2.844  11.366 -0.2669  1.1620 -0.7703
 5721TIP3    H241359   5.007   2.845  11.458 -0.5258 -0.6255 -0.3798
 5722TIP3   OH241360   1.651   2.523  10.217  0.2541 -0.0183  0.4788
 5722TIP3    H141361   1.583   2.566  10.165 -0.3158 -0.4478  0.8519
 5722TIP3    H241362   1.732   2.541  10.170  0.2000  2.4107  1.2149
 5723TIP3   OH241363   2.230   6.417  12.275  0.5079 -0.3679  0.0367
 5723TIP3    H141364   2.249   6.509  12.257  0.3756 -0.1248  1.0451
 5723TIP3    H241365   2.205   6.380  12.191  0.0167  0.6536 -0.2771
 5724TIP3   OH241366   1.018   4.979   9.889 -0.1762  0.1135 -0.3357
 5724TIP3    H141367   1.026   5.007   9.798 -0.2563 -0.2904 -0.4661
 5724TIP3    H241368   0.988   4.888   9.884  1.8904 -0.6460  0.0324
 5725TIP3   OH241369   1.651   0.056  13.101 -0.2173  0.4186 -0.6106
 5725TIP3    H141370   1.611  -0.030  13.108 -0.7929  0.5460 -2.1059
 5725TIP3    H241371   1.642   0.094  13.188 -3.3978  0.4586 -0.8726
 5726TIP3   OH241372   4.587   2.785  10.636  0.2333 -0.3854  0.0281
 5726TIP3    H141373   4.501   2.762  10.602  0.2462 -0.7549  0.2489
 5726TIP3    H241374   4.611   2.864  10.587  1.3042 -2.2024 -2.6706
 5727TIP3   OH241375   0.753   3.592   9.541 -0.7881  0.7693  0.2058
 5727TIP3    H141376   0.770   3.686   9.551 -2.6646  0.9591  2.8098
 5727TIP3    H241377   0.669   3.588   9.494  0.9635  0.1678 -3.1898
 5728TIP3   OH241378   0.226   1.553  11.606  0.3065 -0.2779 -0.0318
 5728TIP3    H141379   0.294   1.487  11.596  1.1115  0.8271 -2.5189
 5728TIP3    H241380   0.265   1.633  11.573 -1.8699  0.6213 -0.5624
 5729TIP3   OH241381   1.801   3.071  10.551 -0.3174 -0.2577 -0.2030
 5729TIP3    H141382   1.761   3.029  10.474  1.4451  0.5027 -1.6172
 5729TIP3    H241383   1.828   3.157  10.519 -1.7530  1.0928  2.0052
 5730TIP3   OH241384   6.045   4.608  12.303  0.1468  0.4862  0.1118
 5730TIP3    H141385   6.122   4.587  12.355 -0.6700  0.2427  1.2731
 5730TIP3    H241386   5.989   4.659  12.363 -1.2715 -0.6729 -0.1715
 5731TIP3   OH241387   2.991   1.670  11.629 -0.6690  0.7558  0.1321
 5731TIP3    H141388   3.072   1.721  11.622 -0.8410  1.0923  0.5570
 5731TIP3    H241389   2.946   1.684  11.546 -1.1826  2.0984  0.6180
 5732TIP3   OH241390   3.041   2.045   9.634  0.0741 -0.2660 -0.0141
 5732TIP3    H141391   3.022   1.972   9.575 -3.7798 -0.7757  1.5248
 5732TIP3    H241392   2.982   2.114   9.605  0.6688  0.7240  1.0793
 5733TIP3   OH241393   3.463   4.430  10.337 -0.4705 -0.4564  0.2608
 5733TIP3    H141394   3.369   4.429  10.354 -0.3042  0.8503  1.4175
 5733TIP3    H241395   3.494   4.511  10.376  1.1818 -0.9494  0.0646
 5734TIP3   OH241396   5.255   6.580  12.523  0.5766  0.0351  0.3376
 5734TIP3    H141397   5.307   6.617  12.595  1.2669  0.1193 -0.1967
 5734TIP3    H241398   5.274   6.487  12.525  2.3909  0.3253 -1.1382
 5735TIP3   OH241399   3.945   5.655  11.625  0.0287  0.6175 -0.2246
 5735TIP3    H141400   4.016   5.715  11.647  0.1162  0.3779  0.1529
 5735TIP3    H241401   3.976   5.569  11.654 -0.3818  0.4986 -0.1366
 5736TIP3   OH241402   3.740   5.337  11.421  0.1563 -0.1133  0.0615
 5736TIP3    H141403   3.753   5.412  11.363  0.4611 -0.2832 -0.0909
 5736TIP3    H241404   3.686   5.276  11.371  1.1066 -0.6195 -0.3618
 5737TIP3   OH241405   1.458   5.902  13.304  0.5813 -0.0921 -0.6006
 5737TIP3    H141406   1.447   5.902  13.399  1.6394 -0.7285 -0.4595
 5737TIP3    H241407   1.552   5.915  13.290  1.0024 -3.0851 -1.4277
 5738TIP3   OH241408   3.821   0.038   9.741 -0.3132  0.3527 -0.2331
 5738TIP3    H141409   3.795   0.114   9.792  0.1298  0.3161  0.0476
 5738TIP3    H241410   3.808   0.065   9.650 -1.1290  0.4071 -0.1102
 5739TIP3   OH241411   1.538   1.361   9.671  0.0052  0.2707  0.0622
 5739TIP3    H141412   1.481   1.389   9.743 -1.8000  0.2510 -1.2849
 5739TIP3    H241413   1.582   1.442   9.643  0.2430  0.3919  0.7688
 5740TIP3   OH241414   5.421   2.840  11.541  0.1408  0.2752  0.0018
 5740TIP3    H141415   5.356   2.770  11.532  1.1238 -0.6023 -0.4643
 5740TIP3    H241416   5.492   2.800  11.591  0.2509  1.2781  0.6696
 5741TIP3   OH241417   3.895   5.536  10.970 -1.0101  0.0388 -0.2388
 5741TIP3    H141418   3.811   5.535  11.015 -1.3565  2.6743 -0.6572
 5741TIP3    H241419   3.929   5.624  10.985  0.8314 -0.3711 -1.6101
 5742TIP3   OH241420   6.444   5.202  11.593 -0.6654  0.5040 -0.3147
 5742TIP3    H141421   6.531   5.176  11.622 -1.0128 -0.5017 -0.1445
 5742TIP3    H241422   6.446   5.298  11.595  0.7691  0.5269 -1.3311
 5743TIP3   OH241423   2.886   4.705  20.257 -0.5271  0.3639 -0.2127
 5743TIP3    H141424   2.923   4.780  20.211  2.6505  0.3932  2.0199
 5743TIP3    H241425   2.848   4.743  20.336  0.9169 -0.2712  0.8268
 5744TIP3   OH241426   4.181   3.934  10.271  0.0697  0.1549 -0.0720
 5744TIP3    H141427   4.274   3.936  10.249  0.1110 -0.8901 -0.0436
 5744TIP3    H241428   4.139   3.989  10.205  0.7301  0.8369  0.0665
 5745TIP3   OH241429   0.595   2.865   9.644 -0.4197 -0.3775 -0.7614
 5745TIP3    H141430   0.688   2.887   9.641 -0.0508 -0.8189  2.9828
 5745TIP3    H241431   0.550   2.946   9.621  0.9212  0.7210  0.3123
 5746TIP3   OH241432   6.177   6.196  12.648  0.0696 -0.2825 -0.3625
 5746TIP3    H141433   6.199   6.220  12.558 -0.5325  3.7883  0.4024
 5746TIP3    H241434   6.257   6.215  12.697 -0.0637 -1.1207  0.1980
 5747TIP3   OH241435   5.854   6.113  11.840  0.6107 -0.1729 -0.5371
 5747TIP3    H141436   5.889   6.182  11.782 -0.8962 -0.1443 -1.4653
 5747TIP3    H241437   5.760   6.117  11.827  0.3417 -1.0890  0.9450
 5748TIP3   OH241438   3.010   4.562  10.150 -0.5082 -0.7099  0.2741
 5748TIP3    H141439   2.934   4.550  10.093 -0.6843 -0.0850  0.3618
 5748TIP3    H241440   3.019   4.480  10.198 -0.2175 -1.3330 -0.8184
 5749TIP3   OH241441   6.455   3.866  12.259 -0.2669  0.2156  0.2410
 5749TIP3    H141442   6.427   3.922  12.331 -0.8267 -1.0121  1.0139
 5749TIP3    H241443   6.386   3.800  12.252 -0.3811  0.4780 -1.6401
 5750TIP3   OH241444   4.097   4.547   9.377  0.1060 -0.3325 -0.1314
 5750TIP3    H141445   4.158   4.508   9.439 -1.5569  1.9355  3.1791
 5750TIP3    H241446   4.026   4.482   9.370  1.5069 -1.7935 -1.9525
 5751TIP3   OH241447   6.108   5.853  10.318  0.4123 -0.7788 -0.5867
 5751TIP3    H141448   6.085   5.760  10.320  1.4776 -1.0532  0.1937
 5751TIP3    H241449   6.109   5.878  10.411  1.3163 -0.3109 -0.7176
 5752TIP3   OH241450   5.784   3.786   9.426  0.1013 -1.1523  0.7808
 5752TIP3    H141451   5.880   3.790   9.423  0.0572 -0.5200 -0.4817
 5752TIP3    H241452   5.756   3.813   9.338 -1.2592 -0.5714  1.3648
 5753TIP3   OH241453   1.655   3.903  10.205 -0.0151  0.1856 -0.3523
 5753TIP3    H141454   1.741   3.862  10.198 -0.1814 -0.3785  0.6223
 5753TIP3    H241455   1.671   3.988  10.244  0.0550 -0.1867  0.4595
 5754TIP3   OH241456   0.098   6.060  11.735 -0.2601  0.4560  0.1644
 5754TIP3    H141457   0.105   5.969  11.763 -1.0189  0.2752 -0.2089
 5754TIP3    H241458   0.036   6.099  11.797  0.3427  0.8182  0.5492
 5755TIP3   OH241459   0.090   2.614   9.767  0.0203 -0.2052  0.3170
 5755TIP3    H141460   0.083   2.563   9.848 -0.0722 -1.5074 -0.4922
 5755TIP3    H241461   0.005   2.605   9.725 -0.1879  1.0873  0.3971
 5756TIP3   OH241462   4.967   4.360  11.989  0.5192 -0.0235 -0.2206
 5756TIP3    H141463   4.912   4.289  12.022  2.3906  0.0415  3.4766
 5756TIP3    H241464   5.043   4.317  11.950  1.0195 -0.0954  0.8141
 5757TIP3   OH241465   3.528   3.410  12.077  0.4180  0.0816  0.0024
 5757TIP3    H141466   3.530   3.315  12.065  0.5524  0.0864 -0.0099
 5757TIP3    H241467   3.516   3.423  12.171  2.7348  0.0620  0.3605
 5758TIP3   OH241468   6.062   3.881  12.183  0.5855  0.1526  0.1291
 5758TIP3    H141469   6.098   3.811  12.238  0.4875  0.6382  0.8286
 5758TIP3    H241470   5.980   3.845  12.148  1.6887 -0.9582 -1.4643
 5759TIP3   OH241471   1.433   3.486  11.621 -0.2637 -1.0588 -0.2345
 5759TIP3    H141472   1.369   3.420  11.592 -1.8141 -1.0737  2.8160
 5759TIP3    H241473   1.492   3.438  11.679  1.8389 -0.7408 -1.9693
 5760TIP3   OH241474   5.891   5.085  12.708 -0.0018 -0.8220 -0.2440
 5760TIP3    H141475   5.963   5.023  12.704  0.4634 -0.5811  2.5143
 5760TIP3    H241476   5.933   5.170  12.716 -0.5050 -0.7474  2.2473
 5761TIP3   OH241477   1.777   2.171  12.347 -0.7539  0.2792  0.2321
 5761TIP3    H141478   1.832   2.124  12.285 -0.6985  1.0957 -0.3514
 5761TIP3    H241479   1.705   2.112  12.366 -1.5421  0.5430 -1.7139
 5762TIP3   OH241480   4.102   5.194  12.177 -0.1020 -0.3310  0.2249
 5762TIP3    H141481   4.176   5.254  12.192  0.5790 -0.8721 -0.8367
 5762TIP3    H241482   4.043   5.244  12.121  0.6091 -0.7394 -0.9117
 5763TIP3   OH241483   4.061   0.159   9.658  0.2832 -0.3601 -0.0207
 5763TIP3    H141484   4.130   0.093   9.672  1.6954  1.0747  0.0405
 5763TIP3    H241485   3.982   0.119   9.696  1.2083 -1.7800  0.5092
 5764TIP3   OH241486   5.083   4.273  10.716  0.1771 -0.0295  0.0419
 5764TIP3    H141487   5.031   4.198  10.688  1.7093 -1.3679  0.6361
 5764TIP3    H241488   5.173   4.241  10.718  0.7722  1.5585  1.2094
 5765TIP3   OH241489   2.571   3.648  11.829  0.6757 -0.1575  0.6925
 5765TIP3    H141490   2.655   3.602  11.828  0.6401 -0.2338 -1.0585
 5765TIP3    H241491   2.540   3.638  11.919  1.3192 -2.3473  0.7237
 5766TIP3   OH241492   4.215   6.636  10.535 -0.4507  0.2929  0.1754
 5766TIP3    H141493   4.131   6.650  10.578 -1.1132 -2.8044  0.1014
 5766TIP3    H241494   4.193   6.609  10.446  0.5509 -1.2846  0.3754
 5767TIP3   OH241495   4.279   0.547  12.386 -0.0321  0.6371  0.2268
 5767TIP3    H141496   4.257   0.611  12.318 -1.9667  0.3405  0.5084
 5767TIP3    H241497   4.327   0.598  12.451 -0.9658  1.6815  0.1424
 5768TIP3   OH241498   2.558   4.410  11.401 -0.1297 -0.3793  0.1264
 5768TIP3    H141499   2.615   4.352  11.350  1.0240 -0.7404  1.7504
 5768TIP3    H241500   2.470   4.392  11.368  0.4019 -1.7577 -0.6257
 5769TIP3   OH241501   3.888   0.257  12.122 -0.3295  0.3003  0.1155
 5769TIP3    H141502   3.824   0.208  12.070  1.5220 -1.2117 -0.8681
 5769TIP3    H241503   3.917   0.194  12.189  0.4674  0.8020  0.2586
 5770TIP3   OH241504   4.263   6.228   9.341  0.2161 -0.0678 -0.2252
 5770TIP3    H141505   4.349   6.268   9.335 -0.2480  0.7823 -1.6156
 5770TIP3    H241506   4.279   6.143   9.381  1.6644  0.1610 -0.2661
 5771TIP3   OH241507   3.392   6.458  10.440 -0.2984  0.2819 -0.1328
 5771TIP3    H141508   3.482   6.434  10.461 -1.3715 -2.5553  1.8504
 5771TIP3    H241509   3.392   6.473  10.346  1.6573 -2.8733 -0.7647
 5772TIP3   OH241510   2.113   4.184  11.090 -0.0023 -0.5278  0.3178
 5772TIP3    H141511   2.133   4.214  11.002 -0.6125 -0.6030  0.1470
 5772TIP3    H241512   2.021   4.209  11.104  0.0756 -0.5408  0.9178
 5773TIP3   OH241513   1.855   0.841  10.595 -0.5269  0.1445  0.6033
 5773TIP3    H141514   1.825   0.831  10.504 -0.7348  1.0044  0.5620
 5773TIP3    H241515   1.926   0.905  10.589  0.8540 -1.3031  0.8006
 5774TIP3   OH241516   0.639   5.581  10.538 -0.1423  0.5007  0.5751
 5774TIP3    H141517   0.674   5.663  10.504  1.8222 -0.7944 -0.7011
 5774TIP3    H241518   0.614   5.531  10.461  0.8724 -1.0097  1.1791
 5775TIP3   OH241519   2.614   6.224   9.900  0.2825  0.5036 -0.1758
 5775TIP3    H141520   2.650   6.157   9.843  1.9274  0.9920  0.2042
 5775TIP3    H241521   2.685   6.288   9.909 -0.0862  0.6873  2.0035
 5776TIP3   OH241522   2.662   3.595  13.617  0.1425 -0.7119 -0.0320
 5776TIP3    H141523   2.589   3.656  13.601 -0.6550 -1.7301 -0.3781
 5776TIP3    H241524   2.702   3.583  13.531  0.6723 -0.2176  0.1443
 5777TIP3   OH241525   2.429   0.104  10.868  0.1499 -0.5372 -0.0925
 5777TIP3    H141526   2.432   0.121  10.774 -1.3386 -1.4789 -0.3419
 5777TIP3    H241527   2.373   0.027  10.877 -0.2509 -0.0899  1.6185
 5778TIP3   OH241528   1.699   6.148  13.352  0.2621 -0.0432 -0.5628
 5778TIP3    H141529   1.780   6.199  13.352 -0.2407  0.7892 -0.8221
 5778TIP3    H241530   1.725   6.061  13.321  1.6996 -0.9556  2.8259
 5779TIP3   OH241531   5.533   3.392  12.823 -0.0282 -0.1182  0.2606
 5779TIP3    H141532   5.538   3.478  12.781 -0.6860 -0.6365 -0.9129
 5779TIP3    H241533   5.449   3.393  12.869  0.5030  0.2913  1.2662
 5780TIP3   OH241534   1.281   6.683   9.614  0.0060  0.2278  0.2365
 5780TIP3    H141535   1.359   6.733   9.590  0.4468  0.2873  1.6875
 5780TIP3    H241536   1.224   6.747   9.657 -1.2307  0.3708 -1.5161
 5781TIP3   OH241537   6.687   4.312  10.568 -0.0615 -0.8834  0.1248
 5781TIP3    H141538   6.653   4.332  10.655  0.8135  0.2318  0.2416
 5781TIP3    H241539   6.747   4.239  10.582 -0.4924 -1.2107  0.3155
 5782TIP3   OH241540   3.080   3.066  11.734 -0.2747  0.3641  0.1474
 5782TIP3    H141541   3.123   3.151  11.725 -0.1508  0.2966  0.0987
 5782TIP3    H241542   2.987   3.086  11.734 -0.2907  0.3570 -1.3655
 5783TIP3   OH241543   1.769   2.183  12.799 -0.1986 -0.5910 -0.3649
 5783TIP3    H141544   1.865   2.186  12.791 -0.0885  0.6496  1.0497
 5783TIP3    H241545   1.747   2.261  12.850 -1.8777 -1.4524  0.2831
 5784TIP3   OH241546   3.975   4.376  11.964  0.1153  0.4375 -0.0780
 5784TIP3    H141547   3.989   4.282  11.976 -1.3391  0.3745  1.4753
 5784TIP3    H241548   3.900   4.383  11.906 -1.1415  0.5693  1.5007
 5785TIP3   OH241549   3.012   5.538  11.001 -0.0821 -0.1884  0.1212
 5785TIP3    H141550   3.043   5.626  11.024 -1.0321 -0.0101  0.7634
 5785TIP3    H241551   3.057   5.517  10.919  1.5140  0.1672  0.8615
 5786TIP3   OH241552   3.122   1.077  11.720  0.5238  0.0209  0.2028
 5786TIP3    H141553   3.043   1.024  11.728  1.8729 -2.0840  0.2462
 5786TIP3    H241554   3.091   1.159  11.681 -1.3420 -1.7598 -2.5005
 5787TIP3   OH241555   1.950   2.948  10.742  0.4499  0.1515  0.0832
 5787TIP3    H141556   1.881   2.990  10.692 -0.6080  0.9487  2.0909
 5787TIP3    H241557   2.019   3.013  10.748 -0.0781  0.6521  0.9394
 5788TIP3   OH241558   6.333   4.873   9.481 -0.0429  0.3102  0.1523
 5788TIP3    H141559   6.265   4.861   9.415 -0.7839  1.4310  0.6973
 5788TIP3    H241560   6.333   4.791   9.530  1.0111 -0.8442 -1.6249
 5789TIP3   OH241561   2.658   4.048  12.278 -0.2340 -0.1486  0.1445
 5789TIP3    H141562   2.674   3.956  12.300 -1.4812 -0.7217 -1.1854
 5789TIP3    H241563   2.735   4.075  12.228  0.9366  0.0956  1.9551
 5790TIP3   OH241564   1.089   0.992   9.859 -0.0316 -0.3863 -0.2678
 5790TIP3    H141565   1.132   0.948   9.932  2.5381  0.3205 -1.2202
 5790TIP3    H241566   1.148   0.978   9.785 -1.0817  1.3572 -1.5186
 5791TIP3   OH241567   3.849   6.351  11.529  0.0335 -0.4557 -0.3622
 5791TIP3    H141568   3.839   6.266  11.573 -0.1634  0.1761  0.8625
 5791TIP3    H241569   3.939   6.351  11.497 -0.1540 -1.3698 -0.9315
 5792TIP3   OH241570   0.384   4.237  10.796  0.1021  0.2943  0.1001
 5792TIP3    H141571   0.386   4.259  10.889 -2.3391 -0.4495  0.4164
 5792TIP3    H241572   0.429   4.152  10.790 -1.2124 -0.4989  0.9435
 5793TIP3   OH241573   6.049   4.523  11.646 -0.3372  0.0059 -0.0655
 5793TIP3    H141574   5.967   4.535  11.693 -1.0221 -1.8224 -0.7066
 5793TIP3    H241575   6.055   4.429  11.631  2.1568 -0.0032  0.4354
 5794TIP3   OH241576   4.007   0.109  11.320  0.3482  0.5082  0.3783
 5794TIP3    H141577   4.000   0.096  11.415  0.9666 -1.3182  0.2170
 5794TIP3    H241578   3.926   0.073  11.285  1.4118 -1.7456  0.0344
 5795TIP3   OH241579   0.814   1.276   9.795  0.5885  0.0719 -0.6920
 5795TIP3    H141580   0.726   1.246   9.772 -0.0901  1.1505  0.3583
 5795TIP3    H241581   0.869   1.249   9.721 -0.8031  0.2768 -1.8490
 5796TIP3   OH241582   4.890   1.294   9.532 -0.0423 -0.1220 -0.8126
 5796TIP3    H141583   4.893   1.235   9.457 -0.5304 -1.4408  0.1562
 5796TIP3    H241584   4.797   1.298   9.555  0.1404 -0.0706 -0.0471
 5797TIP3   OH241585   0.948   4.223  10.486 -0.0056  0.0515 -0.8016
 5797TIP3    H141586   1.016   4.192  10.545 -1.7723 -0.3620  1.1420
 5797TIP3    H241587   0.977   4.309  10.458  0.5766  0.5985  1.3203
 5798TIP3   OH241588   4.853   6.041  11.728 -0.1947 -0.2526 -0.3193
 5798TIP3    H141589   4.924   6.078  11.780  0.4548 -1.4185 -0.3252
 5798TIP3    H241590   4.775   6.050  11.783 -0.1948  1.5719 -0.5526
 5799TIP3   OH241591   5.458   5.084   9.795 -0.0182  0.2097 -0.4425
 5799TIP3    H141592   5.478   5.121   9.881  0.1549 -0.7334 -0.0660
 5799TIP3    H241593   5.409   5.152   9.750  0.7554  1.0999  0.0330
 5800TIP3   OH241594   2.086   3.159  12.074 -0.0021 -0.2658  0.0483
 5800TIP3    H141595   2.044   3.122  11.996  2.0597 -1.7377 -0.4398
 5800TIP3    H241596   2.131   3.238  12.043 -1.2112  0.5638  0.3103
 5801TIP3   OH241597   5.296   4.386   9.804 -0.1294  0.1373  0.0070
 5801TIP3    H141598   5.323   4.320   9.868  0.9670 -0.3779 -0.9440
 5801TIP3    H241599   5.331   4.468   9.837 -1.2494  0.2262  1.0498
 5802TIP3   OH241600   3.994   5.635  11.971 -0.3311  0.3140  0.2930
 5802TIP3    H141601   3.918   5.581  11.991 -0.8444  0.8417 -0.1713
 5802TIP3    H241602   4.024   5.604  11.886  0.6452 -0.6125  0.9517
 5803TIP3   OH241603   0.654   4.647   9.837 -0.1841 -0.0851  0.4235
 5803TIP3    H141604   0.693   4.734   9.852 -0.3998  0.4478 -1.7667
 5803TIP3    H241605   0.727   4.586   9.845  0.0264  0.3033  1.6999
 5804TIP3   OH241606   0.702   6.279  12.049  0.9442  0.0411 -0.8046
 5804TIP3    H141607   0.777   6.244  12.098  0.5029  1.3592  0.9075
 5804TIP3    H241608   0.642   6.311  12.117  1.2330  3.9438 -2.1460
 5805TIP3   OH241609   3.091   1.279  11.003 -0.2297  0.2490  0.4960
 5805TIP3    H141610   3.008   1.253  11.042 -0.8511 -0.8712 -1.4654
 5805TIP3    H241611   3.067   1.336  10.930  0.5185 -1.8315 -1.4699
 5806TIP3   OH241612   2.799   4.721   9.747 -0.0429  0.0016  0.2485
 5806TIP3    H141613   2.855   4.713   9.670 -0.7463 -0.5718 -0.2149
 5806TIP3    H241614   2.792   4.815   9.762 -1.2786  0.2373 -1.4334
 5807TIP3   OH241615   3.859   5.424   9.792  0.3921 -0.0760  0.4650
 5807TIP3    H141616   3.891   5.444   9.704 -0.4958 -2.5061 -0.4924
 5807TIP3    H241617   3.935   5.388   9.838  1.0805  1.9748  1.0510
 5808TIP3   OH241618   4.741   6.306   9.912 -0.2044  0.1241  0.4794
 5808TIP3    H141619   4.671   6.252   9.876 -0.7390 -0.7196  2.6441
 5808TIP3    H241620   4.819   6.280   9.864 -0.9236 -0.7382 -0.2458
 5809TIP3   OH241621   5.569   0.836  13.488  0.2318 -0.2535 -0.0173
 5809TIP3    H141622   5.580   0.895  13.414 -0.9201 -0.5058 -0.4071
 5809TIP3    H241623   5.635   0.767  13.474  1.0328  0.4906  0.0141
 5810TIP3   OH241624   4.564   2.914   9.993 -0.6137  0.0942 -0.2065
 5810TIP3    H141625   4.530   2.998  10.025  0.4530  0.5922 -0.3431
 5810TIP3    H241626   4.583   2.930   9.900  2.6403  0.7351  0.4646
 5811TIP3   OH241627   6.180   4.302  11.891  0.2185 -0.1476 -0.6636
 5811TIP3    H141628   6.111   4.240  11.866 -0.0941 -1.7577  3.4709
 5811TIP3    H241629   6.260   4.249  11.891  0.8523  0.7689 -1.7909
 5812TIP3   OH241630   4.533   0.888  12.199 -0.0740  0.2956  0.2179
 5812TIP3    H141631   4.473   0.886  12.274 -1.1192  1.1718 -0.5630
 5812TIP3    H241632   4.587   0.810  12.210 -1.5732 -0.7123  0.7883
 5813TIP3   OH241633   5.247   2.076  12.422 -0.6440 -0.3239  0.2338
 5813TIP3    H141634   5.282   2.164  12.406 -1.4745 -0.2567 -1.3944
 5813TIP3    H241635   5.320   2.017  12.404 -0.6376 -0.0564 -0.6508
 5814TIP3   OH241636   0.770   1.890  10.626 -0.4934 -0.0151  0.4592
 5814TIP3    H141637   0.812   1.929  10.703  0.2523 -0.2643  0.1751
 5814TIP3    H241638   0.819   1.810  10.608 -0.8997 -0.1588 -0.0542
 5815TIP3   OH241639   3.019   3.608  12.393 -0.1673 -0.1657 -0.6283
 5815TIP3    H141640   3.000   3.623  12.486 -0.4441  0.1536 -0.7330
 5815TIP3    H241641   2.977   3.682  12.348 -1.9350 -1.4627 -1.2070
 5816TIP3   OH241642   6.217   0.806   9.767 -0.2249 -0.0431  0.0250
 5816TIP3    H141643   6.208   0.788   9.860  1.0003  0.4161  0.2542
 5816TIP3    H241644   6.200   0.899   9.758  3.6933  0.9086  0.5046
 5817TIP3   OH241645   1.971   4.349   9.838  0.1023  0.0090  0.2689
 5817TIP3    H141646   1.991   4.411   9.767  0.0863 -0.0478  0.2151
 5817TIP3    H241647   1.920   4.400   9.901 -0.9283 -0.2557 -0.3298
 5818TIP3   OH241648   2.846   6.247  11.429  0.1988  0.1477 -0.0886
 5818TIP3    H141649   2.793   6.211  11.500  1.5482 -0.6019  0.5749
 5818TIP3    H241650   2.848   6.341  11.445  0.4966 -0.0194  0.8646
 5819TIP3   OH241651   1.084   6.184  11.348 -0.5663 -0.0336  0.3720
 5819TIP3    H141652   1.083   6.123  11.274 -1.1205 -0.7919  0.9786
 5819TIP3    H241653   1.061   6.129  11.424 -0.4947  0.8215  1.0254
 5820TIP3   OH241654   5.725   1.052  10.917 -0.5340 -0.8399  0.0183
 5820TIP3    H141655   5.716   1.078  11.009  0.9975  0.6399 -0.2239
 5820TIP3    H241656   5.647   1.088  10.875 -1.1350 -1.3365  0.6788
 5821TIP3   OH241657   2.917   4.126  10.694 -0.0746  0.2709  0.1380
 5821TIP3    H141658   2.857   4.097  10.625 -0.5660 -0.1579  0.7435
 5821TIP3    H241659   2.956   4.207  10.659 -0.5881  0.2552 -0.4891
 5822TIP3   OH241660   4.170   6.024   9.938 -0.2705 -0.3112  0.7562
 5822TIP3    H141661   4.101   6.086   9.912  0.4048 -0.2632 -1.0371
 5822TIP3    H241662   4.189   5.975   9.858  2.8246  0.7026  0.7484
 5823TIP3   OH241663   1.325   2.872  11.853  0.3430  0.0126  0.5361
 5823TIP3    H141664   1.380   2.802  11.817  1.8957  0.1310  2.5050
 5823TIP3    H241665   1.297   2.923  11.776  1.7250 -0.9659 -0.6646
 5824TIP3   OH241666   3.295   5.693  10.068  0.3920  0.1440  0.5815
 5824TIP3    H141667   3.205   5.717  10.087  0.2470 -0.8679  1.2433
 5824TIP3    H241668   3.294   5.597  10.063  1.5953  0.0572  1.5224
 5825TIP3   OH241669   4.393   3.779  10.544  0.4359 -0.0619 -0.1714
 5825TIP3    H141670   4.445   3.795  10.466  0.1680  1.1441 -0.1254
 5825TIP3    H241671   4.457   3.776  10.615  0.5590  0.1125 -0.2753
 5826TIP3   OH241672   1.003   1.140  10.262 -0.5394  0.1370  0.1740
 5826TIP3    H141673   1.030   1.069  10.203  0.5700  0.8866 -0.2613
 5826TIP3    H241674   0.943   1.193  10.210 -1.0991 -0.2899  0.3829
 5827TIP3   OH241675   5.628   1.412  12.243  0.2006 -0.1920  0.3421
 5827TIP3    H141676   5.681   1.491  12.241  0.6172 -0.3665  2.2054
 5827TIP3    H241677   5.543   1.441  12.276 -0.4225 -0.1610 -1.2146
 5828TIP3   OH241678   6.201   4.250   9.900 -0.4074 -0.2400 -0.5224
 5828TIP3    H141679   6.246   4.174   9.936  0.4718  0.2387 -0.6048
 5828TIP3    H241680   6.171   4.299   9.977 -1.4167 -0.9143 -0.4689
 5829TIP3   OH241681   3.914   2.283  11.192 -0.2081  0.2539  0.4027
 5829TIP3    H141682   3.840   2.312  11.245  0.5454 -0.7326  2.0911
 5829TIP3    H241683   3.988   2.336  11.222  0.3960 -0.8493  0.9153
 5830TIP3   OH241684   6.610   5.572   9.781  0.3837  0.2462  0.2739
 5830TIP3    H141685   6.645   5.539   9.698  3.3313  1.1980  1.0073
 5830TIP3    H241686   6.515   5.564   9.772  0.6606 -1.1126 -2.5571
 5831TIP3   OH241687   1.660   5.421  11.699  0.3210 -0.1525 -0.3930
 5831TIP3    H141688   1.745   5.376  11.706  0.3490  0.1118  1.1849
 5831TIP3    H241689   1.596   5.353  11.720  0.1827 -0.1488 -0.7969
 5832TIP3   OH241690   4.177   0.437  12.597  0.2924 -0.1115 -0.6140
 5832TIP3    H141691   4.143   0.511  12.648 -0.2737 -0.6449 -0.2127
 5832TIP3    H241692   4.213   0.478  12.517  0.8872  0.6945  0.0438
 5833TIP3   OH241693   3.748   4.554  10.064  0.6273  0.0210  0.4286
 5833TIP3    H141694   3.807   4.502  10.010 -2.5648 -2.2807 -1.2214
 5833TIP3    H241695   3.789   4.556  10.150  3.7546 -0.0894 -0.9521
 5834TIP3   OH241696   3.878   0.327  11.508  0.4484 -0.4490  0.2439
 5834TIP3    H141697   3.867   0.350  11.416 -0.7467 -0.3124  0.4004
 5834TIP3    H241698   3.861   0.408  11.556 -4.1631 -1.4578  0.8186
 5835TIP3   OH241699   4.089   4.673  10.096 -0.1433  0.5564  0.2734
 5835TIP3    H141700   4.077   4.764  10.069 -0.9728  1.3441  2.9852
 5835TIP3    H241701   4.126   4.679  10.184  2.2124 -1.8020 -0.4276
 5836TIP3   OH241702   2.927   5.353   9.734  0.3181  0.1763 -0.6495
 5836TIP3    H141703   2.881   5.433   9.761  1.2751  0.2481  0.8596
 5836TIP3    H241704   2.998   5.384   9.678 -0.0516  0.2709 -1.0681
 5837TIP3   OH241705   3.958   0.648  12.676  0.4501 -0.1527 -0.0387
 5837TIP3    H141706   3.875   0.695  12.666  0.1412 -0.6923 -0.0553
 5837TIP3    H241707   3.988   0.672  12.764  0.1187 -0.2077  0.0907
 5838TIP3   OH241708   4.267   1.239  12.598 -0.4212  0.3220  0.4068
 5838TIP3    H141709   4.189   1.267  12.550 -0.7023 -0.1727  0.5583
 5838TIP3    H241710   4.328   1.312  12.590  0.6687 -0.8161 -3.0849
 5839TIP3   OH241711   5.121   6.632   9.643 -0.8469  0.1944 -0.1464
 5839TIP3    H141712   5.063   6.640   9.568 -1.3643 -0.1407  0.2066
 5839TIP3    H241713   5.062   6.640   9.719 -0.2480  1.1681  0.2223
 5840TIP3   OH241714   5.399   4.455  11.756  0.8920  0.6559  0.1059
 5840TIP3    H141715   5.448   4.478  11.676 -0.7221  1.9528 -0.5784
 5840TIP3    H241716   5.351   4.535  11.777 -1.4148 -0.7287  0.3593
 5841TIP3   OH241717   0.852   1.689  11.064 -0.5629 -0.1359  0.4274
 5841TIP3    H141718   0.926   1.744  11.091 -0.1075  0.3188 -1.5986
 5841TIP3    H241719   0.774   1.740  11.088 -0.1566  0.7929 -0.1621
 5842TIP3   OH241720   5.651   5.527  12.742  0.4558  0.3199 -0.7709
 5842TIP3    H141721   5.580   5.551  12.683 -0.6946  0.6916  0.7130
 5842TIP3    H241722   5.711   5.602  12.740 -0.5650  1.1844 -0.0208
 5843TIP3   OH241723   0.552   4.363  11.350 -0.0925 -0.0172 -0.3365
 5843TIP3    H141724   0.555   4.269  11.332 -1.1363 -0.9952  3.5462
 5843TIP3    H241725   0.640   4.385  11.378 -0.4416 -0.5913  1.3604
 5844TIP3   OH241726   1.613   6.462  13.214  0.7945  0.5385  0.0465
 5844TIP3    H141727   1.682   6.406  13.178  1.9600  1.9520  0.0016
 5844TIP3    H241728   1.594   6.424  13.300 -0.5242 -1.6209 -1.0936
 5845TIP3   OH241729   1.929   3.697  10.844  0.5835 -0.0683 -0.2130
 5845TIP3    H141730   1.857   3.758  10.863  0.2019  0.0787 -2.0148
 5845TIP3    H241731   1.953   3.662  10.930 -1.6057 -0.0755  0.4749
 5846TIP3   OH241732   4.651   6.668  10.377 -0.2070  0.0153  0.2563
 5846TIP3    H141733   4.705   6.609  10.429 -0.1575  0.1793  0.3921
 5846TIP3    H241734   4.601   6.719  10.441 -0.4389 -0.0549  0.1352
 5847TIP3   OH241735   0.580   6.043  10.486 -0.2420 -0.3875 -0.2344
 5847TIP3    H141736   0.612   5.966  10.533 -0.1629  0.4000  1.0561
 5847TIP3    H241737   0.595   6.022  10.394  0.4440 -1.6137  0.1217
 5848TIP3   OH241738   2.899   4.229  13.175 -0.0570  0.7717 -0.0947
 5848TIP3    H141739   2.976   4.207  13.123  0.1897 -1.5824  1.0921
 5848TIP3    H241740   2.866   4.144  13.206 -2.9532  1.7094 -0.2830
 5849TIP3   OH241741   3.758   4.650  11.393  0.0099 -0.0599  0.0620
 5849TIP3    H141742   3.788   4.562  11.418  1.0056 -0.0398 -0.9768
 5849TIP3    H241743   3.812   4.673  11.318 -0.6201  1.2315 -0.0192
 5850TIP3   OH241744   6.345   3.224  11.630 -0.4973  0.0823 -0.3278
 5850TIP3    H141745   6.439   3.241  11.640 -0.5684  0.0646  0.4410
 5850TIP3    H241746   6.303   3.297  11.674 -0.8519  0.1785 -0.8219
 5851TIP3   OH241747   2.080   6.524   9.665  0.1186 -0.2962  0.7724
 5851TIP3    H141748   2.045   6.554   9.749  0.5580 -0.5143  1.0376
 5851TIP3    H241749   2.173   6.549   9.667  0.5746 -1.9217  1.1323
 5852TIP3   OH241750   1.944   1.820  10.063 -0.5181 -0.4326  0.0509
 5852TIP3    H141751   1.991   1.843  10.142 -0.9749 -0.3156  0.2926
 5852TIP3    H241752   1.885   1.894  10.047 -1.6332 -1.1817  0.5534
 5853TIP3   OH241753   5.962   3.913   9.777  0.3213  0.4355 -0.2883
 5853TIP3    H141754   6.043   3.863   9.761  0.1002  0.4158 -1.4237
 5853TIP3    H241755   5.938   3.947   9.691  0.6298  2.7863  0.4863
 5854TIP3   OH241756   4.292   3.021  10.324 -0.1469  0.1644  0.0374
 5854TIP3    H141757   4.383   2.993  10.312  0.1644  1.4110 -0.6927
 5854TIP3    H241758   4.257   2.962  10.391  1.6532  0.6175  1.4463
 5855TIP3   OH241759   6.072   6.486  11.960  0.0827 -0.3760 -0.0373
 5855TIP3    H141760   6.151   6.525  11.922 -0.1978 -1.3606 -1.7732
 5855TIP3    H241761   6.006   6.494  11.891 -2.0299  2.2481  2.0700
 5856TIP3   OH241762   1.942   6.438  12.439  0.5912 -0.1509 -0.2052
 5856TIP3    H141763   1.929   6.505  12.372  0.8662  0.1228  0.0094
 5856TIP3    H241764   2.034   6.413  12.431  0.7213  0.1323  0.2859
 5857TIP3   OH241765   1.531   1.168  11.934 -0.5759  0.4196 -0.2397
 5857TIP3    H141766   1.439   1.169  11.909 -0.7082  0.0978  0.2197
 5857TIP3    H241767   1.529   1.164  12.030 -0.0840  0.2966 -0.2353
 5858TIP3   OH241768   6.252   2.582  10.550  0.0675 -0.3245  0.4916
 5858TIP3    H141769   6.259   2.677  10.553  1.0327 -0.2689 -1.7115
 5858TIP3    H241770   6.163   2.565  10.520  0.1763 -0.0642  0.0034
 5859TIP3   OH241771   1.274   2.177  10.391  0.4933 -0.7426 -0.0584
 5859TIP3    H141772   1.313   2.090  10.376  2.9137  0.4746 -1.5203
 5859TIP3    H241773   1.313   2.232  10.324  2.8870  2.5913  3.5970
 5860TIP3   OH241774   1.933   5.860  10.305 -0.2957  0.1146 -0.3581
 5860TIP3    H141775   2.002   5.827  10.362  0.9600  0.2723 -1.7372
 5860TIP3    H241776   1.856   5.808  10.329  0.2034  0.1297  1.3999
 5861TIP3   OH241777   1.426   1.236  10.918  0.1561  0.0174 -0.0329
 5861TIP3    H141778   1.505   1.193  10.885  0.4896 -0.6051  1.4583
 5861TIP3    H241779   1.441   1.330  10.903  1.7145  0.0101  1.2426
 5862TIP3   OH241780   4.613   4.143  11.945 -0.6150  0.1669  0.2070
 5862TIP3    H141781   4.625   4.102  11.859 -1.7498 -1.0824  0.6028
 5862TIP3    H241782   4.557   4.219  11.928  0.6248  0.9891 -0.3815
 5863TIP3   OH241783   3.177   4.834  12.431 -0.4832  0.2105 -0.3816
 5863TIP3    H141784   3.182   4.895  12.504 -1.4562 -0.1546  0.0087
 5863TIP3    H241785   3.101   4.778  12.451 -0.3114 -0.3785 -1.2930
 5864TIP3   OH241786   0.626   0.396  10.027 -0.1025  0.4346 -0.0114
 5864TIP3    H141787   0.587   0.478  10.057 -1.4244  0.0068 -0.5090
 5864TIP3    H241788   0.557   0.331  10.039  1.2512 -0.8458  1.3527
 5865TIP3   OH241789   4.350   6.607  11.735 -0.0432 -0.1394  0.1488
 5865TIP3    H141790   4.366   6.674  11.801  0.0104  0.0426 -0.0496
 5865TIP3    H241791   4.332   6.527  11.786  1.8398 -0.4534  0.4017
 5866TIP3   OH241792   5.698   0.786   9.306  0.1600  0.4329 -0.3029
 5866TIP3    H141793   5.782   0.758   9.271  0.0301  0.4755 -0.6526
 5866TIP3    H241794   5.707   0.881   9.317 -0.3648  0.6816 -1.8199
 5867TIP3   OH241795   6.623   0.827  12.689 -0.5596  0.0242  0.1384
 5867TIP3    H141796   6.718   0.828  12.701 -0.3403  0.6045 -1.3880
 5867TIP3    H241797   6.588   0.866  12.769  0.5903  1.2588  0.0747
 5868TIP3   OH241798   5.649   2.682   9.857  0.3314  0.0832 -0.4253
 5868TIP3    H141799   5.707   2.606   9.847  1.6496  0.5487  2.5224
 5868TIP3    H241800   5.698   2.754   9.818  0.9335  0.1082  0.3350
 5869TIP3   OH241801   4.248   2.505   9.745  0.6473  0.0787  0.5098
 5869TIP3    H141802   4.288   2.479   9.663  3.3673 -2.6693  2.4954
 5869TIP3    H241803   4.276   2.596   9.758  0.2945  0.5031 -1.4641
 5870TIP3   OH241804   3.679   0.771  11.228  0.0899 -0.3124  0.5647
 5870TIP3    H141805   3.639   0.714  11.163 -0.6287  1.3076 -0.4688
 5870TIP3    H241806   3.609   0.791  11.290  0.0855  0.1761  0.4064
 5871TIP3   OH241807   5.025   3.306  12.255 -0.2470 -0.7748 -0.5425
 5871TIP3    H141808   5.097   3.296  12.317 -0.7037 -0.8908 -0.0261
 5871TIP3    H241809   5.068   3.324  12.172  0.3559  1.2235  0.1307
 5872TIP3   OH241810   4.628   2.513   9.639  0.2108 -0.0628 -0.4218
 5872TIP3    H141811   4.626   2.417   9.639 -0.4967 -0.0660 -1.3997
 5872TIP3    H241812   4.713   2.535   9.601  1.0597 -0.2728  1.2749
 5873TIP3   OH241813   4.625   0.108   9.106  0.2667  0.5858  0.2014
 5873TIP3    H141814   4.537   0.116   9.068  0.0966 -1.8665 -0.0414
 5873TIP3    H241815   4.683   0.142   9.038 -0.3897  1.0903 -0.1293
 5874TIP3   OH241816   5.108   1.957  11.534 -0.3858  0.3438 -0.3787
 5874TIP3    H141817   5.028   1.913  11.564 -0.7089  1.2588  0.1339
 5874TIP3    H241818   5.078   2.041  11.500  0.5386  1.4459  1.4401
 5875TIP3   OH241819   6.400   5.877  10.226 -0.0382 -0.0982  0.3736
 5875TIP3    H141820   6.308   5.848  10.227 -0.0865  0.0292  1.3486
 5875TIP3    H241821   6.448   5.806  10.269 -0.1039  1.0206  2.4341
 5876TIP3   OH241822   5.250   1.411  12.219 -0.0235  0.2480  0.3602
 5876TIP3    H141823   5.190   1.350  12.175  1.6371 -0.8443 -0.4918
 5876TIP3    H241824   5.262   1.373  12.306  0.0893  0.0105  0.2411
 5877TIP3   OH241825   6.241   4.843   9.945  0.3799 -0.2264  0.2890
 5877TIP3    H141826   6.247   4.817   9.854  0.4290  0.5113  0.0716
 5877TIP3    H241827   6.150   4.828   9.969  0.1230  0.5089 -0.1833
 5878TIP3   OH241828   2.010   1.083  10.189 -0.1258  0.0267  0.1908
 5878TIP3    H141829   2.029   1.158  10.133 -1.3923 -0.8196 -1.4936
 5878TIP3    H241830   2.066   1.095  10.265  2.6812  0.6032 -1.7940
 5879TIP3   OH241831   1.108   5.169  12.249  0.1975 -0.1360  0.0721
 5879TIP3    H141832   1.020   5.137  12.230 -1.0074  2.6469  0.4093
 5879TIP3    H241833   1.119   5.243  12.189  1.7587  0.3970  0.9735
 5880TIP3   OH241834   1.030   0.424  12.702 -0.1684 -0.0074 -0.0494
 5880TIP3    H141835   1.104   0.412  12.762 -0.1042  2.4095  0.4391
 5880TIP3    H241836   0.960   0.457  12.757 -1.1252 -0.7397 -0.8000
 5881TIP3   OH241837   6.349   5.390  12.259  0.6318  0.3223 -0.5471
 5881TIP3    H141838   6.386   5.459  12.205  1.8398 -1.2624 -1.8437
 5881TIP3    H241839   6.423   5.333  12.279 -0.1322 -0.0596  1.3652
 5882TIP3   OH241840   0.435   4.964  12.324 -0.0619 -0.4425  0.3796
 5882TIP3    H141841   0.340   4.964  12.327 -0.0504 -0.5843  1.1867
 5882TIP3    H241842   0.458   4.875  12.298 -0.1622 -0.0135 -1.2283
 5883TIP3   OH241843   2.236   6.117  11.163 -0.2073  0.1976  0.3303
 5883TIP3    H141844   2.167   6.081  11.218 -1.4483 -0.1364 -1.3792
 5883TIP3    H241845   2.280   6.181  11.220 -1.3605 -0.1975  1.7352
 5884TIP3   OH241846   3.662   5.872  13.523 -0.3739  0.7732 -0.5511
 5884TIP3    H141847   3.755   5.876  13.547 -0.2194 -0.0676 -0.9950
 5884TIP3    H241848   3.662   5.860  13.428 -0.9239 -0.0928 -0.4484
 5885TIP3   OH241849   4.101   2.292  10.821  0.6154 -0.2552  0.0606
 5885TIP3    H141850   4.042   2.292  10.746  1.3513  0.3268 -0.5243
 5885TIP3    H241851   4.188   2.300  10.784  0.9732  0.3604  0.9897
 5886TIP3   OH241852   5.539   5.581  11.843  0.4043  0.1688  0.1325
 5886TIP3    H141853   5.464   5.628  11.807  1.2672  2.5983  1.3212
 5886TIP3    H241854   5.516   5.567  11.935  1.4786  1.1714  0.5737
 5887TIP3   OH241855   0.362   1.028  11.580  0.0400  0.2246  0.2696
 5887TIP3    H141856   0.455   1.047  11.575  0.9165 -3.3850 -0.3771
 5887TIP3    H241857   0.334   1.020  11.489 -1.0589  1.6055  0.4447
 5888TIP3   OH241858   4.145   6.127  12.228 -0.1989  0.1180  0.7718
 5888TIP3    H141859   4.085   6.131  12.303 -2.6474  1.3733 -1.1199
 5888TIP3    H241860   4.092   6.092  12.157  1.1082  1.8384 -1.1583
 5889TIP3   OH241861   1.099   1.948  11.580  0.0249  0.4438  0.4606
 5889TIP3    H141862   1.139   1.970  11.496  2.0955 -2.7260  0.4115
 5889TIP3    H241863   1.093   1.852  11.579 -2.9074  0.4671  2.6737
 5890TIP3   OH241864   5.780   4.623  10.214  0.2650 -0.3519 -0.0592
 5890TIP3    H141865   5.713   4.683  10.246  0.7213 -0.5677  1.3631
 5890TIP3    H241866   5.734   4.540  10.202 -0.5414  0.3736 -2.7387
 5891TIP3   OH241867   4.205   4.552   9.827  0.0377  0.3640 -0.3301
 5891TIP3    H141868   4.117   4.590   9.820  0.3314  1.3115  0.7774
 5891TIP3    H241869   4.254   4.615   9.880  1.1947 -0.4915 -0.3448
 5892TIP3   OH241870   2.771   6.053   9.730  0.0157  0.1160  0.0564
 5892TIP3    H141871   2.795   6.114   9.660  3.5096  0.7035  1.5357
 5892TIP3    H241872   2.706   5.995   9.691  0.8926  1.1753 -3.2736
 5893TIP3   OH241873   1.133   4.924  11.320 -0.8416  0.9233  0.3862
 5893TIP3    H141874   1.066   4.973  11.369 -0.9003  1.4220 -0.1841
 5893TIP3    H241875   1.215   4.949  11.361 -0.7345  2.5522 -0.7251
 5894TIP3   OH241876   5.578   4.730   9.744 -0.3249 -0.7350 -0.6221
 5894TIP3    H141877   5.563   4.789   9.670  0.9274 -0.5839 -0.7802
 5894TIP3    H241878   5.502   4.743   9.801 -0.4337  0.4963 -1.0071
 5895TIP3   OH241879   1.767   6.135  10.700 -0.3061  0.2169 -0.5205
 5895TIP3    H141880   1.791   6.046  10.674 -0.5073  0.6102 -2.2210
 5895TIP3    H241881   1.772   6.185  10.618  0.8878  2.0163  0.5880
 5896TIP3   OH241882   6.480   5.191  10.264 -0.3202  0.1372  0.1919
 5896TIP3    H141883   6.575   5.187  10.278 -0.4472  1.6256  1.9289
 5896TIP3    H241884   6.462   5.123  10.200  1.6390 -1.6768  1.4156
 5897TIP3   OH241885   2.368   4.952  10.146  0.7875 -0.5601 -0.6152
 5897TIP3    H141886   2.369   4.884  10.213  1.6609 -0.4802 -0.5364
 5897TIP3    H241887   2.351   4.906  10.064 -1.0060 -0.5782 -0.2715
 5898TIP3   OH241888   4.801   4.871  12.245 -0.1520 -0.0449  0.5926
 5898TIP3    H141889   4.752   4.821  12.179 -1.6959 -0.4407  1.9716
 5898TIP3    H241890   4.788   4.822  12.326 -0.2572  1.6849  1.6607
 5899TIP3   OH241891   1.684   1.569   9.591 -0.1025  0.0638  0.2588
 5899TIP3    H141892   1.779   1.569   9.587 -0.0342  0.8357  1.4777
 5899TIP3    H241893   1.656   1.598   9.503  0.7207 -1.3241 -0.4968
 5900TIP3   OH241894   0.496   2.948   9.989  0.8265  0.2387 -0.0213
 5900TIP3    H141895   0.554   3.019  10.016  1.1703 -0.0189 -0.0717
 5900TIP3    H241896   0.435   2.938  10.063  1.1680  0.1697  0.2544
 5901TIP3   OH241897   2.945   2.261  11.083  0.3535  0.1941  0.1952
 5901TIP3    H141898   2.856   2.236  11.059  1.1475 -1.3119 -1.3502
 5901TIP3    H241899   2.956   2.347  11.042 -0.2101  0.1459 -0.0789
 5902TIP3   OH241900   3.394   1.543  10.581 -0.2746 -0.3573  0.0719
 5902TIP3    H141901   3.452   1.476  10.617 -0.8162 -2.3656 -2.4825
 5902TIP3    H241902   3.448   1.588  10.516 -0.9853 -0.9096 -0.9148
 5903TIP3   OH241903   6.166   0.451  10.924 -0.5507 -0.7227  0.3132
 5903TIP3    H141904   6.243   0.491  10.884 -0.3498 -0.6671  0.7445
 5903TIP3    H241905   6.199   0.369  10.961 -0.0916  0.4574  2.7403
 5904TIP3   OH241906   3.636   3.468  12.811  0.1093  0.6656  0.0384
 5904TIP3    H141907   3.565   3.426  12.762  0.1890  2.5271 -1.8688
 5904TIP3    H241908   3.716   3.430  12.775  0.1372  0.1000  0.6777
 5905TIP3   OH241909   3.005   2.496  12.110  0.2430  0.3090 -0.1351
 5905TIP3    H141910   2.958   2.549  12.174 -1.1985  0.0473 -0.9383
 5905TIP3    H241911   2.993   2.406  12.139 -3.5443 -0.1970 -2.5454
 5906TIP3   OH241912   5.146   4.446  11.148  0.1511  0.2084 -0.1160
 5906TIP3    H141913   5.108   4.532  11.132  2.5906  1.2223 -1.0272
 5906TIP3    H241914   5.084   4.402  11.205 -1.3946  2.3923 -0.0025
 5907TIP3   OH241915   0.528   1.352  12.173 -0.6086  0.2532 -0.4184
 5907TIP3    H141916   0.546   1.258  12.166 -1.4513  0.0359  0.1630
 5907TIP3    H241917   0.433   1.358  12.184 -0.5980  1.1935 -0.6997
 5908TIP3   OH241918   0.289   1.641  10.601  0.1273  0.1690 -0.0178
 5908TIP3    H141919   0.378   1.624  10.570  0.3681 -0.5794  1.0355
 5908TIP3    H241920   0.298   1.713  10.664  0.0186 -0.0606  0.2605
 5909TIP3   OH241921   0.799   4.541  11.191 -0.2249  0.3100  0.1745
 5909TIP3    H141922   0.789   4.496  11.275 -2.0863  0.2065 -0.0523
 5909TIP3    H241923   0.878   4.593  11.201 -0.2735  0.1215  1.9210
 5910TIP3   OH241924   2.762   6.605   9.353 -0.4777 -0.2839  0.1929
 5910TIP3    H141925   2.857   6.596   9.340 -0.8581 -2.7608 -1.5946
 5910TIP3    H241926   2.743   6.696   9.329  1.3248  0.0175 -0.2416
 5911TIP3   OH241927   4.718   0.430  11.465 -0.2565  0.0027  0.0028
 5911TIP3    H141928   4.758   0.497  11.521 -0.7838  0.1931  0.1639
 5911TIP3    H241929   4.764   0.438  11.382 -0.6831  0.9576 -0.1658
 5912TIP3   OH241930   5.789   3.309  12.057  0.1571  0.1908  0.5050
 5912TIP3    H141931   5.746   3.304  11.972  1.2140  0.8491 -0.0855
 5912TIP3    H241932   5.848   3.384  12.050  1.7662 -0.9623  1.1022
 5913TIP3   OH241933   1.268   3.599  10.105  0.0202 -0.3740  0.5681
 5913TIP3    H141934   1.279   3.623  10.013  2.4489 -0.1877  0.8451
 5913TIP3    H241935   1.287   3.505  10.108  2.0099 -0.0130  1.1011
 5914TIP3   OH241936   4.622   3.351  11.969  0.3017 -0.2343  0.0914
 5914TIP3    H141937   4.665   3.346  11.883 -1.3668  1.7793 -0.9444
 5914TIP3    H241938   4.564   3.274  11.971 -0.3974  0.2283 -1.0646
 5915TIP3   OH241939   1.702   5.570  10.983 -0.5013 -0.2479 -0.2106
 5915TIP3    H141940   1.766   5.511  10.942 -2.5042 -1.7541 -1.3004
 5915TIP3    H241941   1.622   5.519  10.989 -1.5542  1.4700  1.4594
 5916TIP3   OH241942   1.837   2.919  13.047  0.1939  0.2725  0.2198
 5916TIP3    H141943   1.794   2.989  13.096 -2.1501  0.0242 -1.3205
 5916TIP3    H241944   1.893   2.965  12.984 -1.9985  0.9106 -1.3865
 5917TIP3   OH241945   5.090   5.817  10.465 -0.0461  0.0567  0.0728
 5917TIP3    H141946   5.000   5.844  10.481 -0.8303 -3.0735  1.7867
 5917TIP3    H241947   5.094   5.726  10.496  3.5870 -0.1028 -0.3878
 5918TIP3   OH241948   3.187   5.446  10.349 -0.0839  0.2378 -0.1030
 5918TIP3    H141949   3.130   5.372  10.367 -1.0231  1.5457  2.9037
 5918TIP3    H241950   3.127   5.520  10.334  0.8365  0.8879 -0.7416
 5919TIP3   OH241951   6.527   5.595  12.302 -0.5116 -0.3882 -0.2175
 5919TIP3    H141952   6.554   5.543  12.378  0.1439  2.4761  1.6620
 5919TIP3    H241953   6.609   5.617  12.257 -0.6598 -0.0752 -0.3403
 5920TIP3   OH241954   5.802   4.583  11.784 -0.6755  0.4135 -0.2921
 5920TIP3    H141955   5.750   4.640  11.726 -2.9776 -1.5674 -0.3768
 5920TIP3    H241956   5.802   4.628  11.868  0.3214  2.0083 -1.0909
 5921TIP3   OH241957   3.199   4.019  12.997 -0.1207  0.0429  0.1777
 5921TIP3    H141958   3.222   4.018  13.090  1.0135  4.0509  0.1247
 5921TIP3    H241959   3.281   4.039  12.952 -1.0323  0.1937 -1.4941
 5922TIP3   OH241960   4.888   5.308  10.224 -0.1252 -0.5741  0.2897
 5922TIP3    H141961   4.804   5.319  10.269 -1.1367 -0.5364 -1.5224
 5922TIP3    H241962   4.887   5.218  10.191 -0.2069 -0.0691 -1.1536
 5923TIP3   OH241963   2.756   6.192  12.061 -0.6704 -0.1805 -0.2885
 5923TIP3    H141964   2.764   6.241  12.143 -1.3803 -0.9272  0.2386
 5923TIP3    H241965   2.781   6.102  12.085 -1.5611 -0.5491 -0.7285
 5924TIP3   OH241966   4.170   3.224  11.779  0.4094  0.0829  0.2979
 5924TIP3    H141967   4.194   3.138  11.746 -0.1108  0.5079 -1.3106
 5924TIP3    H241968   4.239   3.282  11.747 -0.3562  0.5832 -0.5114
 5925TIP3   OH241969   3.816   6.537  10.818  0.2181 -0.5204  0.0751
 5925TIP3    H141970   3.854   6.520  10.904 -1.1303 -2.4336  0.3481
 5925TIP3    H241971   3.756   6.610  10.832  0.8085 -0.1059  0.4948
 5926TIP3   OH241972   5.891   2.268  10.848  0.4394 -0.2910 -0.1322
 5926TIP3    H141973   5.956   2.225  10.792 -0.5652  0.8355 -2.2735
 5926TIP3    H241974   5.824   2.201  10.862  0.8461 -0.6777 -0.0058
 5927TIP3   OH241975   3.027   6.319   9.772 -0.0552 -0.4812  0.6042
 5927TIP3    H141976   2.968   6.253   9.734  0.8758 -1.1491  0.2715
 5927TIP3    H241977   3.059   6.368   9.697 -1.3669  0.9158  0.9191
 5928TIP3   OH241978   3.366   3.328  10.256  0.6650  0.0403  0.2247
 5928TIP3    H141979   3.445   3.354  10.304  1.4636 -2.0611  0.1279
 5928TIP3    H241980   3.391   3.336  10.164  0.1474  1.0789  0.1585
 5929TIP3   OH241981   5.632   0.785  11.048 -0.2695 -0.1008 -0.7059
 5929TIP3    H141982   5.553   0.743  11.015 -0.3523  0.7399 -1.6307
 5929TIP3    H241983   5.683   0.807  10.969  0.6187 -0.1161 -0.1571
 5930TIP3   OH241984   2.094   1.255   9.733  0.7922  0.1839  0.2272
 5930TIP3    H141985   2.056   1.279   9.648 -1.4464  0.1600  1.1567
 5930TIP3    H241986   2.180   1.219   9.711  0.7236  1.1443 -1.9266
 5931TIP3   OH241987   6.026   6.145  11.436  0.3998  0.1011  0.4318
 5931TIP3    H141988   5.959   6.143  11.505  1.1454  0.1921  1.1840
 5931TIP3    H241989   6.078   6.066  11.451  0.2247 -0.1779 -0.3946
 5932TIP3   OH241990   5.481   4.608  12.789  0.3617  0.1802 -0.0166
 5932TIP3    H141991   5.482   4.578  12.880 -1.9707 -0.9049 -0.2886
 5932TIP3    H241992   5.417   4.678  12.787  0.7720  0.5420 -0.7352
 5933TIP3   OH241993   5.554   3.158  12.695  0.4217  0.6194  0.6985
 5933TIP3    H141994   5.538   3.240  12.741 -1.0217  1.1306 -0.6332
 5933TIP3    H241995   5.504   3.166  12.614 -1.5793 -2.4756  1.4679
 5934TIP3   OH241996   5.267   2.721  11.115  0.2415  0.5518  0.4244
 5934TIP3    H141997   5.358   2.727  11.144  0.7758 -0.9955 -0.8474
 5934TIP3    H241998   5.269   2.747  11.023 -0.1450 -1.8053 -0.3221
 5935TIP3   OH241999   0.833   4.147  10.193  0.0539  0.1047  0.0875
 5935TIP3    H142000   0.908   4.169  10.249 -0.7053  2.5058  0.2722
 5935TIP3    H242001   0.760   4.196  10.231 -1.5932 -1.9770 -0.2419
 5936TIP3   OH242002   6.511   1.461  11.314  0.2219 -0.2406 -0.0209
 5936TIP3    H142003   6.493   1.380  11.267  0.6354 -1.4250  1.7960
 5936TIP3    H242004   6.446   1.463  11.384 -1.5107  2.3555 -1.5131
 5937TIP3   OH242005   5.741   2.916  10.100 -0.1644  0.2341  0.1841
 5937TIP3    H142006   5.807   2.968  10.053  0.0603  0.6078  0.8969
 5937TIP3    H242007   5.689   2.980  10.147 -0.1708 -0.1535  0.7163
 5938TIP3   OH242008   0.943   2.098  11.751 -0.3300  0.5202  0.5595
 5938TIP3    H142009   0.999   2.055  11.685 -0.6519  0.1446  0.5248
 5938TIP3    H242010   0.856   2.098  11.712 -0.3350  1.2182  0.5614
 5939TIP3   OH242011   1.812   4.239  11.663  0.7989  0.3511 -0.3627
 5939TIP3    H142012   1.745   4.273  11.604 -1.2441 -2.9746 -0.2334
 5939TIP3    H242013   1.792   4.280  11.747  0.5627  1.3210 -0.8763
 5940TIP3   OH242014   1.996   5.483  12.314  0.7305  0.2192  0.5092
 5940TIP3    H142015   1.940   5.561  12.319 -0.7780 -0.7194 -0.7314
 5940TIP3    H242016   2.048   5.496  12.234 -0.2826 -0.4894 -0.2872
 5941TIP3   OH242017   6.574   0.884  10.342 -0.2353  0.7633 -0.1974
 5941TIP3    H142018   6.496   0.894  10.286 -0.5481 -0.1518  0.0482
 5941TIP3    H242019   6.550   0.814  10.402  1.0978 -0.1298 -0.6749
 5942TIP3   OH242020   2.482   1.507  10.646  0.0802 -0.5025  0.1230
 5942TIP3    H142021   2.491   1.592  10.602 -0.7678 -0.4808 -0.0292
 5942TIP3    H242022   2.390   1.503  10.671  0.4181 -0.7539  1.4201
 5943TIP3   OH242023   5.084   6.141  12.497 -0.1987 -0.1705  0.6698
 5943TIP3    H142024   4.998   6.157  12.536 -0.4310 -0.4587  0.2808
 5943TIP3    H242025   5.065   6.112  12.408  0.2988 -0.3174  0.6096
 5944TIP3   OH242026   3.052   1.869  10.252  0.6302  0.0033 -0.1334
 5944TIP3    H142027   3.057   1.961  10.279  1.8564  0.0805 -0.5417
 5944TIP3    H242028   2.961   1.843  10.269  0.4805  1.0465  0.7647
 5945TIP3   OH242029   1.621   2.089  12.027  0.5223  0.1559 -0.2047
 5945TIP3    H142030   1.698   2.108  11.974  0.5165 -0.0355 -0.2839
 5945TIP3    H242031   1.626   1.994  12.043  0.2176  0.1138 -0.3519
 5946TIP3   OH242032   2.591   3.320  10.847  0.6172  0.1480  0.1731
 5946TIP3    H142033   2.566   3.242  10.798 -1.4251  1.3076 -0.7540
 5946TIP3    H242034   2.648   3.369  10.787 -0.3496  0.6592 -0.3546
 5947TIP3   OH242035   2.560   6.103  11.300 -0.5758  0.3451 -0.3353
 5947TIP3    H142036   2.565   6.123  11.206  0.1223 -0.9790 -0.5936
 5947TIP3    H242037   2.651   6.092  11.328 -0.7878  0.5272  0.4617
 5948TIP3   OH242038   6.300   1.462  12.382  0.1011  0.0718  0.3921
 5948TIP3    H142039   6.206   1.476  12.394  0.4726  1.5488  1.9633
 5948TIP3    H242040   6.314   1.371  12.409 -0.6931  0.2170  1.3269
 5949TIP3   OH242041   0.982   3.163  12.335 -0.5829  0.5759 -0.0425
 5949TIP3    H142042   1.046   3.223  12.295  1.1886 -0.9558  0.3361
 5949TIP3    H242043   0.976   3.192  12.426  1.2731 -0.5291  0.4848
 5950TIP3   OH242044   0.758   0.216   9.624 -0.1400 -0.5729  0.0662
 5950TIP3    H142045   0.717   0.203   9.538 -1.3504 -0.9828  0.6807
 5950TIP3    H242046   0.830   0.277   9.607 -0.8829  0.0278 -1.0989
 5951TIP3   OH242047   1.590   6.482  11.105 -0.0061  0.5548 -0.1905
 5951TIP3    H142048   1.639   6.498  11.186 -0.3265 -1.2145  0.3998
 5951TIP3    H242049   1.504   6.452  11.134  0.8343 -3.1661 -1.0080
 5952TIP3   OH242050   1.722   2.489  11.564 -0.1107  0.2790 -0.0975
 5952TIP3    H142051   1.644   2.449  11.604 -0.5140  0.5941 -0.5612
 5952TIP3    H242052   1.794   2.429  11.587 -0.5589 -0.2465 -0.0382
 5953TIP3   OH242053   4.997   6.570  13.427 -0.3555  0.2935 -0.3281
 5953TIP3    H142054   4.967   6.644  13.373 -1.2664  0.0286 -0.1938
 5953TIP3    H242055   4.928   6.504  13.418 -2.0958  1.3081  3.4489
 5954TIP3   OH242056   5.128   0.693  10.090  0.3047  0.1138 -0.8384
 5954TIP3    H142057   5.187   0.766  10.071 -2.4332  2.2419 -1.7949
 5954TIP3    H242058   5.067   0.728  10.156 -0.0478 -1.9191 -0.0111
 5955TIP3   OH242059   1.979   0.592  10.930  0.0115  0.0293 -0.2141
 5955TIP3    H142060   2.039   0.572  10.858  0.2219 -2.3769  0.5584
 5955TIP3    H242061   2.035   0.626  11.000  0.1222  0.0981 -0.3356
 5956TIP3   OH242062   0.404   6.065  20.712  0.2077 -0.3502  0.3119
 5956TIP3    H142063   0.442   6.084  20.798  3.1624 -1.1824 -0.6884
 5956TIP3    H242064   0.396   5.970  20.710  1.8392 -0.4978 -0.9211
 5957TIP3   OH242065   2.061   1.033  12.226 -0.5576  0.3566 -0.2882
 5957TIP3    H142066   2.118   1.082  12.285 -0.4971  2.5686 -2.0215
 5957TIP3    H242067   2.112   0.956  12.201  0.0706  0.2670  1.1808
 5958TIP3   OH242068   1.360   0.318  10.222 -0.2475  0.0525 -0.6072
 5958TIP3    H142069   1.305   0.278  10.290 -0.9813  0.3714 -1.0056
 5958TIP3    H242070   1.410   0.385  10.268  0.1543 -0.5492 -0.1509
 5959TIP3   OH242071   4.904   5.932  11.286 -0.5554 -0.2695 -0.3013
 5959TIP3    H142072   4.988   5.962  11.254 -0.8787  0.0679 -0.8447
 5959TIP3    H242073   4.871   6.005  11.339 -1.5215  0.5572 -1.9459
 5960TIP3   OH242074   4.451   1.632  11.568  0.3687 -0.0480  0.2932
 5960TIP3    H142075   4.403   1.639  11.485  2.1641 -0.5389 -0.8424
 5960TIP3    H242076   4.397   1.681  11.631  0.0231  2.2215 -1.6378
 5961TIP3   OH242077   6.147   6.505  11.624 -0.1634  0.2833  0.1174
 5961TIP3    H142078   6.229   6.474  11.662 -0.5092  0.2028  0.7961
 5961TIP3    H242079   6.167   6.594  11.594 -0.4550  1.1932  2.4447
 5962TIP3   OH242080   2.329   5.014  11.402 -0.4167 -0.0671 -0.9438
 5962TIP3    H142081   2.390   4.951  11.362  1.3016  0.6417  0.3995
 5962TIP3    H242082   2.261   4.960  11.441  0.9416 -1.1374  0.0505
 5963TIP3   OH242083   6.639   3.771   9.804 -0.6919  0.3800  0.3374
 5963TIP3    H142084   6.725   3.746   9.769 -0.7440  0.3602  0.2240
 5963TIP3    H242085   6.635   3.729   9.890 -0.1825  1.1745  0.7651
 5964TIP3   OH242086   0.547   4.649  11.114  0.9774  0.0854 -0.3540
 5964TIP3    H142087   0.479   4.582  11.121  0.2542  0.9827  2.1548
 5964TIP3    H242088   0.626   4.605  11.145  0.7780  0.0242  0.0716
 5965TIP3   OH242089   3.510   5.416  10.345  0.9169  0.4119  0.1574
 5965TIP3    H142090   3.562   5.487  10.382  0.1119  0.9817  0.2120
 5965TIP3    H242091   3.420   5.449  10.344  0.7321 -0.0644 -1.1521
 5966TIP3   OH242092   5.506   4.439  12.576  0.1487 -0.1490 -0.3280
 5966TIP3    H142093   5.475   4.493  12.648  0.6980 -0.8476  0.4462
 5966TIP3    H242094   5.578   4.387  12.613 -0.6069 -1.7014 -0.9314
 5967TIP3   OH242095   0.779   5.779  12.872 -0.0179  0.1670  0.1567
 5967TIP3    H142096   0.765   5.850  12.935 -0.9940 -0.2900  0.4759
 5967TIP3    H242097   0.873   5.763  12.874 -0.0295  0.1469  1.5144
 5968TIP3   OH242098   5.005   5.326  11.025  0.0929 -0.1612  0.4597
 5968TIP3    H142099   4.934   5.282  11.072 -1.0278 -0.3858 -1.3322
 5968TIP3    H242100   4.965   5.356  10.943  2.1192 -0.5560 -0.7582
 5969TIP3   OH242101   6.442   2.681  13.104 -0.3271  0.7126  0.6172
 5969TIP3    H142102   6.398   2.664  13.021  1.8861 -1.3838 -0.2592
 5969TIP3    H242103   6.510   2.745  13.082 -1.2019  1.9363  1.3712
 5970TIP3   OH242104   2.349   6.101  12.654 -0.0965  0.3722  0.4377
 5970TIP3    H142105   2.417   6.041  12.626 -0.1026  0.5286  0.0955
 5970TIP3    H242106   2.394   6.165  12.710 -0.1412 -0.1244  1.0587
 5971TIP3   OH242107   6.422   4.168  11.337  0.1595 -0.1139  0.2526
 5971TIP3    H142108   6.509   4.182  11.301  0.1058 -0.1487  0.1053
 5971TIP3    H242109   6.436   4.147  11.429  0.2572  0.5893  0.4009
 5972TIP3   OH242110   0.402   3.685  10.747 -0.0684  0.0816  0.5192
 5972TIP3    H142111   0.380   3.612  10.689 -0.0908  0.6740 -0.2325
 5972TIP3    H242112   0.498   3.686  10.748 -0.0226  1.4518 -1.3257
 5973TIP3   OH242113   6.077   4.902   9.323 -0.8582 -0.8416 -0.3094
 5973TIP3    H142114   5.992   4.935   9.350 -0.6284  0.1895 -0.8224
 5973TIP3    H242115   6.058   4.815   9.286 -1.8212 -0.2595 -1.2391
 5974TIP3   OH242116   0.059   5.213  10.293  0.7049 -0.0828  0.0307
 5974TIP3    H142117   0.100   5.187  10.210 -1.2029 -1.9777 -0.4207
 5974TIP3    H242118   0.097   5.154  10.358  0.2107 -0.4901 -0.0360
 5975TIP3   OH242119   1.144   0.356   9.048  0.0918 -0.6688 -0.0229
 5975TIP3    H142120   1.197   0.278   9.027 -0.5589 -0.5084 -2.5695
 5975TIP3    H242121   1.103   0.334   9.131  0.8261 -2.5875 -0.0936
 5976TIP3   OH242122   3.396   1.556  10.166  0.5490  0.5983  0.0402
 5976TIP3    H142123   3.428   1.644  10.186  1.0596  0.8413 -1.7566
 5976TIP3    H242124   3.466   1.498  10.196 -0.5287  0.6007  2.9077
 5977TIP3   OH242125   5.483   4.888  12.883 -0.0410 -0.5772  0.0262
 5977TIP3    H142126   5.446   4.961  12.932  0.0923 -0.0837 -0.5997
 5977TIP3    H242127   5.421   4.873  12.811  0.1438 -0.8056 -0.0861
 5978TIP3   OH242128   3.294   4.761  10.494 -0.2943  0.0540 -0.2558
 5978TIP3    H142129   3.227   4.810  10.447  0.2952  0.9032 -0.2220
 5978TIP3    H242130   3.369   4.762  10.435 -0.3434 -1.0145 -0.3571
 5979TIP3   OH242131   3.458   2.509   9.657  0.3416  0.4747 -0.0392
 5979TIP3    H142132   3.477   2.485   9.748  2.6636 -0.4589 -0.7069
 5979TIP3    H242133   3.520   2.579   9.637 -0.4137  0.9449 -0.7979
 5980TIP3   OH242134   5.942   0.916  12.817 -0.0884 -0.5190 -0.0801
 5980TIP3    H142135   6.014   0.943  12.874 -1.7411  0.8440  1.4825
 5980TIP3    H242136   5.939   0.821  12.825  1.0556 -0.5355  0.3974
 5981TIP3   OH242137   5.852   1.564   9.684  0.1107 -0.4436 -0.4010
 5981TIP3    H142138   5.870   1.655   9.708  1.1462 -0.8402  0.3722
 5981TIP3    H242139   5.762   1.550   9.715  0.5964 -0.2369  1.2499
 5982TIP3   OH242140   5.953   3.336  12.314 -0.0685 -0.1287  0.1492
 5982TIP3    H142141   5.992   3.367  12.396 -0.7460 -0.6334  0.6699
 5982TIP3    H242142   6.006   3.377  12.246  0.2893  0.5738  0.8316
 5983TIP3   OH242143   3.961   3.039  11.601 -0.0460 -0.2342 -0.0039
 5983TIP3    H142144   4.019   3.046  11.676 -0.0369  0.1496 -0.0407
 5983TIP3    H242145   3.898   2.971  11.624 -0.0237 -0.1379  0.3348
 5984TIP3   OH242146   0.674   0.875   9.492  0.3839 -0.0313  0.1192
 5984TIP3    H142147   0.687   0.892   9.586  1.0107  1.2455 -0.1782
 5984TIP3    H242148   0.762   0.878   9.454  0.3323 -2.1980 -0.2928
 5985TIP3   OH242149   2.813   6.104  11.671 -0.4699 -0.0024 -0.2512
 5985TIP3    H142150   2.755   6.116  11.746 -0.0613 -1.1521  0.2716
 5985TIP3    H242151   2.792   6.017  11.638  0.7714 -0.3286 -0.2119
 5986TIP3   OH242152   4.172   0.239  11.650  0.2586 -0.4118  0.1748
 5986TIP3    H142153   4.142   0.196  11.730  1.2659  0.0829  0.8440
 5986TIP3    H242154   4.252   0.193  11.625  2.3271  1.9653  1.8499
 5987TIP3   OH242155   1.582   4.242   9.890 -0.3431 -0.1671  0.3796
 5987TIP3    H142156   1.655   4.188   9.921  0.4150  0.7285  0.1834
 5987TIP3    H242157   1.600   4.329   9.925 -2.1762 -0.2477  1.7198
 5988TIP3   OH242158   0.855   4.566  10.213 -0.3088  0.2630  0.1954
 5988TIP3    H142159   0.805   4.601  10.287 -1.0165 -1.7003  0.6951
 5988TIP3    H242160   0.874   4.643  10.159  0.3998  1.7930  2.4805
 5989TIP3   OH242161   0.651   4.306  11.839 -0.3072  0.0155  0.1291
 5989TIP3    H142162   0.584   4.284  11.774  0.7087  0.3478 -1.0714
 5989TIP3    H242163   0.686   4.222  11.868  0.4548 -0.1145 -1.1017
 5990TIP3   OH242164   3.486   6.549  10.764 -0.5266  0.0318  0.0751
 5990TIP3    H142165   3.453   6.635  10.734  0.6461  0.2948 -0.5154
 5990TIP3    H242166   3.534   6.515  10.689  1.2378  0.0304  1.1444
 5991TIP3   OH242167   4.862   5.668   9.571  0.3948  0.3234  0.0794
 5991TIP3    H142168   4.820   5.602   9.626 -0.3838  1.0676  0.4046
 5991TIP3    H242169   4.955   5.662   9.593  0.0672  0.9116  1.8643
 5992TIP3   OH242170   2.738   2.559  10.394  0.2167  0.1765  0.0464
 5992TIP3    H142171   2.688   2.488  10.433 -0.0124  1.2957  1.9178
 5992TIP3    H242172   2.686   2.586  10.318 -2.1083  1.2738  1.8924
 5993TIP3   OH242173   4.483   0.485  10.016  0.2947 -0.3485  0.2381
 5993TIP3    H142174   4.517   0.568  10.049 -1.8824  0.9520 -0.5739
 5993TIP3    H242175   4.549   0.457   9.952  1.2552  0.5237  0.7989
 5994TIP3   OH242176   3.417   3.472  10.567  0.2786  0.3544 -0.0438
 5994TIP3    H142177   3.417   3.389  10.613 -0.7911 -0.7758 -1.9544
 5994TIP3    H242178   3.509   3.484  10.541  0.2986 -0.7349 -0.5542
 5995TIP3   OH242179   2.775   3.735  12.480  0.4965  0.0484 -0.0218
 5995TIP3    H142180   2.800   3.827  12.472 -0.2601  0.1651 -1.2517
 5995TIP3    H242181   2.833   3.701  12.548  1.0731  1.3301  0.1640
 5996TIP3   OH242182   6.681   5.952   9.648  0.0293  0.6145  0.1253
 5996TIP3    H142183   6.753   5.912   9.697 -0.0034 -0.0106 -0.3139
 5996TIP3    H242184   6.706   5.942   9.556  1.0226  3.5095 -0.0201
 5997TIP3   OH242185   5.274   0.635  12.266 -0.2006 -0.1860  0.0263
 5997TIP3    H142186   5.357   0.662  12.226 -1.4663 -0.5348 -3.1195
 5997TIP3    H242187   5.292   0.548  12.301  0.6531 -0.5138 -1.1441
 5998TIP3   OH242188   3.898   2.523   9.977  0.0854 -0.3939 -0.1026
 5998TIP3    H142189   3.904   2.460  10.049 -4.3827  1.5048  2.3398
 5998TIP3    H242190   3.823   2.493   9.924 -0.4464  1.3733 -0.4292
 5999TIP3   OH242191   5.965   1.310  10.335  0.4712 -0.5286  0.4047
 5999TIP3    H142192   5.931   1.390  10.374  0.8851 -0.5438  0.7980
 5999TIP3    H242193   6.060   1.317  10.344  0.5866 -0.4701 -0.7122
 6000TIP3   OH242194   1.345   4.033   9.865  0.6081 -0.2803  0.0818
 6000TIP3    H142195   1.410   4.093   9.903 -0.2162 -1.5104  3.9217
 6000TIP3    H242196   1.348   3.956   9.922 -3.1830 -0.9943 -0.4407
 6001TIP3   OH242197   4.502   5.340  12.692  0.1524  0.4173  0.0925
 6001TIP3    H142198   4.573   5.280  12.714 -0.2526 -0.1620 -0.1615
 6001TIP3    H242199   4.544   5.426  12.686  0.5815  0.3293  1.3859
 6002TIP3   OH242200   3.216   3.855  10.187 -0.1117  0.0968  0.0703
 6002TIP3    H142201   3.254   3.790  10.246  0.8693  0.7159  0.1355
 6002TIP3    H242202   3.121   3.839  10.192  0.1019 -1.2673  0.1418
 6003TIP3   OH242203   3.728   3.030  10.290  0.1335 -0.1247  0.3618
 6003TIP3    H142204   3.708   2.944  10.328  2.8751 -1.4593 -0.9023
 6003TIP3    H242205   3.782   3.073  10.357  1.9326 -1.0193 -0.4230
 6004TIP3   OH242206   2.268   5.715  11.812 -0.2119 -0.3115 -0.1710
 6004TIP3    H142207   2.328   5.706  11.886 -0.2870  4.5759  0.7806
 6004TIP3    H242208   2.325   5.718  11.735  0.3266 -0.1824  0.2299
 6005TIP3   OH242209   1.925   5.277  12.023  0.6871 -0.1658  0.8635
 6005TIP3    H142210   1.892   5.256  11.936 -0.2221 -1.7024  1.5445
 6005TIP3    H242211   2.020   5.279  12.014  0.6012 -0.3220 -0.1430
 6006TIP3   OH242212   5.420   3.314  11.528 -0.0847 -0.4240  0.3021
 6006TIP3    H142213   5.470   3.395  11.529 -1.0704  0.2930 -1.7774
 6006TIP3    H242214   5.332   3.340  11.557  0.0315 -1.1120  1.3022
 6007TIP3   OH242215   1.266   4.147  12.903 -0.1321 -0.3039  0.1077
 6007TIP3    H142216   1.309   4.202  12.968  0.4194  0.4641 -0.8868
 6007TIP3    H242217   1.330   4.079  12.882 -0.1146 -0.2507 -0.0117
 6008TIP3   OH242218   1.858   2.429  12.277  0.1457  0.0491 -0.5602
 6008TIP3    H142219   1.859   2.335  12.296 -1.1184  0.0969 -0.2121
 6008TIP3    H242220   1.786   2.464  12.328  1.4452  1.4706  0.3965
 6009TIP3   OH242221   1.426   2.209  10.142  0.4554  0.1039 -0.1278
 6009TIP3    H142222   1.379   2.291  10.129  1.9790  1.1805  0.6999
 6009TIP3    H242223   1.393   2.151  10.074 -0.3997  1.5245 -0.9906
 6010TIP3   OH242224   3.618   3.197  11.055 -0.3596  0.3802  0.0992
 6010TIP3    H142225   3.593   3.289  11.052 -1.4848  0.0881  0.1992
 6010TIP3    H242226   3.540   3.150  11.024  0.2202 -0.5317 -0.0101
 6011TIP3   OH242227   5.788   5.578  11.753  0.8400  0.4773  0.2938
 6011TIP3    H142228   5.836   5.571  11.835 -0.3251 -1.2222  0.8859
 6011TIP3    H242229   5.696   5.578  11.779  0.4522 -0.1785 -1.0081
 6012TIP3   OH242230   4.678   5.691  12.379 -0.1974  0.2884  0.0361
 6012TIP3    H142231   4.686   5.669  12.472 -3.0691 -0.7215  0.1654
 6012TIP3    H242232   4.703   5.611  12.333 -1.3313 -0.1186  0.0943
 6013TIP3   OH242233   6.057   5.019  11.079  0.2552 -0.3047 -0.0616
 6013TIP3    H142234   6.070   5.081  11.007  0.0172  0.0065  0.1608
 6013TIP3    H242235   6.036   4.936  11.036  0.4298 -0.1977 -0.3586
 6014TIP3   OH242236   1.816   4.675  10.758  0.7191 -0.1159  0.3890
 6014TIP3    H142237   1.804   4.580  10.768  1.6142 -0.2949 -0.1380
 6014TIP3    H242238   1.846   4.705  10.844 -2.1496  0.1606  1.4003
 6015TIP3   OH242239   5.885   5.249  10.192 -0.1150  0.0191 -0.1134
 6015TIP3    H142240   5.964   5.231  10.244  0.7821  2.4914 -0.4854
 6015TIP3    H242241   5.910   5.225  10.103  0.0651  0.3753 -0.1598
 6016TIP3   OH242242   3.975   6.683  10.015  0.1428  0.3670 -0.6660
 6016TIP3    H142243   3.919   6.640  10.080  1.3497 -0.2140  0.0351
 6016TIP3    H242244   4.021   6.610   9.972  0.1230  0.8090 -1.4529
 6017TIP3   OH242245   4.540   5.173  10.098 -0.6532 -0.4257  0.0720
 6017TIP3    H142246   4.536   5.252  10.151 -0.1063  0.1878 -0.7905
 6017TIP3    H242247   4.595   5.196  10.023 -3.1959 -0.5084 -2.0000
 6018TIP3   OH242248   5.211   2.910  11.311 -0.1467  0.5547  0.0391
 6018TIP3    H142249   5.201   2.898  11.217  1.8300  0.6375 -0.2310
 6018TIP3    H242250   5.299   2.947  11.321 -1.0739  2.5040  1.7735
 6019TIP3   OH242251   0.340   4.434  12.058 -0.6325  0.3522  0.1627
 6019TIP3    H142252   0.317   4.486  12.135 -1.8123 -0.3095  0.2770
 6019TIP3    H242253   0.433   4.414  12.069 -0.7619  0.3650  1.3610
 6020TIP3   OH242254   5.610   3.618  10.094  0.0472 -0.3087 -0.3141
 6020TIP3    H142255   5.531   3.581  10.056 -0.2689 -1.9288  1.7454
 6020TIP3    H242256   5.586   3.639  10.184  1.4452  1.0465 -0.2078
 6021TIP3   OH242257   5.925   0.610  12.899  0.6364  0.0306  0.0740
 6021TIP3    H142258   5.838   0.589  12.934  0.9459 -0.9329  0.2722
 6021TIP3    H242259   5.919   0.588  12.806  0.5082  0.4790 -0.0275
 6022TIP3   OH242260   5.937   4.312   9.424 -0.2431  0.1334 -0.5690
 6022TIP3    H142261   5.882   4.390   9.426  0.3102  0.6071 -2.3645
 6022TIP3    H242262   5.885   4.245   9.468 -0.4676  1.6343  1.5960
 6023TIP3   OH242263   1.617   4.315  11.497 -0.2776 -0.2396 -0.4320
 6023TIP3    H142264   1.605   4.407  11.475 -3.6294  0.0905  2.0041
 6023TIP3    H242265   1.575   4.268  11.425 -2.1398  0.3778  0.1950
 6024TIP3   OH242266   5.086   1.922  11.122  0.0350 -0.5161  0.1195
 6024TIP3    H142267   5.125   1.849  11.074  1.2390 -0.6224  1.2230
 6024TIP3    H242268   5.043   1.881  11.198 -2.0032 -0.3707 -0.8714
 6025TIP3   OH242269   6.643   4.038  11.886  0.0287 -0.1877 -0.1176
 6025TIP3    H142270   6.718   4.052  11.828  1.0791  1.7073  1.5949
 6025TIP3    H242271   6.643   3.944  11.903  2.6217 -0.1337  0.5638
 6026TIP3   OH242272   0.016   4.005   9.588 -0.8387 -0.4626 -0.4934
 6026TIP3    H142273   0.033   3.995   9.682  0.0496 -1.5266 -0.7383
 6026TIP3    H242274  -0.079   3.994   9.579 -1.2811  1.9554  0.5179
 6027TIP3   OH242275   0.886   4.760  11.956 -0.1524  0.3729  0.0454
 6027TIP3    H142276   0.833   4.795  12.028 -0.1757  2.4596 -0.8990
 6027TIP3    H242277   0.824   4.710  11.903 -0.6477  0.7570  0.2527
 6028TIP3   OH242278   0.223   3.635  10.341 -1.3301  0.0135 -0.5496
 6028TIP3    H142279   0.193   3.547  10.316  0.2644 -0.6570 -0.2685
 6028TIP3    H242280   0.198   3.691  10.267 -1.6943 -0.8389 -1.0912
 6029TIP3   OH242281   2.772   3.436  13.071 -0.2557 -0.2091  0.2783
 6029TIP3    H142282   2.838   3.404  13.009  1.3331  0.4370  1.5664
 6029TIP3    H242283   2.727   3.357  13.100 -4.2543 -0.3711 -4.8487
 6030TIP3   OH242284   1.187   6.024  10.914  0.0304  0.0090 -0.9546
 6030TIP3    H142285   1.092   6.014  10.914  0.0276 -0.0310 -1.8430
 6030TIP3    H242286   1.202   6.114  10.940 -0.3035  0.3979 -2.0718
 6031TIP3   OH242287   6.399   1.001  11.481  0.2315 -0.0702  0.2148
 6031TIP3    H142288   6.304   1.002  11.494  0.0381 -2.5637 -0.5144
 6031TIP3    H242289   6.411   1.023  11.388  0.5014  1.5880  0.6129
 6032TIP3   OH242290   6.663   6.683   9.866 -0.1120  0.3421 -0.5543
 6032TIP3    H142291   6.756   6.691   9.849 -0.2887 -0.0958 -1.8262
 6032TIP3    H242292   6.656   6.618   9.936  0.4777 -0.6245 -1.3768
 6033TIP3   OH242293   4.912   0.364  11.745 -0.1627 -0.1090 -0.6188
 6033TIP3    H142294   4.898   0.445  11.696 -2.2426 -1.0754 -1.7750
 6033TIP3    H242295   4.850   0.369  11.818  0.4467 -0.2062 -0.0914
 6034TIP3   OH242296   4.872   4.092  12.475 -0.5509 -0.3201 -0.3576
 6034TIP3    H142297   4.878   3.999  12.454  0.7621 -0.2123 -0.5636
 6034TIP3    H242298   4.782   4.104  12.505 -0.2391 -2.0234  1.4454
 6035TIP3   OH242299   4.063   2.074  12.220  0.2759 -0.4465 -0.0411
 6035TIP3    H142300   4.103   2.089  12.306  1.0532  1.5883 -0.7012
 6035TIP3    H242301   4.085   2.152  12.169 -2.4475 -0.3666 -1.2664
 6036TIP3   OH242302   3.927   0.888  11.309  0.4783  0.2133 -0.0905
 6036TIP3    H142303   3.920   0.892  11.404 -0.2092  0.3797 -0.1438
 6036TIP3    H242304   3.837   0.879  11.279  0.6153  0.9205 -0.7582
 6037TIP3   OH242305   4.406   4.364  11.157  0.2382 -0.2138 -0.4930
 6037TIP3    H142306   4.483   4.418  11.174 -0.1147 -0.2127  1.2547
 6037TIP3    H242307   4.405   4.353  11.062  2.9086 -1.0276 -0.4750
 6038TIP3   OH242308   3.902   5.469  10.316 -0.2052  0.2940 -0.6547
 6038TIP3    H142309   3.909   5.509  10.229  0.8241  2.3154  0.2858
 6038TIP3    H242310   3.862   5.537  10.371  0.1189 -0.5556  0.6819
 6039TIP3   OH242311   3.680   3.969  10.446 -0.0153  0.4375 -0.3179
 6039TIP3    H142312   3.761   4.019  10.446 -0.0429  0.4820 -0.3653
 6039TIP3    H242313   3.615   4.029  10.483  0.2771 -0.0867  1.0849
 6040TIP3   OH242314   5.253   2.658  10.765  0.5523 -0.0318  0.2047
 6040TIP3    H142315   5.343   2.650  10.797  1.5312  2.4772 -1.6443
 6040TIP3    H242316   5.249   2.744  10.725 -2.5112 -0.3577 -0.4409
 6041TIP3   OH242317   6.669   0.953  11.819  0.2849 -0.1375  0.3191
 6041TIP3    H142318   6.726   0.990  11.886  1.2517 -1.2673  0.1574
 6041TIP3    H242319   6.635   1.029  11.771  1.8829  0.5606  0.2363
 6042TIP3   OH242320   0.861   6.225  12.468 -0.3042  0.4211  0.0045
 6042TIP3    H142321   0.901   6.191  12.548 -2.4093  0.5566  1.1780
 6042TIP3    H242322   0.787   6.279  12.499 -1.3980  0.1695 -2.0279
 6043TIP3   OH242323   5.159   5.530  12.997 -0.5901 -0.4981  0.3935
 6043TIP3    H142324   5.100   5.456  13.011 -0.7017 -0.5078 -0.1289
 6043TIP3    H242325   5.239   5.491  12.964 -1.4534 -0.2169 -2.2684
 6044TIP3   OH242326   3.071   1.607  10.088 -0.3216 -0.1543 -0.1578
 6044TIP3    H142327   3.087   1.678  10.150  1.0413 -1.3176  0.8967
 6044TIP3    H242328   3.069   1.528  10.141 -0.6028 -1.0394 -1.4341
 6045TIP3   OH242329   2.111   5.624  11.294  0.1328 -0.3917 -0.3471
 6045TIP3    H142330   2.052   5.554  11.267  1.7252 -1.9806  0.1148
 6045TIP3    H242331   2.060   5.704  11.282 -1.7417 -1.6053 -0.9207
 6046TIP3   OH242332   4.622   1.116  11.043  0.1809 -0.1575 -0.0316
 6046TIP3    H142333   4.634   1.037  11.095  1.1863 -0.2296 -0.3511
 6046TIP3    H242334   4.527   1.119  11.026 -0.2914  0.2833  2.4000
 6047TIP3   OH242335   0.705   5.901  10.247 -0.6594  0.1075 -0.2742
 6047TIP3    H142336   0.647   5.859  10.183 -1.6048  0.4320  0.3312
 6047TIP3    H242337   0.706   5.993  10.221  0.2754 -0.0395 -0.7754
 6048TIP3   OH242338   5.734   3.157   9.731 -0.3336  0.3727 -0.2452
 6048TIP3    H142339   5.716   3.249   9.751  1.3198  0.7907 -0.5528
 6048TIP3    H242340   5.734   3.153   9.635 -2.4181 -0.4112 -0.2700
 6049TIP3   OH242341   4.971   3.954   9.637  0.2301 -0.6245  0.0289
 6049TIP3    H142342   5.023   3.912   9.706  0.0741  0.9634  1.1896
 6049TIP3    H242343   4.881   3.927   9.656  0.2910 -0.8931 -0.0724
 6050TIP3   OH242344   6.309   2.242  11.488 -0.2337  0.2934 -0.1261
 6050TIP3    H142345   6.344   2.330  11.474 -1.9379  1.0800  0.2779
 6050TIP3    H242346   6.252   2.251  11.564 -0.3632 -1.1900 -0.0261
 6051TIP3   OH242347   6.678   0.659  10.516  0.7775  0.6299 -0.7384
 6051TIP3    H142348   6.633   0.579  10.486  0.4830  1.2692 -2.0652
 6051TIP3    H242349   6.734   0.683  10.443  0.5935  1.8435 -0.4955
 6052TIP3   OH242350   0.166   1.605  10.034  0.7487 -0.1408  0.0088
 6052TIP3    H142351   0.157   1.561  10.119 -0.4461  1.7326  0.9058
 6052TIP3    H242352   0.258   1.631  10.030  1.0753 -1.2087  0.1971
 6053TIP3   OH242353   1.050   3.356  11.533  0.0258  0.4784  0.2111
 6053TIP3    H142354   1.090   3.309  11.606  1.6727  0.1738 -0.8528
 6053TIP3    H242355   1.123   3.379  11.476 -1.3624 -0.7895 -2.2369
 6054TIP3   OH242356   6.414   2.811  12.116 -0.5469 -0.4467  0.4835
 6054TIP3    H142357   6.329   2.832  12.077 -0.6222  0.0965  0.9211
 6054TIP3    H242358   6.473   2.805  12.041 -0.5458  1.2508  0.3056
 6055TIP3   OH242359   6.056   5.489  10.618  0.2490 -0.1450 -0.4204
 6055TIP3    H142360   6.036   5.426  10.687 -0.9908  0.1053 -0.5263
 6055TIP3    H242361   6.127   5.543  10.653 -1.1420  0.7436  1.1568
 6056TIP3   OH242362   5.629   3.383  10.319 -0.1751  0.3079  0.1087
 6056TIP3    H142363   5.612   3.378  10.225 -1.0926  1.0113  0.2325
 6056TIP3    H242364   5.724   3.399  10.325 -0.1039  0.2172 -0.6884
 6057TIP3   OH242365   3.071   5.872  10.731 -0.0246 -0.3865  0.1745
 6057TIP3    H142366   3.157   5.835  10.749 -0.0650 -1.3656 -1.4118
 6057TIP3    H242367   3.080   5.910  10.643 -1.4712 -1.4987 -0.5018
 6058TIP3   OH242368   3.041   4.813  10.357 -0.1228  0.2030  0.3721
 6058TIP3    H142369   2.971   4.876  10.347  0.1672  0.5800  0.7079
 6058TIP3    H242370   3.023   4.746  10.291 -1.3971 -0.2675  1.1601
 6059TIP3   OH242371   2.261   2.533  10.663  0.2485  0.0961  0.4075
 6059TIP3    H142372   2.174   2.563  10.687  0.0029  0.2869 -0.6376
 6059TIP3    H242373   2.306   2.613  10.633  0.3607 -0.1903 -0.2184
 6060TIP3   OH242374   0.447   6.297  10.828 -0.7023  0.4899 -0.6181
 6060TIP3    H142375   0.407   6.383  10.814  1.0683  1.8186  1.6611
 6060TIP3    H242376   0.509   6.311  10.900 -1.1724 -2.9863  0.6611
 6061TIP3   OH242377   3.544   4.825  11.317 -0.4217 -0.1665 -0.3037
 6061TIP3    H142378   3.620   4.824  11.376 -0.6496  0.3948 -0.0017
 6061TIP3    H242379   3.548   4.739  11.273  0.2718 -0.2251 -0.1494
 6062TIP3   OH242380   5.294   0.564  11.913 -0.5888 -0.6572 -0.2114
 6062TIP3    H142381   5.255   0.644  11.948 -0.9314 -0.6788 -0.5314
 6062TIP3    H242382   5.388   0.581  11.912 -0.7097  0.0268 -0.9724
 6063TIP3   OH242383   5.806   2.889   9.765 -0.6201 -0.5475 -0.1624
 6063TIP3    H142384   5.853   2.909   9.846 -0.9593 -2.0192  0.4199
 6063TIP3    H242385   5.773   2.974   9.735  1.6392  0.4154 -0.1345
 6064TIP3   OH242386   6.331   3.038  11.143 -0.7508  0.0512 -0.2706
 6064TIP3    H142387   6.404   3.094  11.168 -0.9258  0.1204  0.0965
 6064TIP3    H242388   6.372   2.957  11.114 -0.3628  1.0723 -2.8466
 6065TIP3   OH242389   1.442   2.673  12.531 -0.7836  0.1567  0.2874
 6065TIP3    H142390   1.444   2.718  12.447  1.1047 -2.1429 -1.0535
 6065TIP3    H242391   1.372   2.608  12.521  1.3669 -2.1868 -0.8645
 6066TIP3   OH242392   1.721   0.496  10.100  0.5149 -0.1400 -0.3062
 6066TIP3    H142393   1.716   0.522  10.192 -0.7130  0.0539 -0.4059
 6066TIP3    H242394   1.813   0.473  10.086  0.6547 -0.4737  1.0470
 6067TIP3   OH242395   4.885   0.288  12.932  0.5560  0.3367  0.1227
 6067TIP3    H142396   4.863   0.380  12.919 -2.7548 -0.4314 -0.4819
 6067TIP3    H242397   4.854   0.269  13.020  0.6908 -0.3759  0.0201
 6068TIP3   OH242398   0.316   5.906   9.923 -0.0898  0.5587 -0.3705
 6068TIP3    H142399   0.402   5.945   9.941 -0.6965  1.9893 -0.3888
 6068TIP3    H242400   0.253   5.969   9.959 -1.1342 -0.9486  0.5708
 6069TIP3   OH242401   1.065   4.069   9.869 -0.0815  0.6916  0.2331
 6069TIP3    H142402   1.045   3.988   9.823  0.7403  0.2317  0.6512
 6069TIP3    H242403   1.159   4.081   9.855 -0.1803  1.5337  0.2438
 6070TIP3   OH242404   1.256   1.105  10.638 -0.4052 -0.2419 -0.5274
 6070TIP3    H142405   1.264   1.011  10.623  0.5979  0.1581 -2.9617
 6070TIP3    H242406   1.344   1.134  10.659 -0.7488  0.1495  0.4319
 6071TIP3   OH242407   4.485   6.324  10.242 -0.0045 -0.2285  0.9759
 6071TIP3    H142408   4.445   6.409  10.261  1.8016  0.5841  1.3894
 6071TIP3    H242409   4.447   6.298  10.158 -0.1266  1.3138  0.5127
 6072TIP3   OH242410   5.556   2.663   9.528 -0.1974  0.4722  0.4022
 6072TIP3    H142411   5.617   2.646   9.600 -1.1939 -1.4452  0.8698
 6072TIP3    H242412   5.609   2.708   9.462  1.1656  0.7754  1.6453
 6073TIP3   OH242413   0.578   6.307   9.931  0.8175 -0.1141 -0.2501
 6073TIP3    H142414   0.485   6.323   9.945  0.5665  0.1747 -2.0988
 6073TIP3    H242415   0.617   6.393   9.921  1.2139 -0.2547  0.0411
 6074TIP3   OH242416   5.924   0.013  11.329 -0.3149  0.0708  0.3512
 6074TIP3    H142417   5.998   0.006  11.270 -0.9407  1.2472 -0.6101
 6074TIP3    H242418   5.863   0.072  11.285 -1.3225  0.0424  1.6337
 6075TIP3   OH242419   4.738   2.220  10.489 -0.5215  0.6495  0.3055
 6075TIP3    H142420   4.689   2.163  10.428 -0.1016  1.0659 -0.4367
 6075TIP3    H242421   4.672   2.251  10.550 -0.9741  0.2781  0.0173
 6076TIP3   OH242422   3.519   5.375  13.001 -0.1204  0.3232  0.1923
 6076TIP3    H142423   3.541   5.409  13.088  0.8559 -3.5716  1.7233
 6076TIP3    H242424   3.466   5.297  13.019  1.2814 -1.4222 -2.5516
 6077TIP3   OH242425   0.437   6.640  10.148  0.1952 -0.5646  0.7415
 6077TIP3    H142426   0.384   6.599  10.216 -0.0886  1.8292  2.0883
 6077TIP3    H242427   0.528   6.625  10.176  0.0804  0.3863  1.6945
 6078TIP3   OH242428   6.380   6.034   9.915  0.1004 -0.2608 -0.3731
 6078TIP3    H142429   6.287   6.054   9.929  0.1435 -0.6919  0.6435
 6078TIP3    H242430   6.426   6.092   9.976  0.3436 -1.7547  0.9441
 6079TIP3   OH242431   2.087   3.052  11.773 -0.4334  0.3614 -0.0154
 6079TIP3    H142432   2.145   3.100  11.713 -1.1448 -1.5832 -2.4262
 6079TIP3    H242433   1.999   3.070  11.741 -1.0604  1.1311  1.9647
 6080TIP3   OH242434   3.949   4.613   9.779 -0.7182 -0.4004 -0.0830
 6080TIP3    H142435   3.949   4.536   9.836  0.0382 -1.2626 -1.2099
 6080TIP3    H242436   3.893   4.589   9.706 -0.5765  0.1660 -0.3850
 6081TIP3   OH242437   1.005   3.981  11.926 -0.5819  0.4573 -0.4012
 6081TIP3    H142438   1.095   4.011  11.935 -0.2893 -0.9542  2.3264
 6081TIP3    H242439   1.010   3.886  11.934 -2.2703  0.2781 -1.0068
 6082TIP3   OH242440   0.603   1.044  12.483  0.3123  0.6591  0.0948
 6082TIP3    H142441   0.563   1.095  12.412 -0.1217  1.5149  0.9410
 6082TIP3    H242442   0.534   1.034  12.548  0.1031 -1.8247 -0.4285
 6083TIP3   OH242443   2.298   2.178  10.880  0.1389  0.7947  0.0862
 6083TIP3    H142444   2.254   2.252  10.838 -1.2116 -1.3808 -2.6702
 6083TIP3    H242445   2.229   2.114  10.895  1.3386 -0.1492  1.9133
 6084TIP3   OH242446   2.257   4.310   9.740  0.1232 -0.2438  0.0733
 6084TIP3    H142447   2.265   4.369   9.815 -1.3312 -0.8404  0.7398
 6084TIP3    H242448   2.289   4.361   9.665  1.4048  0.4322  1.0456
 6085TIP3   OH242449   3.062   3.644  13.202 -0.5500  0.2605 -0.3318
 6085TIP3    H142450   3.070   3.553  13.175 -1.7492 -0.6665  2.1860
 6085TIP3    H242451   2.971   3.653  13.230  0.4024  1.1929  2.8152
 6086TIP3   OH242452   1.956   1.336  11.990  0.3634  0.3922  0.2534
 6086TIP3    H142453   2.042   1.360  12.024  0.3574 -1.3666  1.6592
 6086TIP3    H242454   1.897   1.350  12.065 -0.3125  0.1046 -0.2189
 6087TIP3   OH242455   5.919   0.024  13.256 -0.2437  0.3755  0.0179
 6087TIP3    H142456   5.853  -0.043  13.271  0.2900 -0.4566 -1.1840
 6087TIP3    H242457   5.911   0.045  13.163 -0.5101  2.1186  0.3983
 6088TIP3   OH242458   3.014   3.869  10.993 -0.1082  0.8989  0.5035
 6088TIP3    H142459   3.072   3.925  11.045  1.6912  0.0525 -0.5032
 6088TIP3    H242460   2.941   3.926  10.969  0.5745  2.1715  1.3446
 6089TIP3   OH242461   1.411   3.948  12.419  0.0944 -0.0904  0.6143
 6089TIP3    H142462   1.456   3.991  12.491 -0.8990  0.0190  1.1879
 6089TIP3    H242463   1.379   3.866  12.456 -1.6643  0.6154  0.7240
 6090TIP3   OH242464   2.352   2.047  11.279 -0.1612 -0.7903 -0.9780
 6090TIP3    H142465   2.399   2.116  11.232  0.8075 -3.6142 -4.5620
 6090TIP3    H242466   2.260   2.071  11.271  0.2121  0.9923 -0.4480
 6091TIP3   OH242467   5.320   4.054   9.634  0.2377  0.2801  0.2463
 6091TIP3    H142468   5.263   4.094   9.700 -0.8303  0.1321 -0.5723
 6091TIP3    H242469   5.262   4.030   9.562  1.3955  0.4937 -0.7977
 6092TIP3   OH242470   0.014   2.158  11.958 -0.3008  0.4303  0.0311
 6092TIP3    H142471  -0.071   2.177  11.997  0.0223  1.0647  0.4363
 6092TIP3    H242472   0.074   2.221  11.997  0.4064 -0.1439 -0.0874
 6093TIP3   OH242473   1.703   2.577   9.837 -0.4261 -0.0237  0.8889
 6093TIP3    H142474   1.690   2.660   9.883 -0.2240 -0.3199  1.4996
 6093TIP3    H242475   1.763   2.597   9.766 -1.8818  0.7581 -0.1835
 6094TIP3   OH242476   2.406   5.788   9.902  0.4867  0.1234 -0.0215
 6094TIP3    H142477   2.427   5.838   9.981 -0.5772 -1.5585  1.4005
 6094TIP3    H242478   2.345   5.844   9.854 -0.2832  0.4420  1.2744
 6095TIP3   OH242479   4.921   2.100   9.582  0.1758  0.0713  0.3753
 6095TIP3    H142480   4.927   2.006   9.566  1.5270  0.0565  0.8389
 6095TIP3    H242481   5.011   2.128   9.595 -0.1684  1.5102 -0.1124
 6096TIP3   OH242482   0.320   1.031  10.188  0.3178 -0.6180  0.2520
 6096TIP3    H142483   0.284   0.981  10.114  0.0698  1.8688 -1.4225
 6096TIP3    H242484   0.243   1.060  10.237  0.2456  0.6746 -0.5805
 6097TIP3   OH242485   0.422   6.041  11.731 -0.1092  0.5389 -0.2538
 6097TIP3    H142486   0.385   6.124  11.699 -1.9113 -0.7381 -1.7067
 6097TIP3    H242487   0.509   6.064  11.762  0.0309  2.7253 -2.0062
 6098TIP3   OH242488   5.932   3.629  11.495 -0.4325 -0.1460 -0.2693
 6098TIP3    H142489   6.019   3.613  11.531 -0.5881 -2.1248 -0.6444
 6098TIP3    H242490   5.946   3.639  11.400 -0.8445 -4.1485 -0.9344
 6099TIP3   OH242491   5.221   6.423  10.932 -0.0550 -0.1684  0.5868
 6099TIP3    H142492   5.165   6.469  10.995  1.3586  1.9872  0.3703
 6099TIP3    H242493   5.165   6.409  10.856 -1.0450 -0.5116  1.3460
 6100TIP3   OH242494   2.528   5.166   9.850  0.2797 -0.1431 -0.1697
 6100TIP3    H142495   2.470   5.185   9.776  0.8622 -0.1464 -0.6321
 6100TIP3    H242496   2.557   5.252   9.881 -0.5228 -0.1068  0.5169
 6101TIP3   OH242497   3.198   4.986  12.684 -0.2715  0.2616  0.0938
 6101TIP3    H142498   3.160   5.027  12.762 -0.7125  1.3275 -0.6576
 6101TIP3    H242499   3.207   4.894  12.707  1.2052  0.8236  2.0280
 6102TIP3   OH242500   6.226   3.721  11.066  0.2051 -0.1098 -0.1744
 6102TIP3    H142501   6.143   3.723  11.019 -0.9519  2.0599  1.8048
 6102TIP3    H242502   6.226   3.637  11.112  0.1025 -1.0194 -1.7697
 6103TIP3   OH242503   6.225   3.469  10.667 -0.1955  0.0351  0.6418
 6103TIP3    H142504   6.249   3.405  10.600 -1.5939 -0.7559  0.8647
 6103TIP3    H242505   6.223   3.553  10.620  0.6577 -0.2158  0.1261
 6104TIP3   OH242506   4.730   4.626  11.870 -0.0130 -0.6718 -0.0196
 6104TIP3    H142507   4.734   4.617  11.965 -0.1295  1.0830  0.1766
 6104TIP3    H242508   4.816   4.598  11.839  0.4530 -0.0815  0.7209
 6105TIP3   OH242509   1.384   4.301  10.538 -0.4237 -0.0865 -0.8133
 6105TIP3    H142510   1.311   4.315  10.598 -0.4244 -1.2294 -0.5209
 6105TIP3    H242511   1.429   4.224  10.573  2.0096  1.5959  0.0733
 6106TIP3   OH242512   6.574   4.133  10.393 -0.2793 -0.0529  0.2700
 6106TIP3    H142513   6.623   4.063  10.436  0.1706  1.3664  2.2205
 6106TIP3    H242514   6.565   4.200  10.460 -1.4079  1.4276 -1.2809
 6107TIP3   OH242515   1.239   2.412  10.075 -0.5148 -0.4997 -0.1637
 6107TIP3    H142516   1.233   2.463   9.994  0.5614 -0.3672 -0.1682
 6107TIP3    H242517   1.162   2.355  10.072 -1.1249  0.3297 -0.7021
 6108TIP3   OH242518   2.244   6.065  11.699  0.8088  0.3173  0.1440
 6108TIP3    H142519   2.212   6.048  11.610 -0.1373  1.2459  0.2885
 6108TIP3    H242520   2.242   5.979  11.742  1.1666 -0.1193 -0.6861
 6109TIP3   OH242521   1.066   6.435  12.287  0.5926  0.2207  0.0245
 6109TIP3    H142522   0.984   6.389  12.271  0.3572  0.2714  1.0426
 6109TIP3    H242523   1.119   6.375  12.338  0.6660  0.6934  0.5174
 6110TIP3   OH242524   1.004   4.691  11.352  0.3860 -0.1247  0.6230
 6110TIP3    H142525   1.020   4.773  11.306  0.0346 -0.5025 -0.2011
 6110TIP3    H242526   0.994   4.716  11.444 -0.1402  0.8007  0.3231
 6111TIP3   OH242527   3.426   6.216  10.027 -0.9401 -0.3114  0.0391
 6111TIP3    H142528   3.367   6.292  10.026  0.0721  0.5031 -0.0991
 6111TIP3    H242529   3.438   6.193   9.935  0.8862  1.1304 -0.1601
 6112TIP3   OH242530   4.543   0.298  12.824 -0.6567 -0.1421 -0.3475
 6112TIP3    H142531   4.632   0.324  12.801 -0.6511 -0.9287 -1.2795
 6112TIP3    H242532   4.537   0.313  12.918  0.1816  0.7189 -0.4246
 6113TIP3   OH242533   1.205   3.444  11.310 -0.2620 -0.4167 -0.0219
 6113TIP3    H142534   1.262   3.503  11.261 -0.2593  0.2513  0.7577
 6113TIP3    H242535   1.155   3.397  11.243  0.8793 -0.6964 -0.7017
 6114TIP3   OH242536   2.370   0.824   9.879  0.3527 -0.5499 -0.0662
 6114TIP3    H142537   2.433   0.872   9.825  0.5519 -0.7647 -0.0254
 6114TIP3    H242538   2.326   0.764   9.817  0.2118 -0.4233 -0.0889
 6115TIP3   OH242539   5.384   2.191  11.489 -0.7764  0.4373 -0.0503
 6115TIP3    H142540   5.458   2.216  11.435 -0.1732 -0.5726  0.2906
 6115TIP3    H242541   5.307   2.206  11.433 -0.1906 -0.3030 -1.0844
 6116TIP3   OH242542   5.915   6.390   9.982  0.5522  0.3200 -0.6015
 6116TIP3    H142543   5.887   6.298   9.981 -0.1322  0.5205 -0.7954
 6116TIP3    H242544   5.843   6.437   9.938  0.7122  0.9947 -0.1530
 6117TIP3   OH242545   3.778   3.492  11.645  0.2818 -0.1711  0.0669
 6117TIP3    H142546   3.873   3.479  11.635  0.6026  1.6379  0.4862
 6117TIP3    H242547   3.740   3.453  11.566  1.4108 -0.4388 -0.3649
 6118TIP3   OH242548   2.419   3.253  10.521 -0.5746 -0.3257  0.1225
 6118TIP3    H142549   2.412   3.164  10.556 -1.8764 -1.1081 -1.9042
 6118TIP3    H242550   2.428   3.240  10.426  0.6416  1.6939 -0.1028
 6119TIP3   OH242551   0.083   2.163   9.828 -0.1857 -0.0662 -0.1858
 6119TIP3    H142552  -0.007   2.181   9.799 -0.6926  0.6560  1.6500
 6119TIP3    H242553   0.102   2.075   9.794 -1.1638  0.2073 -1.5340
 6120TIP3   OH242554   5.150   3.687  11.773 -0.2475 -0.6091 -0.3777
 6120TIP3    H142555   5.125   3.614  11.830  0.1199 -0.4906 -0.0576
 6120TIP3    H242556   5.092   3.759  11.799 -1.6066 -1.1923 -1.6862
 6121TIP3   OH242557   4.853   0.923  10.677  0.3907 -0.1924  0.1360
 6121TIP3    H142558   4.856   0.864  10.753  3.1951 -0.4773 -0.0751
 6121TIP3    H242559   4.884   0.870  10.604  2.0928  1.2109 -0.2422
 6122TIP3   OH242560   1.041   2.241  10.042  0.6502 -0.1879  0.0686
 6122TIP3    H142561   0.999   2.308   9.988  1.2978  0.5610  0.4716
 6122TIP3    H242562   0.968   2.197  10.085  0.1786 -0.1860 -0.7025
 6123TIP3   OH242563   2.606   0.618   9.822 -0.6075 -0.6677  0.5559
 6123TIP3    H142564   2.654   0.669   9.758 -0.0411 -1.0912  0.6340
 6123TIP3    H242565   2.527   0.590   9.777 -2.6197  2.9881  1.4670
 6124TIP3   OH242566   2.560   0.927   9.668 -0.1195  0.0797 -0.1320
 6124TIP3    H142567   2.651   0.936   9.695 -0.3231  2.5678 -0.0589
 6124TIP3    H242568   2.565   0.894   9.578  1.0517  2.9233 -1.2211
 6125TIP3   OH242569   1.750   6.230  11.521  0.2321  0.1056  0.6070
 6125TIP3    H142570   1.828   6.234  11.576  0.0094 -0.3046  0.9670
 6125TIP3    H242571   1.693   6.167  11.566 -1.2297  1.9860  1.5811
 6126TIP3   OH242572   4.623   5.637  12.049 -0.1122  0.0511  0.1427
 6126TIP3    H142573   4.563   5.706  12.079  1.4322  0.6412  2.0101
 6126TIP3    H242574   4.619   5.571  12.117 -0.1747 -0.8928 -0.7523
 6127TIP3   OH242575   3.363   0.057  11.456  0.6939  0.0400  0.2459
 6127TIP3    H142576   3.348   0.044  11.363  2.0736  0.1527 -0.0229
 6127TIP3    H242577   3.366  -0.032  11.492  0.2697 -0.0076  0.1641
 6128TIP3   OH242578   5.312   1.234  11.540  0.0361 -0.4973  0.0450
 6128TIP3    H142579   5.392   1.287  11.547 -1.2575  2.0701 -2.6209
 6128TIP3    H242580   5.343   1.143  11.548  3.3614  0.3307 -1.5661
 6129TIP3   OH242581   2.863   6.191  13.231  0.0306 -0.5501 -0.2194
 6129TIP3    H142582   2.877   6.286  13.223  0.8860 -0.7094 -0.7640
 6129TIP3    H242583   2.829   6.179  13.320 -0.3422  0.2924 -0.2375
 6130TIP3   OH242584   1.665   5.805  10.838 -0.3989  0.0468  0.0656
 6130TIP3    H142585   1.573   5.828  10.850  0.0877  1.1243  1.9533
 6130TIP3    H242586   1.681   5.734  10.901  0.6266  1.4896  1.4956
 6131TIP3   OH242587   3.002   4.553  10.779 -0.4333 -0.2684  0.2152
 6131TIP3    H142588   2.937   4.606  10.731  0.6534  0.7632 -0.1632
 6131TIP3    H242589   2.982   4.569  10.871  0.6696  1.8946  0.1352
 6132TIP3   OH242590   1.056   0.028  10.095 -0.4854 -0.4706 -0.1527
 6132TIP3    H142591   1.013  -0.012  10.171 -0.4700  1.4269  0.9146
 6132TIP3    H242592   0.987   0.034  10.029 -0.4498 -2.3284 -0.4197
 6133TIP3   OH242593   4.977   2.607  10.798  0.5533  0.0693 -0.4638
 6133TIP3    H142594   5.064   2.600  10.758 -0.0620  2.5535 -2.5094
 6133TIP3    H242595   4.916   2.598  10.725 -0.7295  2.1543  0.2707
 6134TIP3   OH242596   3.362   5.959   9.577 -0.0894  0.3607  0.0195
 6134TIP3    H142597   3.390   6.035   9.628 -0.4931  0.0117  0.7720
 6134TIP3    H242598   3.439   5.937   9.523 -0.2665  1.8595 -0.9215
 6135TIP3   OH242599   1.428   2.972  11.015 -0.4337  0.3049  0.2763
 6135TIP3    H142600   1.424   3.007  10.925 -0.3399  1.0630  0.5583
 6135TIP3    H242601   1.510   3.006  11.050  1.5172 -3.0693 -0.5703
 6136TIP3   OH242602   4.492   4.965  11.370 -0.1985 -0.0442 -0.1158
 6136TIP3    H142603   4.483   4.873  11.346  1.3507  0.0974 -1.4878
 6136TIP3    H242604   4.566   4.967  11.430 -1.1929  0.1531  1.1336
 6137TIP3   OH242605   5.501   1.793  10.200  0.3801 -0.3283 -0.4523
 6137TIP3    H142606   5.491   1.822  10.290 -0.1068 -0.3542 -0.4961
 6137TIP3    H242607   5.577   1.735  10.201 -0.8414 -1.9725  0.3363
 6138TIP3   OH242608   2.555   0.666  11.704 -0.0679 -0.6113  0.2701
 6138TIP3    H142609   2.572   0.575  11.679  2.2251 -0.5920  1.5415
 6138TIP3    H242610   2.517   0.660  11.792 -1.2764 -0.3531 -0.2043
 6139TIP3   OH242611   2.418   5.602  13.512 -0.2830 -0.0024 -0.1649
 6139TIP3    H142612   2.370   5.682  13.491 -2.5781 -1.0797  0.5890
 6139TIP3    H242613   2.358   5.531  13.487  1.2845 -1.4883  0.0704
 6140TIP3   OH242614   1.449   1.038   9.737 -0.1939  0.5216 -0.1145
 6140TIP3    H142615   1.479   0.992   9.815  0.6131  1.7126  0.3067
 6140TIP3    H242616   1.528   1.048   9.683 -0.3150  1.5188 -0.1237
 6141TIP3   OH242617   6.359   1.391  13.235  0.0856  0.3631  0.0564
 6141TIP3    H142618   6.301   1.336  13.182  1.2647  0.7695 -1.7514
 6141TIP3    H242619   6.444   1.349  13.229  0.5335  1.1859  0.4884
 6142TIP3   OH242620   6.684   4.845  11.016  0.2746  0.6844  0.2936
 6142TIP3    H142621   6.686   4.834  10.921 -1.0752 -3.8284  0.5198
 6142TIP3    H242622   6.595   4.821  11.041  1.3468 -1.1704  2.7937
 6143TIP3   OH242623   1.552   1.350  11.544 -0.1305  0.2880 -0.4545
 6143TIP3    H142624   1.463   1.317  11.532  0.4099 -1.5939  0.2034
 6143TIP3    H242625   1.592   1.344  11.457 -0.4672  0.5477 -0.6264
 6144TIP3   OH242626   4.495   4.813   9.279 -0.5169  0.0226  0.0943
 6144TIP3    H142627   4.463   4.761   9.205 -0.9771  0.9230 -0.3482
 6144TIP3    H242628   4.478   4.758   9.355  0.7274 -1.2829 -0.5190
 6145TIP3   OH242629   3.917   5.952  10.328  0.4416 -0.1934 -0.2431
 6145TIP3    H142630   3.987   5.978  10.389  0.4518  1.2515 -0.8406
 6145TIP3    H242631   3.859   6.028  10.323 -0.4176 -0.8600 -0.8495
 6146TIP3   OH242632   4.470   1.863  11.262  0.6020  0.0110 -0.4983
 6146TIP3    H142633   4.460   1.930  11.329  0.9779  0.7669 -1.1896
 6146TIP3    H242634   4.408   1.794  11.288  1.7795 -0.4061  1.4426
 6147TIP3   OH242635   2.535   3.335  12.078 -0.3724  0.4794 -0.3749
 6147TIP3    H142636   2.625   3.321  12.048 -0.1652 -2.2136  1.1961
 6147TIP3    H242637   2.481   3.289  12.012 -0.4844  0.8051 -0.5110
 6148TIP3   OH242638   6.654   3.337  12.063  0.2415 -0.4269 -0.2662
 6148TIP3    H142639   6.673   3.372  12.151  1.9027 -0.2690 -0.6493
 6148TIP3    H242640   6.739   3.305  12.032 -0.3672 -0.6587 -1.7446
 6149TIP3   OH242641   1.157   0.290  12.195  0.0882 -0.0090  0.2510
 6149TIP3    H142642   1.123   0.315  12.281 -0.3736  4.0826 -0.9226
 6149TIP3    H242643   1.079   0.277  12.141  0.2827  1.9489 -0.5831
 6150TIP3   OH242644   4.689   5.255   9.391  0.3627  0.1672 -0.1262
 6150TIP3    H142645   4.699   5.173   9.342  0.4800  0.9158 -1.4324
 6150TIP3    H242646   4.636   5.232   9.467 -1.0661 -0.7991 -1.3452
 6151TIP3   OH242647   2.626   6.607  11.298 -0.4124  0.3647  0.6805
 6151TIP3    H142648   2.699   6.549  11.322 -1.5080 -1.7020 -0.7102
 6151TIP3    H242649   2.606   6.655  11.379  1.0510 -0.6132  1.6773
 6152TIP3   OH242650   5.332   2.899  10.609  0.3724 -0.2686  0.1917
 6152TIP3    H142651   5.367   2.813  10.583  0.3076 -0.5645  1.0461
 6152TIP3    H242652   5.314   2.943  10.526  0.3472 -1.1063 -0.2659
 6153TIP3   OH242653   0.479   2.871  10.270  0.0224 -0.5267  0.0011
 6153TIP3    H142654   0.552   2.810  10.285 -0.7113 -1.0856  1.4458
 6153TIP3    H242655   0.490   2.939  10.336 -0.8544 -0.7053  0.3418
 6154TIP3   OH242656   0.601   5.851  10.755 -0.3844 -0.1824 -0.0080
 6154TIP3    H142657   0.511   5.880  10.742 -1.1979 -2.5986 -0.3325
 6154TIP3    H242658   0.626   5.812  10.671  1.4095  1.4053 -0.2805
 6155TIP3   OH242659   1.655   2.846  12.190 -0.6235 -0.4082  0.2587
 6155TIP3    H142660   1.573   2.894  12.179 -0.5342 -0.1053  0.8664
 6155TIP3    H242661   1.629   2.760  12.224 -0.7468 -0.6313 -0.3771
 6156TIP3   OH242662   1.806   3.016   9.860  0.1932 -0.2623 -0.3345
 6156TIP3    H142663   1.827   2.972   9.777  2.7817 -2.2237  1.2035
 6156TIP3    H242664   1.890   3.052   9.889 -0.2820 -1.0531  2.2023
 6157TIP3   OH242665   4.778   5.926  10.213  0.2504 -0.3232 -0.8799
 6157TIP3    H142666   4.731   5.965  10.287  2.0111  0.5261 -0.1492
 6157TIP3    H242667   4.735   5.963  10.136 -1.1172 -0.6192 -0.2846
 6158TIP3   OH242668   5.708   6.107  12.420 -0.0740 -0.3500 -0.1586
 6158TIP3    H142669   5.746   6.044  12.359 -0.2981 -0.7172  0.0766
 6158TIP3    H242670   5.777   6.122  12.485 -0.1855 -0.7155  0.0473
 6159TIP3   OH242671   5.970   5.455  10.942 -0.5695  0.2813 -0.5071
 6159TIP3    H142672   5.899   5.428  11.000  1.3225 -1.3868  1.1829
 6159TIP3    H242673   5.958   5.550  10.932 -2.3206  0.2280  0.6621
 6160TIP3   OH242674   0.638   5.908  11.237  0.0896  0.1081  0.1679
 6160TIP3    H142675   0.622   5.925  11.144 -0.1242  0.4391  0.2677
 6160TIP3    H242676   0.595   5.979  11.283 -1.9557 -1.3519  0.6547
 6161TIP3   OH242677   1.586   6.321  11.780  0.1110  0.2674  0.2058
 6161TIP3    H142678   1.570   6.386  11.712  0.7243  0.3811  0.1706
 6161TIP3    H242679   1.669   6.346  11.819  1.2126 -1.4291 -0.9171
 6162TIP3   OH242680   2.050   3.908  12.148 -0.6317 -0.1293  0.2271
 6162TIP3    H142681   2.106   3.920  12.224 -0.8638 -2.0543  0.7758
 6162TIP3    H242682   1.975   3.966  12.163  0.8528  2.0197 -0.2310
 6163TIP3   OH242683   4.976   6.283   9.443  0.6919 -0.0685  0.5861
 6163TIP3    H142684   4.929   6.220   9.389  0.9069 -0.0818  0.4121
 6163TIP3    H242685   5.022   6.340   9.381  0.0290  0.6325  0.7273
 6164TIP3   OH242686   6.458   5.238  10.547  0.0021 -0.0444 -0.3473
 6164TIP3    H142687   6.531   5.298  10.562 -0.0089 -0.1037 -0.0597
 6164TIP3    H242688   6.449   5.235  10.452 -0.9958  1.6127 -0.3432
 6165TIP3   OH242689   0.597   0.578  11.229  0.2519  0.4167  0.5316
 6165TIP3    H142690   0.546   0.498  11.212  0.3623  0.7953 -1.9289
 6165TIP3    H242691   0.544   0.626  11.293 -3.5253  1.5093 -2.9446
 6166TIP3   OH242692   4.471   5.758  11.257  0.1989 -0.2508 -0.1673
 6166TIP3    H142693   4.485   5.779  11.165 -2.5063  0.6918 -0.4485
 6166TIP3    H242694   4.480   5.663  11.262 -0.6479 -0.4345 -1.6549
 6167TIP3   OH242695   3.106   4.292  12.976 -0.1903 -0.8175 -0.3655
 6167TIP3    H142696   3.167   4.219  12.962  1.0542  0.1652 -0.1828
 6167TIP3    H242697   3.103   4.337  12.891 -0.8783 -0.9965 -0.4457
 6168TIP3   OH242698   6.544   5.406  12.493 -0.2817  0.4462  0.1007
 6168TIP3    H142699   6.555   5.317  12.459 -0.3822  0.3241  0.3849
 6168TIP3    H242700   6.474   5.398  12.558 -0.4551  0.7780 -0.0432
 6169TIP3   OH242701   1.084   0.541  17.699  0.2725 -0.2499  0.3844
 6169TIP3    H142702   1.179   0.539  17.713  0.2954  0.6232  0.4288
 6169TIP3    H242703   1.070   0.621  17.648 -0.6984  0.9951  2.4810
 6170TIP3   OH242704   0.182   4.909  12.271  0.2870  0.5447  0.1290
 6170TIP3    H142705   0.107   4.883  12.324  1.5898 -2.7894  0.5936
 6170TIP3    H242706   0.145   4.957  12.198 -2.0961  0.4838  1.2115
 6171TIP3   OH242707   2.298   4.342  11.285  0.2621  0.8437 -0.1481
 6171TIP3    H142708   2.241   4.354  11.209 -0.3945  0.4046  0.2731
 6171TIP3    H242709   2.296   4.248  11.302  0.1560  0.9814  0.6122
 6172TIP3   OH242710   5.129   4.540  12.104  0.4119 -0.1655 -0.7850
 6172TIP3    H142711   5.058   4.482  12.079 -1.8102  0.5988  2.8649
 6172TIP3    H242712   5.203   4.482  12.121 -0.1136 -1.2895 -2.1886
 6173TIP3   OH242713   1.168   0.009   9.344 -0.0423  0.1827  0.1713
 6173TIP3    H142714   1.253   0.052   9.336 -0.3188  0.8196  0.5996
 6173TIP3    H242715   1.167  -0.025   9.434 -0.6205  1.0075  0.4846
 6174TIP3   OH242716   3.000   3.836  11.835 -0.0838  0.3694 -0.3721
 6174TIP3    H142717   2.912   3.860  11.805 -0.3236 -0.6835 -0.5445
 6174TIP3    H242718   3.059   3.890  11.781 -0.5366 -0.9313 -2.2562
 6175TIP3   OH242719   2.888   4.373   9.665  0.3356 -0.2338 -0.2323
 6175TIP3    H142720   2.861   4.301   9.607  0.6441  0.2304 -0.9752
 6175TIP3    H242721   2.967   4.341   9.708 -0.8927 -1.2938  1.3548
 6176TIP3   OH242722   4.231   5.672   9.816 -0.9031 -0.6472 -0.4537
 6176TIP3    H142723   4.163   5.737   9.832  0.1118  0.0480  1.2940
 6176TIP3    H242724   4.283   5.672   9.896  0.8704 -1.5061 -1.5602
 6177TIP3   OH242725   3.688   3.720  11.344  0.1176  0.5381 -0.2972
 6177TIP3    H142726   3.768   3.692  11.388 -1.1881  0.0098  1.9280
 6177TIP3    H242727   3.717   3.761  11.263  2.7166  1.5202  1.0351
 6178TIP3   OH242728   6.504   3.317   9.517  0.2167 -0.6486  0.8375
 6178TIP3    H142729   6.493   3.410   9.535 -0.3945 -0.0520 -2.0393
 6178TIP3    H242730   6.415   3.284   9.508  0.3420 -2.0668  3.8491
 6179TIP3   OH242731   3.377   3.465  11.137 -0.6376  0.2480  0.5416
 6179TIP3    H142732   3.367   3.471  11.232 -1.8271  1.3098  0.3769
 6179TIP3    H242733   3.467   3.491  11.121  0.2073 -1.8742  1.5150
 6180TIP3   OH242734   0.159   4.212   9.448  0.0261 -0.1783 -0.4763
 6180TIP3    H142735   0.244   4.233   9.486 -1.5375  0.5990  3.0430
 6180TIP3    H242736   0.124   4.143   9.504 -1.4922 -0.8240 -2.1183
 6181TIP3   OH242737   1.793   4.979  10.507  0.3808  0.1380 -0.5020
 6181TIP3    H142738   1.792   5.023  10.592  0.3185 -0.3248 -0.2611
 6181TIP3    H242739   1.876   5.007  10.468  1.0006 -0.6299  0.2390
 6182TIP3   OH242740   3.623   0.242  11.386 -0.0010  0.2077 -0.5195
 6182TIP3    H142741   3.695   0.300  11.361 -0.6882  1.4372  0.2344
 6182TIP3    H242742   3.607   0.189  11.309  1.4445  0.1751 -0.8379
 6183TIP3   OH242743   0.624   5.590  11.407  0.2465  0.2358  0.0980
 6183TIP3    H142744   0.534   5.599  11.438  0.0003 -0.7764 -0.2767
 6183TIP3    H242745   0.617   5.596  11.312  0.2287 -2.1028 -0.1037
 6184TIP3   OH242746   5.720   5.654  12.344 -0.2403 -0.5116  0.3080
 6184TIP3    H142747   5.694   5.577  12.294 -2.6429  0.1909  0.3608
 6184TIP3    H242748   5.731   5.723  12.279 -0.5078 -0.3089  0.4744
 6185TIP3   OH242749   0.546   2.882  10.856  0.4292 -0.0189 -0.6095
 6185TIP3    H142750   0.536   2.804  10.911  1.1625 -0.9828 -1.8205
 6185TIP3    H242751   0.633   2.916  10.877  0.0049  0.6758  0.1237
 6186TIP3   OH242752   5.152   6.134  12.145 -1.0489 -0.1914 -0.7061
 6186TIP3    H142753   5.126   6.220  12.180 -1.5760 -1.3184  1.8959
 6186TIP3    H242754   5.248   6.136  12.145 -1.0166  1.1401 -2.8141
 6187TIP3   OH242755   2.302   3.689  11.078 -0.0104  0.0243 -0.7270
 6187TIP3    H142756   2.346   3.682  10.993 -0.2033 -1.0534 -0.7405
 6187TIP3    H242757   2.245   3.765  11.068  1.4393  1.1436 -0.8859
 6188TIP3   OH242758   5.807   1.072  12.359  0.0786 -0.0079  0.4079
 6188TIP3    H142759   5.894   1.036  12.344  0.0151  0.1370 -0.3364
 6188TIP3    H242760   5.751   1.028  12.295  0.0355  1.5495 -0.6823
 6189TIP3   OH242761   2.797   4.386  12.973 -0.6552 -0.6123  0.5721
 6189TIP3    H142762   2.808   4.314  12.910  0.6023 -0.7622  0.9388
 6189TIP3    H242763   2.836   4.352  13.053  0.7804  0.8064  0.5073
 6190TIP3   OH242764   3.293   4.245  11.118 -0.1646 -0.5756  0.1255
 6190TIP3    H142765   3.282   4.247  11.023  1.2429 -0.5329 -0.0553
 6190TIP3    H242766   3.274   4.154  11.142 -1.4434 -0.3835 -0.0441
 6191TIP3   OH242767   3.279   0.029  12.085 -0.6625  0.3471 -0.7932
 6191TIP3    H142768   3.187   0.017  12.106 -0.4352 -0.8415 -0.3777
 6191TIP3    H242769   3.280   0.047  11.991 -1.2394 -1.0897 -1.1025
 6192TIP3   OH242770   2.916   0.701  11.630  0.1434  0.4009 -0.1864
 6192TIP3    H142771   2.881   0.617  11.600  2.3912 -0.5859 -0.2680
 6192TIP3    H242772   3.004   0.704  11.594  0.6803  2.0755  1.1302
 6193TIP3   OH242773   5.700   5.062  12.906  0.1314 -0.2728  0.0965
 6193TIP3    H142774   5.762   5.056  12.832  1.1406 -0.0183  0.9019
 6193TIP3    H242775   5.640   4.988  12.892  2.5140 -2.5309  0.9873
 6194TIP3   OH242776   4.638   1.532  11.311 -0.0616 -0.1714  0.3175
 6194TIP3    H142777   4.544   1.539  11.330  0.0237  0.9441  0.3988
 6194TIP3    H242778   4.651   1.585  11.233  0.5408 -0.1138  0.4492
 6195TIP3   OH242779   2.147   2.872   9.988 -0.0538 -0.2224  0.0824
 6195TIP3    H142780   2.166   2.781  10.007 -1.0891 -0.1043  1.7945
 6195TIP3    H242781   2.199   2.891   9.909 -0.1474 -2.3738 -0.5545
 6196TIP3   OH242782   2.929   1.141  11.365 -0.5705  0.4920  0.8824
 6196TIP3    H142783   2.978   1.223  11.364 -3.2689  2.2505 -0.2034
 6196TIP3    H242784   2.989   1.076  11.329  1.1707  2.3235  0.2905
 6197TIP3   OH242785   0.380   1.376  11.807  0.0421  0.1074  0.0064
 6197TIP3    H142786   0.420   1.444  11.753  0.7363 -1.6844 -1.8733
 6197TIP3    H242787   0.448   1.310  11.818 -1.2867 -1.3850 -0.2711
 6198TIP3   OH242788   2.307   3.814  12.695  0.0176  0.6248 -0.0705
 6198TIP3    H142789   2.230   3.845  12.743 -0.7864 -0.6888 -0.4798
 6198TIP3    H242790   2.284   3.826  12.603  1.2164  2.3310 -0.1986
 6199TIP3   OH242791   1.581   1.965  12.431 -0.2017 -0.1358 -0.2379
 6199TIP3    H142792   1.488   1.972  12.449 -0.0917  0.5812  0.0756
 6199TIP3    H242793   1.586   1.918  12.347 -0.8836  0.8154 -0.8289
 6200TIP3   OH242794   0.735   5.144  10.394 -0.1310 -0.1761  0.5373
 6200TIP3    H142795   0.789   5.067  10.409  0.8526  0.3670 -0.0745
 6200TIP3    H242796   0.765   5.208  10.460  1.2374  0.7335 -0.8958
 6201TIP3   OH242797   5.678   4.314   9.753 -0.2576 -0.8676  0.4212
 6201TIP3    H142798   5.663   4.315   9.659  0.6385  1.2184  0.2583
 6201TIP3    H242799   5.773   4.325   9.763 -0.5469  1.0852  1.5359
 6202TIP3   OH242800   4.342   2.910  12.012  0.2474  0.0017  0.5473
 6202TIP3    H142801   4.414   2.890  12.071 -0.0141 -2.5125  0.1128
 6202TIP3    H242802   4.266   2.918  12.070  0.6565  1.6469  0.9028
 6203TIP3   OH242803   5.361   0.834  11.996 -0.3815 -0.4020 -0.7276
 6203TIP3    H142804   5.436   0.816  12.053 -1.4636 -2.3404  0.1907
 6203TIP3    H242805   5.392   0.812  11.908  0.0486 -1.5844 -0.3085
 6204TIP3   OH242806   4.827   1.017  12.325  0.5554 -0.1133 -0.8073
 6204TIP3    H142807   4.904   1.069  12.349 -0.5729  1.2178  0.1036
 6204TIP3    H242808   4.794   1.058  12.245  0.0449  0.1645 -0.4598
 6205TIP3   OH242809   0.753   2.245  12.045  0.1149 -0.8467  0.4359
 6205TIP3    H142810   0.755   2.158  12.005  0.3593 -0.2627 -0.9036
 6205TIP3    H242811   0.660   2.267  12.049  0.1181 -0.3553 -1.1944
 6206TIP3   OH242812   4.772   3.845  11.171  0.7080 -0.3619  0.8936
 6206TIP3    H142813   4.819   3.808  11.245  1.7228  1.0727  1.0162
 6206TIP3    H242814   4.753   3.935  11.197 -0.2876 -0.2994  0.0094
 6207TIP3   OH242815   5.053   1.751  12.551 -0.0130  0.0647  0.2270
 6207TIP3    H142816   5.031   1.843  12.566  0.8469  0.3331 -0.1166
 6207TIP3    H242817   5.110   1.727  12.624 -0.5685 -0.3294  0.5455
 6208TIP3   OH242818   5.545   0.085   9.892 -0.6969 -0.2012  0.0120
 6208TIP3    H142819   5.543   0.157   9.828 -3.0755  0.3610  0.6123
 6208TIP3    H242820   5.635   0.085   9.925 -0.4555  2.1197 -0.4533
 6209TIP3   OH242821   3.511   4.853   9.599  0.0121  0.2409 -0.3117
 6209TIP3    H142822   3.478   4.903   9.524  0.4898 -0.8074 -1.2506
 6209TIP3    H242823   3.588   4.902   9.628 -0.9735  1.4181  0.4093
 6210TIP3   OH242824   5.027   1.752  10.706 -0.0512 -0.0787  0.5995
 6210TIP3    H142825   4.973   1.736  10.784 -3.3194 -1.7392 -1.7606
 6210TIP3    H242826   5.005   1.841  10.680 -1.2834 -0.5244  0.0174
 6211TIP3   OH242827   0.028   5.532  10.342 -0.3585 -0.3489  0.7196
 6211TIP3    H142828   0.024   5.440  10.317  2.0779  0.2175 -2.3009
 6211TIP3    H242829  -0.051   5.570  10.305 -0.9317 -1.0444  1.2002
 6212TIP3   OH242830   5.931   2.301  10.425 -0.4679  0.1859  0.1453
 6212TIP3    H142831   5.935   2.388  10.465 -0.1957  1.4137 -2.3895
 6212TIP3    H242832   6.016   2.261  10.445  0.2862  1.4068 -0.5166
 6213TIP3   OH242833   0.543   3.419   9.821  0.1204 -0.2984  0.2818
 6213TIP3    H142834   0.601   3.451   9.891  0.6742 -0.1877 -0.2196
 6213TIP3    H242835   0.595   3.427   9.741 -0.4177 -0.6629 -0.1129
 6214TIP3   OH242836   1.161   1.168  12.436 -0.3184 -0.5244 -0.1329
 6214TIP3    H142837   1.152   1.244  12.379 -0.2878 -0.5133 -0.1223
 6214TIP3    H242838   1.214   1.199  12.510 -0.2507 -0.5736 -0.1606
 6215TIP3   OH242839   0.657   3.449  10.065 -0.1921  0.6510  0.0932
 6215TIP3    H142840   0.744   3.489  10.067 -0.9930  2.5090  2.0276
 6215TIP3    H242841   0.618   3.472  10.149 -2.2368 -0.9399 -0.3243
 6216TIP3   OH242842   0.691   6.275  11.450 -0.2092 -0.0170  0.1702
 6216TIP3    H142843   0.764   6.271  11.388 -0.8479  1.3640 -0.7076
 6216TIP3    H242844   0.693   6.364  11.485  0.0039 -0.6997  2.0105
 6217TIP3   OH242845   3.592   0.668  12.554  0.8510 -0.1864  0.1492
 6217TIP3    H142846   3.520   0.709  12.505 -0.0074 -0.8250  0.8468
 6217TIP3    H242847   3.643   0.742  12.587 -0.1090  0.3151  0.5483
 6218TIP3   OH242848   5.955   5.771  11.629  0.3011 -0.4649 -0.0431
 6218TIP3    H142849   5.908   5.729  11.701 -1.4647  2.5464  0.7114
 6218TIP3    H242850   5.889   5.821  11.582  2.0910  0.8054 -1.3638
 6219TIP3   OH242851   5.171   1.700  10.986 -0.4783  0.2594  0.0308
 6219TIP3    H142852   5.189   1.645  11.061 -2.0647  0.2843  0.4743
 6219TIP3    H242853   5.120   1.644  10.927  0.1719  0.4479 -0.7284
 6220TIP3   OH242854   3.267   0.593  10.202  0.0583  0.1404 -0.0687
 6220TIP3    H142855   3.178   0.614  10.172 -0.3364 -1.9788 -0.5143
 6220TIP3    H242856   3.323   0.655  10.155 -1.0498  0.5379 -0.9091
 6221TIP3   OH242857   6.422   4.868  10.137  0.9988 -0.4521 -0.8566
 6221TIP3    H142858   6.357   4.848  10.069 -0.1102  0.0860  0.0194
 6221TIP3    H242859   6.497   4.812  10.115  0.1225 -1.3395 -1.6985
 6222TIP3   OH242860   2.476   6.053  12.178  0.0034  0.5919  0.1716
 6222TIP3    H142861   2.399   6.053  12.122  1.3078 -0.3154 -1.7635
 6222TIP3    H242862   2.455   6.113  12.249 -2.1373  0.9973 -0.7391
 6223TIP3   OH242863   6.577   5.176  12.361 -0.6304 -0.1740  0.3666
 6223TIP3    H142864   6.526   5.133  12.293  0.1926  0.4113 -0.6505
 6223TIP3    H242865   6.663   5.192  12.321 -0.6064  1.5612  1.0136
 6224TIP3   OH242866   1.705   3.257  10.129 -0.2717  0.0221  0.5139
 6224TIP3    H142867   1.683   3.164  10.139  0.9441 -0.5042 -1.1528
 6224TIP3    H242868   1.739   3.264  10.040 -1.6742  2.3743  0.0928
 6225TIP3   OH242869   1.551   2.406   9.414 -0.6351  0.0858  0.4255
 6225TIP3    H142870   1.576   2.336   9.475  0.4533 -0.5145 -0.6775
 6225TIP3    H242871   1.459   2.388   9.394 -0.7347 -0.2624  1.1403
 6226TIP3   OH242872   1.567   4.265  13.022  0.4814 -0.2371  0.2813
 6226TIP3    H142873   1.497   4.287  13.083  0.3565  0.5417 -0.1312
 6226TIP3    H242874   1.640   4.239  13.077  0.2597  0.1329  0.7490
 6227TIP3   OH242875   5.526   1.010  11.571 -0.3930  0.7620  0.3029
 6227TIP3    H142876   5.613   0.971  11.561 -1.4611 -1.6821 -0.2685
 6227TIP3    H242877   5.542   1.096  11.609  2.2829  0.5355 -0.1188
 6228TIP3   OH242878   4.963   1.387  12.036  0.0487 -0.0501 -0.0192
 6228TIP3    H142879   5.002   1.299  12.029 -0.8929 -0.5138  0.4042
 6228TIP3    H242880   4.924   1.402  11.950  1.9033  0.8108 -0.7703
 6229TIP3   OH242881   3.806   1.595  10.847 -0.1427  0.3675 -0.6191
 6229TIP3    H142882   3.733   1.537  10.868  0.2670 -0.3898 -1.2341
 6229TIP3    H242883   3.767   1.683  10.845 -0.7800  0.1216  0.2585
 6230TIP3   OH242884   4.273   3.276  10.347  0.3947  0.0282  0.2178
 6230TIP3    H142885   4.274   3.184  10.320  1.1795 -0.1945  0.9595
 6230TIP3    H242886   4.212   3.278  10.421  1.2410 -0.1205  0.9283
 6231TIP3   OH242887   5.906   5.785  10.647  0.5526  0.1314 -0.7078
 6231TIP3    H142888   5.868   5.853  10.590 -0.9540 -2.8164 -3.5378
 6231TIP3    H242889   6.000   5.806  10.649  0.2666  1.8333 -2.1586
 6232TIP3   OH242890   3.290   2.178  12.069  0.0436  0.2198 -0.1942
 6232TIP3    H142891   3.272   2.086  12.085 -0.7807  0.1276 -1.4960
 6232TIP3    H242892   3.246   2.224  12.140 -2.2689 -0.2352 -1.2491
 6233TIP3   OH242893   2.554   0.499  11.067 -0.1242 -0.0602 -0.3279
 6233TIP3    H142894   2.477   0.449  11.042  0.3126 -0.3372 -1.1357
 6233TIP3    H242895   2.520   0.584  11.096 -0.7739 -0.4085 -0.0639
 6234TIP3   OH242896   2.106   5.839  10.883 -0.0193  0.6890  0.3451
 6234TIP3    H142897   2.170   5.905  10.857  0.9300  0.3007  1.6228
 6234TIP3    H242898   2.041   5.887  10.935  0.5913  0.6481  1.1513
 6235TIP3   OH242899   5.995   6.492   9.360 -0.3967  0.0148  0.3022
 6235TIP3    H142900   5.929   6.553   9.394 -1.0217 -0.9354  0.8526
 6235TIP3    H242901   5.952   6.406   9.363  1.4469 -0.9715  2.4785
 6236TIP3   OH242902   3.239   5.115  10.785  0.3409  0.7215 -0.2005
 6236TIP3    H142903   3.148   5.146  10.784  1.2315  3.6445 -0.4654
 6236TIP3    H242904   3.235   5.031  10.831 -2.5885  0.2754 -1.0147
 6237TIP3   OH242905   0.862   0.604  11.372  0.3803  0.3216 -0.2228
 6237TIP3    H142906   0.771   0.601  11.343  0.4969 -0.0587 -0.5514
 6237TIP3    H242907   0.860   0.567  11.460  0.0434  1.3730  0.2251
 6238TIP3   OH242908   0.822   0.427   9.267 -0.1411 -0.4677 -0.0135
 6238TIP3    H142909   0.880   0.491   9.224 -0.5596 -0.3263 -0.3736
 6238TIP3    H242910   0.882   0.365   9.309  0.2715  0.0116  0.1156
 6239TIP3   OH242911   1.972   6.048   9.549  0.5595 -0.2173 -0.6058
 6239TIP3    H142912   1.898   6.060   9.609  1.7540 -0.8668  1.0781
 6239TIP3    H242913   1.999   6.138   9.527 -1.0169  0.0319 -1.6853
 6240TIP3   OH242914   1.888   3.709  10.178  0.0846 -0.5152  0.0792
 6240TIP3    H142915   1.901   3.705  10.083 -0.5113  1.9754 -0.1662
 6240TIP3    H242916   1.971   3.742  10.212 -1.0496  2.9608 -0.1444
 6241TIP3   OH242917   1.384   1.795  11.191 -0.2168  0.5364  0.1576
 6241TIP3    H142918   1.369   1.710  11.231  0.1531  0.8041  0.8754
 6241TIP3    H242919   1.468   1.786  11.146 -0.3932  0.3910 -0.1502
 6242TIP3   OH242920   2.690   3.038   9.656  0.1605 -0.3453  0.2499
 6242TIP3    H142921   2.755   2.968   9.659  1.0177  0.4226 -0.0916
 6242TIP3    H242922   2.727   3.103   9.598 -1.2436 -0.1959 -0.5280
 6243TIP3   OH242923   2.859   5.683  12.870 -0.0247  0.4483  0.0170
 6243TIP3    H142924   2.778   5.632  12.874  1.0139 -1.1985  1.9951
 6243TIP3    H242925   2.887   5.691  12.961  2.6031 -0.0214 -0.6661
 6244TIP3   OH242926   2.799   1.241  11.027 -0.0765  0.1683  0.1740
 6244TIP3    H142927   2.737   1.278  10.964  1.7964  1.8889 -0.7205
 6244TIP3    H242928   2.745   1.221  11.104 -2.2010 -0.8856 -1.4815
 6245TIP3   OH242929   2.229   5.953   9.727 -0.1690  0.5224  0.2877
 6245TIP3    H142930   2.214   5.958   9.633  1.4617 -0.9236 -0.1220
 6245TIP3    H242931   2.154   5.905   9.762 -0.3813  0.3351 -0.4198
 6246TIP3   OH242932   3.955   2.232  10.575 -0.3316  0.1931  0.0084
 6246TIP3    H142933   3.966   2.146  10.615 -0.7453  0.3109  0.3949
 6246TIP3    H242934   3.995   2.224  10.488  1.4593  0.2179  0.7911
 6247TIP3   OH242935   2.232   6.669  12.157  0.0507 -0.1427 -0.4487
 6247TIP3    H142936   2.149   6.693  12.115  0.2208  0.6208 -0.3721
 6247TIP3    H242937   2.269   6.753  12.185 -1.0703 -0.6659  3.1650
 6248TIP3   OH242938   4.872   2.009  10.969  0.1337 -0.3051  0.3565
 6248TIP3    H142939   4.941   2.003  11.034 -1.3952 -0.9516  2.0239
 6248TIP3    H242940   4.800   2.052  11.014 -1.0311 -0.8864 -0.8589
 6249TIP3   OH242941   2.143   5.951  11.444  0.0139 -0.0671 -0.1937
 6249TIP3    H142942   2.114   5.899  11.519  0.3216  0.0055 -0.0226
 6249TIP3    H242943   2.104   5.908  11.369 -1.1865  0.4763  0.0920
 6250TIP3   OH242944   3.027   2.072   9.921  0.2592 -0.3174  0.4909
 6250TIP3    H142945   2.955   2.031   9.969 -0.4926 -0.2972 -0.6045
 6250TIP3    H242946   3.019   2.038   9.832 -0.1816  1.9460 -0.3911
 6251TIP3   OH242947   3.973   4.708  12.834 -0.0325  0.5443 -0.1959
 6251TIP3    H142948   3.999   4.741  12.921 -0.9648  1.2940 -0.1825
 6251TIP3    H242949   4.055   4.683  12.793  0.8719  3.4542 -0.4184
 6252TIP3   OH242950   3.988   5.475  12.279  0.2269 -0.1754 -0.1524
 6252TIP3    H142951   4.073   5.513  12.301  1.2067 -1.9225 -0.7575
 6252TIP3    H242952   3.969   5.414  12.350 -1.2572  1.2012  0.7213
 6253TIP3   OH242953   2.519   2.403  10.739 -0.1245 -0.1914  0.3140
 6253TIP3    H142954   2.424   2.417  10.735 -0.0050  1.0593  1.2353
 6253TIP3    H242955   2.528   2.318  10.782 -0.8443  0.7799  2.5663
 6254TIP3   OH242956   4.788   5.700  11.858 -0.4569 -0.1672 -0.2590
 6254TIP3    H142957   4.745   5.783  11.840  0.0268 -0.2123 -1.7778
 6254TIP3    H242958   4.729   5.655  11.919 -1.5975  0.5669 -0.7854
 6255TIP3   OH242959   5.699   0.934  10.567  0.3185 -0.1772 -0.2340
 6255TIP3    H142960   5.656   0.864  10.518 -1.4795  0.3351  0.4903
 6255TIP3    H242961   5.712   0.898  10.655  0.1678  0.0956 -0.0957
 6256TIP3   OH242962   6.172   5.416   9.345  0.2948 -0.0965 -0.2254
 6256TIP3    H142963   6.176   5.323   9.367  0.4192  0.1313  0.7368
 6256TIP3    H242964   6.125   5.418   9.261 -0.4511 -0.9596  0.1521
 6257TIP3   OH242965   0.599   1.061  12.087 -0.5626  0.1419  0.5942
 6257TIP3    H142966   0.516   1.062  12.135 -0.6028  0.8164  0.5143
 6257TIP3    H242967   0.575   1.042  11.997 -0.6848  0.8294  0.4773
 6258TIP3   OH242968   1.332   5.015  12.286  0.5092 -0.2460 -0.1861
 6258TIP3    H142969   1.258   5.075  12.278 -1.2093 -2.1581  0.4904
 6258TIP3    H242970   1.349   4.985  12.197  1.0312  0.7657 -0.4519
 6259TIP3   OH242971   2.471   1.014  10.912  0.0952  0.3126  0.4164
 6259TIP3    H142972   2.551   0.962  10.900  0.4199  1.3472 -3.3360
 6259TIP3    H242973   2.491   1.097  10.867 -2.8060  0.9129  0.0843
 6260TIP3   OH242974   3.681   1.054  11.184 -0.5732 -0.9767 -0.9208
 6260TIP3    H142975   3.607   1.100  11.223  0.1443 -0.1250 -0.5201
 6260TIP3    H242976   3.652   0.964  11.176 -2.2140 -0.3768 -2.2081
 6261TIP3   OH242977   2.742   1.824  11.368  0.4964  0.5310 -0.2734
 6261TIP3    H142978   2.832   1.810  11.396  0.0325 -0.9894  0.5733
 6261TIP3    H242979   2.730   1.763  11.295 -0.3635 -0.6250  0.7961
 6262TIP3   OH242980   5.146   0.313  11.429 -0.1140  0.1307  0.1016
 6262TIP3    H142981   5.077   0.273  11.482  0.4522 -0.1045  0.6652
 6262TIP3    H242982   5.139   0.269  11.344 -0.5618  0.0024  0.2006
 6263TIP3   OH242983   1.716   0.296  12.606 -0.3068  0.3674  0.2281
 6263TIP3    H142984   1.650   0.285  12.674  2.2005 -2.9993  2.4753
 6263TIP3    H242985   1.798   0.310  12.654  1.1551  1.1729 -2.2748
 6264TIP3   OH242986   0.493   3.577  11.731 -0.2350  0.7039  0.1968
 6264TIP3    H142987   0.423   3.525  11.692 -0.5199  1.2662 -0.0443
 6264TIP3    H242988   0.561   3.513  11.753 -0.2410  0.3192 -0.8490
 6265TIP3   OH242989   4.902   5.599   9.932 -0.7208 -0.4876  0.1517
 6265TIP3    H142990   4.837   5.654   9.889 -2.4891 -0.0251  3.1490
 6265TIP3    H242991   4.878   5.600  10.025  2.9538 -1.1763  1.3141
 6266TIP3   OH242992   3.201   3.958  12.330  0.9136 -0.1078 -0.3931
 6266TIP3    H142993   3.209   4.053  12.323  1.9748 -0.0497  1.2198
 6266TIP3    H242994   3.205   3.940  12.423 -2.9903 -1.4833 -0.3225
 6267TIP3   OH242995   4.548   0.299  11.647 -0.1404 -0.1760 -0.6382
 6267TIP3    H142996   4.502   0.374  11.684 -1.0288 -0.6929 -0.6576
 6267TIP3    H242997   4.605   0.336  11.580 -0.7797  0.4583 -0.8500
 6268TIP3   OH242998   0.708   2.320  10.845  0.0132 -0.1748  0.4641
 6268TIP3    H142999   0.668   2.242  10.805  1.2888 -0.7836  0.3210
 6268TIP3    H243000   0.787   2.335  10.794 -0.9030  2.1052 -0.4343
 6269TIP3   OH243001   3.976   2.342   9.737  0.1424 -0.6177 -0.0360
 6269TIP3    H143002   4.048   2.328   9.675  1.8866 -1.8043  2.1110
 6269TIP3    H243003   4.003   2.417   9.790  0.3216 -1.6666  1.4190
 6270TIP3   OH243004   2.870   1.242  11.828 -0.5095 -0.4116 -0.3941
 6270TIP3    H143005   2.921   1.161  11.830 -0.5625 -0.4592  2.1216
 6270TIP3    H243006   2.847   1.254  11.736 -0.0414 -2.9477 -0.8974
 6271TIP3   OH243007   4.725   5.613  10.602  0.0374 -0.0743 -0.6484
 6271TIP3    H143008   4.753   5.695  10.563  0.6819 -0.2526 -0.5732
 6271TIP3    H243009   4.756   5.617  10.692 -2.0685  0.6517  0.1142
 6272TIP3   OH243010   5.540   2.629  10.854  0.3522 -0.0554  0.2658
 6272TIP3    H143011   5.601   2.601  10.786  1.3338 -1.2800  1.5891
 6272TIP3    H243012   5.534   2.724  10.844  0.1885 -0.2482 -1.7236
 6273TIP3   OH243013   3.894   5.691  12.578  0.4449 -0.5844 -0.6402
 6273TIP3    H143014   3.900   5.710  12.485 -3.6082 -1.3751 -1.2553
 6273TIP3    H243015   3.877   5.597  12.582 -1.6954 -0.2021  0.6527
 6274TIP3   OH243016   0.445   2.082  11.303 -0.5591  0.2022 -0.0982
 6274TIP3    H143017   0.405   2.138  11.237 -1.2002  1.0313  0.9661
 6274TIP3    H243018   0.406   1.996  11.289 -1.1185  0.5066 -0.4389
 6275TIP3   OH243019   3.193   0.460   9.937  0.2318 -0.5997  0.0948
 6275TIP3    H143020   3.143   0.507  10.004  2.3296  2.6193 -0.3992
 6275TIP3    H243021   3.265   0.418   9.985  2.8588  3.2587 -0.0495
 6276TIP3   OH243022   5.809   2.056  10.041 -0.4442  0.2379 -0.5855
 6276TIP3    H143023   5.836   2.118   9.973  0.1687 -0.7957 -1.3197
 6276TIP3    H243024   5.787   2.111  10.116 -0.7084  1.3835 -1.4736
 6277TIP3   OH243025   6.055   6.625  10.067  0.7356  0.0660 -0.1475
 6277TIP3    H143026   6.117   6.665  10.006 -0.5232 -0.3303 -1.7548
 6277TIP3    H243027   6.026   6.545  10.024  1.9144 -1.7984  2.2572
 6278TIP3   OH243028   0.791   2.944  10.170 -0.1984 -0.4014 -0.2115
 6278TIP3    H143029   0.864   2.936  10.109  0.4920 -0.4991  0.6178
 6278TIP3    H243030   0.737   3.014  10.132 -0.3686 -1.2046 -1.5073
 6279TIP3   OH243031   0.780   2.137   9.809 -0.3428 -0.2672  0.5894
 6279TIP3    H143032   0.800   2.218   9.856  1.2329 -0.3325  0.0993
 6279TIP3    H243033   0.692   2.113   9.839 -0.3259  0.9282  1.7071
 6280TIP3   OH243034   5.515   5.652  12.539 -0.2239 -0.3309  0.6566
 6280TIP3    H143035   5.456   5.702  12.482  0.8158 -1.0202 -1.0931
 6280TIP3    H243036   5.580   5.615  12.480  0.5203 -1.6600  2.2327
 6281TIP3   OH243037   1.432   2.460  10.385 -0.0192 -0.1540  0.2986
 6281TIP3    H143038   1.352   2.479  10.336 -0.2491 -0.0491  0.7138
 6281TIP3    H243039   1.502   2.483  10.324 -0.2970 -0.4151 -0.1361
 6282TIP3   OH243040   3.491   2.066  10.392  0.1456  0.1385  0.0511
 6282TIP3    H143041   3.557   2.074  10.461 -0.1508 -0.5052  0.4217
 6282TIP3    H243042   3.485   2.153  10.354  1.2145  0.1989  0.0101
 6283TIP3   OH243043   5.984   0.953  10.913 -0.4233 -0.4045 -0.2792
 6283TIP3    H143044   6.002   0.937  11.005 -0.1424 -0.3599 -0.3254
 6283TIP3    H243045   5.888   0.959  10.908 -0.3913  0.5840  0.1633
 6284TIP3   OH243046   2.485   2.421  11.729 -0.2823  0.2654 -0.6039
 6284TIP3    H143047   2.551   2.470  11.680  0.5159 -1.7615 -1.6771
 6284TIP3    H243048   2.411   2.413  11.668 -0.7471  0.8234 -0.1249
 6285TIP3   OH243049   2.654   6.685  11.592 -0.5175 -0.1175 -0.0775
 6285TIP3    H143050   2.743   6.681  11.626 -1.2009 -1.6510  1.7003
 6285TIP3    H243051   2.613   6.757  11.640 -0.5020 -0.0319 -0.1929
 6286TIP3   OH243052   4.689   3.929   9.705  0.4942 -0.0668 -0.2842
 6286TIP3    H143053   4.638   3.967   9.776  0.2025  0.3674 -0.7275
 6286TIP3    H243054   4.625   3.888   9.647  0.6088  0.7166 -0.9890
 6287TIP3   OH243055   2.133   1.832  12.186 -0.1971 -0.1414 -0.7604
 6287TIP3    H143056   2.200   1.863  12.125 -0.3155  1.1289 -0.2647
 6287TIP3    H243057   2.178   1.828  12.270 -0.8592  1.2740 -0.3090
 6288TIP3   OH243058   6.449   5.226   9.816 -0.5693 -0.7720 -0.2065
 6288TIP3    H143059   6.471   5.163   9.884  0.2178 -1.2233 -0.8681
 6288TIP3    H243060   6.382   5.182   9.764  0.2154 -1.2050 -0.8633
 6289TIP3   OH243061   3.479   4.358  11.566 -0.1132  0.0124  0.1953
 6289TIP3    H143062   3.422   4.411  11.511 -0.1662 -0.6036 -0.3696
 6289TIP3    H243063   3.536   4.312  11.503 -0.2288 -0.7687  0.6486
 6290TIP3   OH243064   4.271   1.509  12.180  0.0093  0.7641 -0.0387
 6290TIP3    H143065   4.322   1.436  12.213  1.1792  1.0156 -1.2071
 6290TIP3    H243066   4.259   1.566  12.256 -1.3944 -0.8379  1.0260
 6291TIP3   OH243067   4.039   4.980  12.621 -0.6736 -0.5421 -0.4701
 6291TIP3    H143068   3.980   4.906  12.634  1.3279 -1.8557  2.1128
 6291TIP3    H243069   4.011   5.045  12.685 -0.1649 -0.6234 -0.1582
 6292TIP3   OH243070   3.835   0.869  11.860 -0.0780  0.6901 -0.5221
 6292TIP3    H143071   3.889   0.854  11.938 -1.8924 -0.5235  0.5746
 6292TIP3    H243072   3.835   0.964  11.849  2.2009  0.7467 -0.5713
 6293TIP3   OH243073   5.934   0.668  11.389  0.2242  0.1467 -0.3559
 6293TIP3    H143074   5.979   0.620  11.319 -2.1997 -1.0293 -1.2345
 6293TIP3    H243075   5.891   0.741  11.345 -2.5352 -1.4302 -0.4873
 6294TIP3   OH243076   1.418   4.262  11.721  0.0708  0.4164  0.3236
 6294TIP3    H143077   1.438   4.356  11.721  0.9868  0.2374 -0.5658
 6294TIP3    H243078   1.497   4.220  11.755  0.8747 -0.2080 -2.0742
 6295TIP3   OH243079   0.113   2.596  10.684  0.1967 -0.3039 -0.2742
 6295TIP3    H143080   0.020   2.617  10.691 -0.2065 -2.0773  0.2359
 6295TIP3    H243081   0.158   2.678  10.704 -1.2447  0.3644  0.3500
 6296TIP3   OH243082   1.929   2.331  11.604 -0.0309  0.4466  0.1977
 6296TIP3    H143083   1.929   2.262  11.539 -0.7873 -0.3540  1.0114
 6296TIP3    H243084   1.994   2.303  11.669 -0.5502  0.3409  0.6790
 6297TIP3   OH243085   5.126   1.696  11.925  0.2575  0.2344  0.2733
 6297TIP3    H143086   5.122   1.694  11.830  0.9002  2.3873  0.1430
 6297TIP3    H243087   5.204   1.646  11.948  0.6383  0.5087 -0.4075
 6298TIP3   OH243088   3.873   1.496  11.839  0.0625  0.1690 -0.2736
 6298TIP3    H143089   3.790   1.543  11.832 -2.5666 -3.8691  0.0509
 6298TIP3    H243090   3.899   1.507  11.931 -1.1436  0.0674  0.1052
 6299TIP3   OH243091   5.487   3.066   9.936  0.5300 -0.1636 -0.5450
 6299TIP3    H143092   5.499   3.083   9.843 -0.0530  2.7847 -0.1877
 6299TIP3    H243093   5.551   3.123   9.979  0.9397 -1.6286  0.9052
 6300TIP3   OH243094   5.673   3.764  11.397  0.1663  0.0290 -0.7316
 6300TIP3    H143095   5.623   3.833  11.352  0.2748 -0.2504 -1.2900
 6300TIP3    H243096   5.714   3.714  11.326 -3.4670 -3.4333 -0.7787
 6301TIP3   OH243097   1.294   0.506  11.399  0.2892 -0.3235  0.0954
 6301TIP3    H143098   1.237   0.448  11.347 -0.8500  0.4481  0.4559
 6301TIP3    H243099   1.242   0.529  11.476  1.1948  0.1972  0.5723
 6302TIP3   OH243100   6.460   6.346  12.539 -0.5661 -0.3548  0.1569
 6302TIP3    H143101   6.480   6.309  12.626 -0.4813  0.4395  0.4850
 6302TIP3    H243102   6.545   6.375  12.506 -0.9823  2.5532  1.3313
 6303TIP3   OH243103   2.747   5.241  10.236  0.4447 -0.2563  0.2139
 6303TIP3    H143104   2.772   5.237  10.143  1.4133 -1.5333  0.4895
 6303TIP3    H243105   2.700   5.323  10.245 -1.0394 -0.8137 -1.7419
 6304TIP3   OH243106   2.008   1.268  10.714  0.0291 -1.3333 -0.1858
 6304TIP3    H143107   1.921   1.272  10.676 -0.2845 -1.7242  0.4899
 6304TIP3    H243108   1.997   1.298  10.804  0.2473 -3.1486  0.4709
 6305TIP3   OH243109   6.594   3.422  11.023  0.7653  0.8465 -0.5526
 6305TIP3    H143110   6.673   3.473  11.041  0.8950  0.5241 -0.1796
 6305TIP3    H243111   6.564   3.452  10.937  0.3830  2.1200 -0.0028
 6306TIP3   OH243112   4.203   0.547  13.068  0.1552  0.1942  0.3498
 6306TIP3    H143113   4.141   0.602  13.021 -2.5117 -2.6097  0.2785
 6306TIP3    H243114   4.238   0.487  13.002  3.1874  1.7674  0.3685
 6307TIP3   OH243115   3.099   5.064   9.629  0.4704  0.2086  0.4354
 6307TIP3    H143116   3.148   4.986   9.603 -0.9778 -1.0280  1.2533
 6307TIP3    H243117   3.100   5.119   9.552  1.5884 -0.5805 -0.1494
 6308TIP3   OH243118   1.736   0.367   9.578  0.3273  0.0119  0.0977
 6308TIP3    H143119   1.770   0.427   9.644 -1.0044 -0.2841  1.0868
 6308TIP3    H243120   1.776   0.283   9.599  0.3443  0.0363  0.1637
 6309TIP3   OH243121   0.719   3.648  10.449  0.7243 -0.2888 -0.1178
 6309TIP3    H143122   0.736   3.648  10.355  2.2254 -0.8197  0.1324
 6309TIP3    H243123   0.691   3.738  10.469  1.3150  0.0799 -0.9147
 6310TIP3   OH243124   5.862   0.307  11.634  0.1882 -0.1658 -0.7630
 6310TIP3    H143125   5.865   0.298  11.729  3.0120 -1.7684 -0.8901
 6310TIP3    H243126   5.848   0.401  11.620 -1.2130 -0.0152  1.1608
 6311TIP3   OH243127   6.321   3.677   9.330  0.2384 -0.1946 -0.3890
 6311TIP3    H143128   6.247   3.680   9.270 -0.1724 -1.9297 -0.0161
 6311TIP3    H243129   6.300   3.607   9.392  1.5399  0.2370  0.6031
 6312TIP3   OH243130   0.206   6.292  13.458  0.4373  0.0106 -0.4388
 6312TIP3    H143131   0.151   6.365  13.429  0.4000  0.2955  0.3198
 6312TIP3    H243132   0.292   6.332  13.473  0.6505 -0.2804 -0.8696
 6313TIP3   OH243133   1.329   4.641   9.424 -0.9463  0.3538  0.4479
 6313TIP3    H143134   1.418   4.618   9.399 -1.4230 -0.2093 -0.8472
 6313TIP3    H243135   1.275   4.568   9.394 -1.9291  1.0171  0.5164
 6314TIP3   OH243136   3.344   3.062  11.870 -0.1274 -0.1232 -0.4777
 6314TIP3    H143137   3.430   3.083  11.833  0.1650 -0.4446  0.0098
 6314TIP3    H243138   3.289   3.043  11.794  0.1933  0.2337 -0.8007
 6315TIP3   OH243139   0.099   3.470   9.531 -0.1043  0.0416 -0.3250
 6315TIP3    H143140   0.072   3.529   9.460 -0.1264  1.9149  1.1580
 6315TIP3    H243141   0.035   3.399   9.528  0.7711 -0.7589 -3.0957
 6316TIP3   OH243142   4.710   2.054  10.731 -0.0455 -0.2468 -0.2597
 6316TIP3    H143143   4.685   2.145  10.717 -2.3816 -0.6969  0.4315
 6316TIP3    H243144   4.767   2.055  10.808  0.3700  0.6607 -0.5732
 6317TIP3   OH243145   1.296   1.030  11.278 -0.0781  0.6796 -0.4741
 6317TIP3    H143146   1.278   0.936  11.280  0.1672  0.6280 -0.6297
 6317TIP3    H243147   1.253   1.062  11.199 -1.6011  1.0069  0.4406
 6318TIP3   OH243148   1.822   5.137  11.543  0.1600 -0.7292  0.2348
 6318TIP3    H143149   1.804   5.089  11.623  0.7128  0.5160  1.1339
 6318TIP3    H243150   1.883   5.206  11.569  1.2253 -0.9656 -1.4745
 6319TIP3   OH243151   3.056   0.003  10.744 -0.1186 -0.3103  0.1377
 6319TIP3    H143152   3.139  -0.036  10.717 -0.0416  0.3488 -0.6337
 6319TIP3    H243153   3.081   0.079  10.796 -0.2643 -1.0473  1.3116
 6320TIP3   OH243154   5.067   6.590  10.086  0.2271  0.1894 -0.0836
 6320TIP3    H143155   5.010   6.653  10.129 -3.0081 -0.8382 -2.4674
 6320TIP3    H243156   5.128   6.643  10.035  0.2465  1.3211  1.0764
 6321TIP3   OH243157   0.110   1.926  11.761 -0.0988 -0.2658  0.2276
 6321TIP3    H143158   0.074   1.977  11.834 -0.6736 -0.0099 -0.2233
 6321TIP3    H243159   0.077   1.838  11.776  1.2323 -0.6169  1.2327
 6322TIP3   OH243160   1.314   2.173   9.695 -0.1367 -0.6039 -0.1284
 6322TIP3    H143161   1.229   2.159   9.655  0.4432 -1.9699 -0.9654
 6322TIP3    H243162   1.352   2.085   9.703  1.1163 -0.0512  0.3929
 6323TIP3   OH243163   4.992   3.979  11.349  0.0400  0.0423 -0.0055
 6323TIP3    H143164   5.069   3.935  11.313  0.1006 -0.7413  1.0374
 6323TIP3    H243165   4.986   3.947  11.439  0.2457  2.3583  0.9289
 6324TIP3   OH243166   3.946   5.764  11.129 -0.2305 -0.6393 -0.2090
 6324TIP3    H143167   3.943   5.849  11.083 -0.1941 -1.4163 -1.7216
 6324TIP3    H243168   3.986   5.784  11.213  2.5191  0.4018 -1.6340
 6325TIP3   OH243169   5.742   5.551  10.684  0.3263  0.3580 -0.4968
 6325TIP3    H143170   5.821   5.598  10.656  1.6423 -1.8358 -0.6877
 6325TIP3    H243171   5.700   5.524  10.603  0.9404 -0.8991 -0.4183
 6326TIP3   OH243172   1.988   0.425  12.090 -0.6040 -0.2160  0.7219
 6326TIP3    H143173   1.913   0.484  12.086 -0.0204  0.4870 -2.0075
 6326TIP3    H243174   1.958   0.345  12.047  0.2673  0.2163 -0.7669
 6327TIP3   OH243175   3.775   5.051  11.751  0.6083  0.0763  0.1608
 6327TIP3    H143176   3.781   4.991  11.677  0.8311  0.0894  0.1672
 6327TIP3    H243177   3.830   5.125  11.727 -0.6942  0.8785 -0.4055
 6328TIP3   OH243178   3.746   2.501  11.302 -0.1108 -0.1112  0.5478
 6328TIP3    H143179   3.805   2.554  11.356  0.4506 -1.3254  1.1709
 6328TIP3    H243180   3.690   2.455  11.365 -0.8233 -0.0026  0.0089
 6329TIP3   OH243181   0.558   3.198  11.440 -0.1177 -0.2731  0.4239
 6329TIP3    H143182   0.536   3.244  11.359  1.3777  1.8558  1.1475
 6329TIP3    H243183   0.583   3.110  11.411  0.2346  0.3866 -1.4102
 6330TIP3   OH243184   0.708   0.566   9.480 -0.7176 -0.4437 -0.2980
 6330TIP3    H143185   0.732   0.503   9.412 -1.5726 -1.1429  0.0339
 6330TIP3    H243186   0.746   0.649   9.450  0.7464 -1.1720 -0.5607
 6331TIP3   OH243187   3.960   5.068  10.580 -0.0603 -0.1718  0.3079
 6331TIP3    H143188   3.914   5.132  10.525 -4.1957 -1.2023  2.1895
 6331TIP3    H243189   3.983   5.117  10.659 -2.0881 -0.5718  1.2133
 6332TIP3   OH243190   0.723   0.886  11.459 -0.5983  0.5537 -0.1772
 6332TIP3    H143191   0.729   0.857  11.368  3.2452 -1.0150  0.3593
 6332TIP3    H243192   0.691   0.809  11.506 -0.3693  0.5925  0.0423
 6333TIP3   OH243193   0.238   1.358  12.133  0.1018 -0.3883 -0.5968
 6333TIP3    H143194   0.191   1.439  12.153 -1.1265 -1.5579  1.5859
 6333TIP3    H243195   0.225   1.347  12.039 -0.6426  1.3603 -0.7500
 6334TIP3   OH243196   3.136   0.330  12.041 -0.0781  0.0868  0.0723
 6334TIP3    H143197   3.231   0.335  12.039  0.0361 -1.4659  0.6419
 6334TIP3    H243198   3.117   0.238  12.057 -1.6878  0.2732 -0.5805
 6335TIP3   OH243199   3.211   6.436  10.864  0.5654  0.4912  0.0239
 6335TIP3    H143200   3.228   6.423  10.771  0.5936  1.3084 -0.0873
 6335TIP3    H243201   3.246   6.523  10.883 -1.1977  1.1615  0.3611
 6336TIP3   OH243202   2.867   4.106  12.125 -0.2407  0.3264  0.4215
 6336TIP3    H143203   2.885   4.016  12.099 -1.0254  0.5924 -1.1697
 6336TIP3    H243204   2.923   4.159  12.069  0.7543  0.8556  1.8366
 6337TIP3   OH243205   1.671   0.357  10.639  0.7058 -0.0528 -0.5820
 6337TIP3    H143206   1.698   0.290  10.577  0.6840 -1.8122  1.2184
 6337TIP3    H243207   1.579   0.373  10.617  0.4548 -1.2717 -0.4897
 6338TIP3   OH243208   4.531   5.783  10.968 -0.5070 -0.2815 -0.8030
 6338TIP3    H143209   4.485   5.842  10.910 -0.7392 -0.0150 -0.3552
 6338TIP3    H243210   4.542   5.703  10.917 -4.1576 -1.5083  0.0016
 6339TIP3   OH243211   4.485   4.899  12.094  0.1714  0.5877  0.4476
 6339TIP3    H143212   4.424   4.832  12.063  1.6921  0.1796 -1.9191
 6339TIP3    H243213   4.468   4.974  12.038  2.1563  0.2737 -0.6555
 6340TIP3   OH243214   2.709   5.131  11.608 -0.1869 -0.1253  0.1275
 6340TIP3    H143215   2.664   5.216  11.612 -1.1837 -0.6623  0.4656
 6340TIP3    H243216   2.728   5.120  11.515  0.3260  0.6558  0.1267
 6341TIP3   OH243217   2.103   5.059  13.065  0.1072 -0.7927  0.0802
 6341TIP3    H143218   2.082   5.108  13.145 -1.3726 -1.7596  0.3395
 6341TIP3    H243219   2.021   5.015  13.043  0.5128 -0.5892 -1.9614
 6342TIP3   OH243220   5.406   5.826  10.223  0.0663  0.1617 -0.6715
 6342TIP3    H143221   5.480   5.776  10.187  0.6457  1.4063 -1.2712
 6342TIP3    H243222   5.381   5.885  10.152 -0.2794  1.0660  0.1856
 6343TIP3   OH243223   4.899   0.634  11.628  0.9195 -0.5492 -0.0566
 6343TIP3    H143224   4.878   0.716  11.672 -1.3177 -1.2334  0.2464
 6343TIP3    H243225   4.992   0.641  11.607  1.0538  1.5341  1.0496
 6344TIP3   OH243226   3.341   3.882  12.583 -0.2180  0.1997  0.3821
 6344TIP3    H143227   3.422   3.835  12.560 -0.3087  0.8358 -1.4190
 6344TIP3    H243228   3.368   3.946  12.648  0.6273  0.0319  0.2105
 6345TIP3   OH243229   5.159   3.965   9.453  0.3059  0.1343  0.8543
 6345TIP3    H143230   5.087   3.978   9.514 -1.0293 -0.3957 -0.5533
 6345TIP3    H243231   5.120   3.922   9.378  2.2155 -0.7247  0.2820
 6346TIP3   OH243232   6.246   4.993  11.506  0.0304  0.0894 -0.2098
 6346TIP3    H143233   6.302   5.066  11.532  0.5611 -0.5798  0.6291
 6346TIP3    H243234   6.243   4.996  11.411  1.3061  0.3001 -0.2584
 6347TIP3   OH243235   5.675   6.514   9.230  0.0443 -0.1721  0.1049
 6347TIP3    H143236   5.762   6.539   9.199  0.6600 -1.3158  0.8437
 6347TIP3    H243237   5.664   6.424   9.200 -0.7954 -0.1204  0.2236
 6348TIP3   OH243238   5.078   3.684  12.092 -0.7948 -0.4101 -0.3475
 6348TIP3    H143239   5.046   3.600  12.060 -0.7919 -0.6914  0.3589
 6348TIP3    H243240   5.084   3.672  12.187 -0.8008  0.3876 -0.2408
 6349TIP3   OH243241   1.157   3.309  11.837  0.1006  0.2252 -0.0018
 6349TIP3    H143242   1.160   3.404  11.841  2.3599  0.1807  0.8761
 6349TIP3    H243243   1.167   3.280  11.928  1.1975 -0.8152 -0.4096
 6350TIP3   OH243244   3.649   1.959   9.623 -0.0660 -0.3005 -0.2007
 6350TIP3    H143245   3.581   1.902   9.658 -0.8347  0.2346 -0.7785
 6350TIP3    H243246   3.608   2.046   9.619  0.3919 -0.1094 -1.2257
 6351TIP3   OH243247   0.827   0.919  12.174 -0.3573  0.3841  0.2339
 6351TIP3    H143248   0.770   0.996  12.175  2.0999  2.3279 -0.0318
 6351TIP3    H243249   0.886   0.932  12.248  0.2683 -1.1619  0.0369
 6352TIP3   OH243250   3.616   5.242  10.142 -0.5651  0.5280  0.3967
 6352TIP3    H143251   3.590   5.307  10.208  1.6581  1.8358  0.0891
 6352TIP3    H243252   3.536   5.228  10.091 -1.5357  1.8402  1.4613
 6353TIP3   OH243253   2.276   3.535  10.293 -0.3068 -0.2098 -0.1008
 6353TIP3    H143254   2.221   3.614  10.290 -2.2439 -1.4584  0.7931
 6353TIP3    H243255   2.237   3.481  10.361  1.5026 -1.6007 -0.0906
 6354TIP3   OH243256   0.921   5.053  11.467 -0.4131  0.0584 -0.0477
 6354TIP3    H143257   0.861   5.093  11.403 -0.0852  0.8503  0.1222
 6354TIP3    H243258   0.864   5.008  11.529 -0.7747 -0.1114 -0.4966
 6355TIP3   OH243259   2.224   1.911  10.663 -0.9299 -0.1898 -0.4547
 6355TIP3    H143260   2.139   1.952  10.679 -1.0002 -0.5018 -0.0154
 6355TIP3    H243261   2.204   1.826  10.624 -0.7917  0.0818 -1.1253
 6356TIP3   OH243262   0.073   2.324  11.708 -0.1889 -0.2197 -0.5699
 6356TIP3    H143263   0.079   2.243  11.759 -0.3600 -0.4389 -0.8943
 6356TIP3    H243264  -0.003   2.370  11.744  0.8314  0.5570  0.6895
 6357TIP3   OH243265   1.064   4.952  11.855 -0.7859  0.1854  0.0258
 6357TIP3    H143266   1.048   5.037  11.896  0.6234  0.6603 -0.3377
 6357TIP3    H243267   1.013   4.890  11.907 -0.6316  1.0481  1.2569
 6358TIP3   OH243268   2.896   0.639   9.895 -0.0296  0.0196 -0.5102
 6358TIP3    H143269   2.801   0.650   9.900 -0.3031 -1.1072 -2.1627
 6358TIP3    H243270   2.921   0.605   9.981 -1.0300  0.8175  0.1138
 6359TIP3   OH243271   3.615   1.393   9.425 -0.0726  0.2669  0.1675
 6359TIP3    H143272   3.687   1.455   9.414 -0.2970  0.6672  0.8368
 6359TIP3    H243273   3.539   1.449   9.446 -0.4558 -0.1792 -0.0212
 6360TIP3   OH243274   2.791   1.799  10.321  0.2158  0.2550 -0.2938
 6360TIP3    H143275   2.696   1.806  10.310  0.1482  1.6750  0.8677
 6360TIP3    H243276   2.806   1.706  10.340 -1.5453  0.5628  3.7121
 6361TIP3   OH243277   2.932   3.244  10.678  0.9632 -0.2936 -0.1997
 6361TIP3    H143278   2.863   3.260  10.614  0.2628 -1.1818  0.3211
 6361TIP3    H243279   2.957   3.331  10.708 -0.7095  0.0040  0.4199
 6362TIP3   OH243280   4.397   0.452  11.251 -0.1029 -0.2632 -0.1264
 6362TIP3    H143281   4.382   0.508  11.328 -1.0488 -0.8292  0.1325
 6362TIP3    H243282   4.330   0.383  11.259 -0.0769 -0.4541 -1.3457
 6363TIP3   OH243283   1.049   0.067  11.482 -0.0091  0.3104  0.6374
 6363TIP3    H143284   1.028   0.105  11.567  0.4542  1.1415  0.3904
 6363TIP3    H243285   1.142   0.086  11.470  0.6226 -2.0601  1.0921
 6364TIP3   OH243286   4.459   6.354  12.840 -0.5530  0.1280 -0.4578
 6364TIP3    H143287   4.372   6.392  12.828 -0.0042  1.3941 -0.6163
 6364TIP3    H243288   4.454   6.307  12.923 -1.6434 -0.5933 -0.9081
 6365TIP3   OH243289   5.704   3.190  11.241  0.0200  0.0860 -0.3025
 6365TIP3    H143290   5.618   3.232  11.249 -0.7469 -1.6640  1.3796
 6365TIP3    H243291   5.752   3.219  11.319  0.9646  0.9466 -1.1634
 6366TIP3   OH243292   5.710   1.564  12.634  0.7270 -0.1091 -0.1788
 6366TIP3    H143293   5.766   1.632  12.597 -0.3079 -0.1567 -1.9641
 6366TIP3    H243294   5.750   1.543  12.718  0.5500  3.4074  0.9510
 6367TIP3   OH243295   4.156   1.440   9.613  0.0296 -0.7235  0.3512
 6367TIP3    H143296   4.170   1.432   9.519 -1.2737  0.3886  0.0429
 6367TIP3    H243297   4.105   1.363   9.637  0.1891 -0.9033  0.1136
 6368TIP3   OH243298   5.531   1.623  10.726  0.0592 -0.1926 -0.0124
 6368TIP3    H143299   5.494   1.574  10.799  3.6524 -0.3179  2.0012
 6368TIP3    H243300   5.560   1.556  10.664  1.7080 -0.5198  1.0350
 6369TIP3   OH243301   2.785   0.757  11.896  0.3275  0.0898 -0.3244
 6369TIP3    H143302   2.693   0.782  11.886  1.0380  2.8114 -1.0145
 6369TIP3    H243303   2.800   0.692  11.827 -1.3727 -1.5319  0.7528
 6370TIP3   OH243304   5.340   4.277  10.267 -0.4654 -0.7020  0.7907
 6370TIP3    H143305   5.253   4.305  10.295 -0.2056 -0.0941  0.9945
 6370TIP3    H243306   5.400   4.335  10.312  0.0474 -1.0232  0.5349
 6371TIP3   OH243307   6.511   2.085  11.629 -0.3731 -0.2343  0.5365
 6371TIP3    H143308   6.459   2.143  11.574 -1.0303  0.8956  2.2794
 6371TIP3    H243309   6.576   2.047  11.570 -0.5641  1.5052 -0.8486
 6372TIP3   OH243310   2.526   5.816  13.282 -0.0983  0.1208  0.1355
 6372TIP3    H143311   2.474   5.776  13.213  0.4687 -1.1580  0.4175
 6372TIP3    H243312   2.479   5.795  13.363 -0.1898  0.6786  0.2300
 6373TIP3   OH243313   0.751   5.184  11.314 -0.4648 -0.0520  0.5955
 6373TIP3    H143314   0.686   5.186  11.384 -1.4153  2.7010 -0.2683
 6373TIP3    H243315   0.702   5.155  11.237 -0.2726  0.3467  0.3198
 6374TIP3   OH243316   0.623   0.880   9.879 -0.0625 -0.2751 -0.5126
 6374TIP3    H143317   0.661   0.793   9.866 -0.2032 -0.4193  0.0067
 6374TIP3    H243318   0.542   0.879   9.829 -0.6340 -0.8434  0.3909
 6375TIP3   OH243319   2.394   5.510   9.799 -0.2156 -0.2552  0.6765
 6375TIP3    H143320   2.332   5.540   9.732  0.2618 -2.3779 -0.8055
 6375TIP3    H243321   2.420   5.591   9.845 -1.7620  1.0634 -0.6299
 6376TIP3   OH243322   0.212   2.726  12.547  0.3724 -0.6343  0.0187
 6376TIP3    H143323   0.173   2.658  12.492  0.3042 -0.6932  0.1408
 6376TIP3    H243324   0.139   2.763  12.596  0.2385  0.2771 -0.8434
 6377TIP3   OH243325   1.973   0.323  10.602  0.3017  0.5845 -0.0492
 6377TIP3    H143326   2.031   0.395  10.629 -0.0593  1.1314 -0.7021
 6377TIP3    H243327   1.907   0.319  10.671  0.8384  0.2804  0.4508
 6378TIP3   OH243328   5.756   0.075  10.484  0.4252 -0.5045  0.2058
 6378TIP3    H143329   5.771   0.105  10.394  0.1746  0.4284  0.4619
 6378TIP3    H243330   5.790   0.146  10.539 -0.6797 -0.4437  0.8359
 6379TIP3   OH243331   4.221   5.978  20.869 -0.2898 -0.5898 -0.4098
 6379TIP3    H143332   4.243   6.015  20.955 -0.6616 -2.3493  0.4855
 6379TIP3    H243333   4.194   6.053  20.817  0.1256  0.5464  0.9505
 6380TIP3   OH243334   5.351   5.256  12.179  0.2903  0.1771  0.2302
 6380TIP3    H143335   5.342   5.348  12.153  0.4016  0.5818  1.5394
 6380TIP3    H243336   5.366   5.209  12.097  0.1969  1.3201 -0.4627
 6381TIP3   OH243337   4.531   1.683  10.059  0.3684  0.5564 -0.2385
 6381TIP3    H143338   4.439   1.703  10.040  0.3634  1.3952  0.5798
 6381TIP3    H243339   4.579   1.725   9.988  0.1315  0.0612 -0.7072
 6382TIP3   OH243340   0.209   1.541  11.104 -0.1524  0.2517  0.4812
 6382TIP3    H143341   0.158   1.522  11.183  0.7395 -1.0260  0.7766
 6382TIP3    H243342   0.299   1.553  11.137 -0.2052  2.3986 -0.0288
 6383TIP3   OH243343   0.631   5.601  11.697 -0.0105  0.7115  0.1071
 6383TIP3    H143344   0.580   5.682  11.701  0.0405  0.8261 -1.1687
 6383TIP3    H243345   0.642   5.584  11.603  1.3474  0.0774  0.3598
 6384TIP3   OH243346   4.458   0.623  11.482  0.3383 -0.2605  1.0498
 6384TIP3    H143347   4.535   0.567  11.470  0.4298  0.1264 -0.2980
 6384TIP3    H243348   4.417   0.590  11.562  0.8215 -1.7495  0.7146
 6385TIP3   OH243349   1.515   3.820  10.728 -0.1497 -0.2271  0.2384
 6385TIP3    H143350   1.432   3.840  10.685 -1.0624 -2.6861  0.6933
 6385TIP3    H243351   1.520   3.882  10.801 -0.9553  0.7712 -0.5380
 6386TIP3   OH243352   2.485   0.383  10.728 -0.6800  0.7297 -0.0061
 6386TIP3    H143353   2.572   0.344  10.738 -0.8718  0.2168 -0.2843
 6386TIP3    H243354   2.473   0.436  10.806 -0.0294  0.9748 -0.0654
 6387TIP3   OH243355   6.612   5.479  10.657 -0.3373  0.0452  0.4003
 6387TIP3    H143356   6.559   5.544  10.612 -1.6325 -0.6286  0.9016
 6387TIP3    H243357   6.560   5.453  10.733 -1.1186 -3.4385 -1.1090
 6388TIP3   OH243358   6.367   0.748  10.590 -0.0017  0.9964  0.2239
 6388TIP3    H143359   6.440   0.807  10.608 -0.1099  0.4991  2.6289
 6388TIP3    H243360   6.293   0.784  10.639 -0.5447 -0.1384  0.2849
 6389TIP3   OH243361   3.951   5.246  10.788  0.0968 -0.2112 -0.0852
 6389TIP3    H143362   3.948   5.212  10.878 -1.5432  0.6838  0.2483
 6389TIP3    H243363   3.996   5.330  10.795 -0.3978  0.0534 -0.0102
 6390TIP3   OH243364   4.593   6.278  12.613 -0.4605  0.2442 -0.3678
 6390TIP3    H143365   4.536   6.290  12.688 -0.1215  0.6718 -0.1784
 6390TIP3    H243366   4.625   6.188  12.622 -2.9152 -0.8632 -1.7422
 6391TIP3   OH243367   1.419   2.296  12.411  0.3949  0.3346 -0.5874
 6391TIP3    H143368   1.361   2.356  12.457 -0.2266 -1.8048  1.6860
 6391TIP3    H243369   1.506   2.313  12.448  0.5899  1.0910 -1.3611
 6392TIP3   OH243370   4.207   1.908   9.596  0.8423 -0.0550 -0.6321
 6392TIP3    H143371   4.221   1.940   9.686 -0.3198 -2.0396  0.3406
 6392TIP3    H243372   4.112   1.917   9.583  0.4935 -2.6662 -0.3969
 6393TIP3   OH243373   5.153   1.109  10.295  0.1691  0.0893  0.0243
 6393TIP3    H143374   5.228   1.159  10.263 -1.0642  0.7011 -2.1323
 6393TIP3    H243375   5.078   1.167  10.282 -0.8429 -0.9604  0.9722
 6394TIP3   OH243376   2.899   1.903  10.626  0.5496 -0.3552 -0.1506
 6394TIP3    H143377   2.906   1.929  10.534 -1.5172 -0.4598 -0.3764
 6394TIP3    H243378   2.807   1.918  10.649  0.9043 -0.8029  1.7692
 6395TIP3   OH243379   6.666   0.775  10.037 -0.1109  0.2549 -0.0968
 6395TIP3    H143380   6.596   0.815  10.089 -0.1000 -0.6734  0.6479
 6395TIP3    H243381   6.626   0.758   9.952 -0.5233  0.5624  0.0314
 6396TIP3   OH243382   4.467   2.939  21.201  0.0293 -1.0009  0.2795
 6396TIP3    H143383   4.452   2.897  21.286 -0.3658 -0.2444  0.5910
 6396TIP3    H243384   4.562   2.931  21.188  0.4831  0.8605  1.8925
 6397TIP3   OH243385   2.965   1.347  12.231  0.1540  0.0180  0.9142
 6397TIP3    H143386   3.001   1.262  12.209 -1.6481 -0.3189 -1.0313
 6397TIP3    H243387   2.879   1.328  12.268  0.3268  0.9394  1.8287
 6398TIP3   OH243388   5.648   3.482  11.081 -0.0182  0.4116 -0.1110
 6398TIP3    H143389   5.638   3.467  10.987 -2.0225  2.3548 -0.2979
 6398TIP3    H243390   5.565   3.450  11.118 -0.3617  2.0328  0.6105
 6399TIP3   OH243391   0.191   3.825  10.142  0.6122  0.9128 -0.0370
 6399TIP3    H143392   0.117   3.886  10.133 -0.6809 -0.6740 -0.6584
 6399TIP3    H243393   0.242   3.839  10.062 -1.4125 -0.9584 -1.7733
 6400TIP3   OH243394   3.704   4.614  13.281 -0.1614  0.4465  0.4860
 6400TIP3    H143395   3.724   4.697  13.325  2.3460 -0.1111  0.5349
 6400TIP3    H243396   3.727   4.546  13.344 -0.1837 -0.3165 -0.3100
 6401TIP3   OH243397   1.829   5.695  11.518  0.1887  0.1856  0.4851
 6401TIP3    H143398   1.748   5.726  11.477  0.0349  0.0403  0.6786
 6401TIP3    H243399   1.876   5.774  11.543 -0.0408  0.2675  0.6590
 6402TIP3   OH243400   5.733   5.884  10.031  0.3338  0.2353  0.3111
 6402TIP3    H143401   5.698   5.806  10.074 -1.1282  0.8270  0.2499
 6402TIP3    H243402   5.773   5.852   9.950 -0.1237 -0.4653  0.3568
 6403TIP3   OH243403   3.297   2.206  10.228 -0.1063 -0.3487  0.3244
 6403TIP3    H143404   3.362   2.275  10.238 -1.1573  1.0747 -1.8840
 6403TIP3    H243405   3.218   2.242  10.269 -0.9219  0.2408 -1.6648
 6404TIP3   OH243406   3.771   6.507  12.910  0.2977  0.5542  0.2352
 6404TIP3    H143407   3.861   6.504  12.943  0.8685 -1.3089 -1.2925
 6404TIP3    H243408   3.738   6.418  12.922 -1.0838  1.0125  0.0360
 6405TIP3   OH243409   3.837   4.129   9.950  0.6439  0.2210  0.0917
 6405TIP3    H143410   3.768   4.129  10.016 -0.7893 -0.3569 -1.3411
 6405TIP3    H243411   3.882   4.045   9.962 -1.3108 -1.1091 -1.2851
 6406TIP3   OH243412   5.630   6.382  11.692 -0.3655 -0.0848 -0.0879
 6406TIP3    H143413   5.554   6.441  11.700 -0.2268  0.1176 -0.2528
 6406TIP3    H243414   5.706   6.438  11.706 -0.2747 -0.4480  0.9103
 6407TIP3   OH243415   1.246   1.435  11.389  0.5531  0.3668 -0.1102
 6407TIP3    H143416   1.274   1.351  11.425  0.8218  0.1414 -0.8309
 6407TIP3    H243417   1.301   1.448  11.312  0.8417  1.4277  0.2539
 6408TIP3   OH243418   3.181   5.839  11.724  0.2605 -0.2180  0.6411
 6408TIP3    H143419   3.209   5.927  11.747 -1.9961  0.5745  0.5833
 6408TIP3    H243420   3.171   5.841  11.629  1.6538 -1.0364  0.4448
 6409TIP3   OH243421   5.034   2.016   9.879 -0.0770 -0.0648 -0.1308
 6409TIP3    H143422   5.091   1.945   9.852 -0.8096 -1.4767  1.8243
 6409TIP3    H243423   5.085   2.067   9.942  0.0615  0.5015 -0.6895
 6410TIP3   OH243424   3.213   2.193  11.325  0.1893  0.1970  0.4535
 6410TIP3    H143425   3.131   2.167  11.283 -0.0476  1.8706 -0.2216
 6410TIP3    H243426   3.271   2.118  11.313 -1.3853 -1.2434  1.4483
 6411TIP3   OH243427   0.843   1.112  12.638 -0.1982  0.6233  0.0329
 6411TIP3    H143428   0.849   1.204  12.609 -0.0556  0.7191  0.3598
 6411TIP3    H243429   0.750   1.090  12.631 -0.5622  1.3994  1.7724
 6412TIP3   OH243430   5.955   1.644  10.191  0.1255 -0.7036 -0.3772
 6412TIP3    H143431   6.019   1.642  10.120  0.2310  1.8481 -0.4491
 6412TIP3    H243432   6.008   1.650  10.271 -0.0169 -1.2775 -0.2339
 6413TIP3   OH243433   1.984   6.474  11.449  0.2227 -0.2379  0.4535
 6413TIP3    H143434   2.077   6.451  11.441  0.2742  0.3814 -1.1870
 6413TIP3    H243435   1.938   6.401  11.406 -0.0842 -0.6425  1.4376
 6414TIP3   OH243436   2.531   0.480  12.213  0.2525 -0.6117 -0.1916
 6414TIP3    H143437   2.498   0.484  12.303  0.9005 -0.9824  0.0694
 6414TIP3    H243438   2.460   0.516  12.160  0.4795  1.1401  0.6184
 6415TIP3   OH243439   4.101   5.267  11.351 -0.2265  0.1288 -0.1652
 6415TIP3    H143440   4.145   5.351  11.358 -1.4826  0.7236  1.0242
 6415TIP3    H243441   4.142   5.213  11.419 -0.7156  0.4080  0.3623
 6416TIP3   OH243442   3.436   5.518  11.379  0.2074 -0.2189 -0.1005
 6416TIP3    H143443   3.410   5.546  11.467 -0.5845  0.5384 -0.5632
 6416TIP3    H243444   3.467   5.428  11.391 -2.7900 -1.3015  0.5082
 6417TIP3   OH243445   0.805   0.883  13.089  0.1770 -0.1293 -0.2430
 6417TIP3    H143446   0.776   0.961  13.137 -1.1622 -0.6798 -0.1220
 6417TIP3    H243447   0.737   0.818  13.106  1.2305 -1.2981 -0.4274
 6418TIP3   OH243448   0.662   5.761  10.017 -0.2193  0.0442  0.3092
 6418TIP3    H143449   0.713   5.812   9.955 -0.1655  2.4004  2.1422
 6418TIP3    H243450   0.595   5.718   9.964 -0.3175  2.1182 -1.3606
 6419TIP3   OH243451   2.412   6.274  11.457 -0.3703  0.3207 -0.1190
 6419TIP3    H143452   2.323   6.250  11.482  0.5141 -0.2677  2.8601
 6419TIP3    H243453   2.444   6.200  11.406 -1.1202 -0.1288  0.0589
 6420TIP3   OH243454   5.094   1.389   9.738  0.2960  0.4682 -0.5100
 6420TIP3    H143455   5.027   1.343   9.688  0.6692  0.8089 -1.3500
 6420TIP3    H243456   5.108   1.335   9.816  0.6582 -0.8006 -1.4180
 6421TIP3   OH243457   3.997   1.881  12.023 -0.4279  0.4687  0.2173
 6421TIP3    H143458   4.037   1.942  12.085 -0.0832  1.4304 -0.9305
 6421TIP3    H243459   4.033   1.795  12.047  2.2501  1.2628 -0.6793
 6422TIP3   OH243460   5.605   2.316  11.342 -0.2697 -0.0137  0.6638
 6422TIP3    H143461   5.690   2.279  11.318 -0.1894 -0.3944  1.4842
 6422TIP3    H243462   5.622   2.410  11.353  0.0613 -0.0946  0.8661
 6423TIP3   OH243463   1.552   0.616  12.510 -0.6442  1.0391  0.2256
 6423TIP3    H143464   1.604   0.694  12.530  0.3820  0.5754 -0.5252
 6423TIP3    H243465   1.530   0.578  12.595 -2.2259  2.7942  0.6702
 6424TIP3   OH243466   5.316   0.729   9.387  0.4245 -0.5294  0.0649
 6424TIP3    H143467   5.337   0.795   9.321 -1.4425  0.6281  0.5569
 6424TIP3    H243468   5.312   0.778   9.469 -1.5896 -1.1114  0.3532
 6425TIP3   OH243469   5.354   3.100  11.130  0.6249  0.1116 -0.1535
 6425TIP3    H143470   5.265   3.091  11.097  0.7297  0.7798 -0.6308
 6425TIP3    H243471   5.382   3.188  11.103  1.4296 -0.0893 -0.0158
 6426TIP3   OH243472   1.233   6.270  12.446 -0.6665  0.3482  0.4069
 6426TIP3    H143473   1.251   6.324  12.523  2.7834  0.3454 -0.2446
 6426TIP3    H243474   1.256   6.181  12.473 -0.0873  0.2430 -0.3865
 6427TIP3   OH243475   5.366   1.560   9.792 -0.3449  0.0868  0.2351
 6427TIP3    H143476   5.329   1.648   9.794 -1.6970 -0.4026 -0.8185
 6427TIP3    H243477   5.304   1.510   9.738  0.5848 -1.4124  0.4968
 6428TIP3   OH243478   5.726   2.495  12.000  0.1780  0.3542  0.4559
 6428TIP3    H143479   5.759   2.559  12.064  2.2568 -2.2669  2.2128
 6428TIP3    H243480   5.638   2.473  12.032  0.3751  0.6158  1.2110
 6429TIP3   OH243481   4.802   6.098   9.303  0.6122  0.4209 -0.1049
 6429TIP3    H143482   4.831   6.007   9.299 -0.4537  0.1051 -2.5797
 6429TIP3    H243483   4.716   6.098   9.261  0.5936  2.5684 -0.1979
 6430TIP3   OH243484   5.619   1.181  10.053 -0.5652 -0.5795  0.1007
 6430TIP3    H143485   5.656   1.093  10.045  0.4833 -0.0400 -1.1412
 6430TIP3    H243486   5.694   1.239  10.063 -1.2019  0.2717  0.1063
 6431TIP3   OH243487   0.734   4.797  10.344 -0.3382  0.1463  0.2949
 6431TIP3    H143488   0.639   4.795  10.351 -0.4967 -1.1125 -1.7309
 6431TIP3    H243489   0.764   4.800  10.435 -2.2839 -0.1440  0.9959
 6432TIP3   OH243490   0.664   6.135  11.816 -0.1927 -0.3287 -0.1551
 6432TIP3    H143491   0.656   6.227  11.794 -2.6978 -0.6392 -0.8603
 6432TIP3    H243492   0.675   6.133  11.912  0.7007  0.6926 -0.2257
 6433TIP3   OH243493   5.147   4.921  11.431  0.3640 -0.1992 -0.2041
 6433TIP3    H143494   5.123   4.886  11.516  1.3228 -1.1259 -0.2895
 6433TIP3    H243495   5.240   4.900  11.421  1.3823  3.3811  0.2198
 6434TIP3   OH243496   6.084   5.541  10.356  0.1434  0.2475  0.7684
 6434TIP3    H143497   6.144   5.471  10.327  0.8273  1.0865  0.1083
 6434TIP3    H243498   6.057   5.514  10.444  1.0078 -0.4665  0.8322
 6435TIP3   OH243499   5.127   5.217  12.779  0.3585 -0.4147  0.0700
 6435TIP3    H143500   5.046   5.268  12.772  0.4455 -0.0050  1.6568
 6435TIP3    H243501   5.104   5.131  12.744 -0.9445 -0.4876  1.0353
 6436TIP3   OH243502   3.083   2.972   9.870 -0.2009 -0.3851 -0.3356
 6436TIP3    H143503   3.069   2.920   9.949  0.4511  1.5914  1.1433
 6436TIP3    H243504   3.174   2.999   9.874 -0.2133 -0.0466 -1.6602
 6437TIP3   OH243505   5.242   6.429  10.300 -0.3300  0.0238  0.0408
 6437TIP3    H143506   5.173   6.413  10.235 -1.3791  1.5648  0.6954
 6437TIP3    H243507   5.280   6.513  10.274 -0.3398  0.3521  1.0449
 6438TIP3   OH243508   4.980   1.480  10.621  0.2804  0.1858 -0.5676
 6438TIP3    H143509   5.054   1.438  10.578  0.6896  0.6412 -0.3119
 6438TIP3    H243510   4.998   1.574  10.615  0.1023  0.2770  0.1510
 6439TIP3   OH243511   3.990   3.304  13.045 -0.5526  0.0649  0.0601
 6439TIP3    H143512   4.000   3.279  12.953 -0.7264  1.1773 -0.2781
 6439TIP3    H243513   3.905   3.348  13.049 -0.2248  0.6765  0.5915
 6440TIP3   OH243514   1.213   0.796  10.600  0.0461 -0.0715 -0.1975
 6440TIP3    H143515   1.145   0.763  10.658  0.7937  0.8304  1.2437
 6440TIP3    H243516   1.191   0.760  10.514 -1.3604 -1.0453  0.5383
 6441TIP3   OH243517   2.661   4.873  11.708  0.6226  0.3008 -0.1377
 6441TIP3    H143518   2.587   4.847  11.654  1.1991 -0.6690 -0.4851
 6441TIP3    H243519   2.679   4.964  11.681 -0.2186  0.4319 -0.2814
 6442TIP3   OH243520   3.562   1.118  11.830  0.1804  0.3822 -0.4746
 6442TIP3    H143521   3.568   1.035  11.877 -0.1324  0.3065 -0.5699
 6442TIP3    H243522   3.599   1.182  11.890 -3.0872  0.8665  1.2151
 6443TIP3   OH243523   0.804   3.400  10.778  0.4018 -0.3392  0.9393
 6443TIP3    H143524   0.809   3.327  10.839 -0.4588 -0.9970  0.2493
 6443TIP3    H243525   0.838   3.364  10.696  2.1392  0.7068  1.1417
 6444TIP3   OH243526   0.316   4.615  10.901  0.2389  0.0439  0.2046
 6444TIP3    H143527   0.253   4.644  10.835  0.7470 -0.8911 -0.7408
 6444TIP3    H243528   0.344   4.695  10.945  1.3641  0.9915 -2.0736
 6445TIP3   OH243529   1.687   2.316   9.630  0.5158  0.3748 -0.3478
 6445TIP3    H143530   1.739   2.236   9.641  0.2901  0.5384  3.0129
 6445TIP3    H243531   1.745   2.386   9.661 -0.6157  0.9508  0.5531
 6446TIP3   OH243532   5.826   6.536  11.504 -0.5241  0.2865  0.0075
 6446TIP3    H143533   5.763   6.601  11.535 -0.7778  0.6015 -1.1405
 6446TIP3    H243534   5.883   6.585  11.444  1.2666  0.1883  1.4942
 6447TIP3   OH243535   3.299   2.655   9.883 -0.5143  0.0881 -0.5253
 6447TIP3    H143536   3.333   2.698   9.961 -1.9069  0.9216 -0.3340
 6447TIP3    H243537   3.347   2.572   9.878  0.6353  0.6735  0.3683
 6448TIP3   OH243538   2.902   6.207  10.636 -0.4147  0.3309  0.3556
 6448TIP3    H143539   2.863   6.290  10.660  1.6842  1.2713  0.7639
 6448TIP3    H243540   2.959   6.185  10.710  0.6419 -0.4038 -0.6384
 6449TIP3   OH243541   4.835   4.730   9.364 -0.1138 -0.7549 -0.3281
 6449TIP3    H143542   4.791   4.662   9.414  0.5581 -1.0704 -0.1567
 6449TIP3    H243543   4.926   4.726   9.393 -0.1230  0.4463 -0.0588
 6450TIP3   OH243544   5.334   0.955  12.479 -0.3198 -0.0906  0.4980
 6450TIP3    H143545   5.384   0.900  12.538 -0.0875  0.3557  0.7210
 6450TIP3    H243546   5.254   0.905  12.461  0.7456 -1.3714 -0.8722
 6451TIP3   OH243547   4.452   5.092  11.885  0.1431  0.2336  0.2284
 6451TIP3    H143548   4.369   5.064  11.847  0.6458 -0.0446 -0.6873
 6451TIP3    H243549   4.481   5.164  11.830  0.1051  0.8890  1.0511
 6452TIP3   OH243550   0.259   6.459  11.109  0.4747 -0.1135  0.7523
 6452TIP3    H143551   0.316   6.534  11.098  0.8264 -0.6927 -2.4235
 6452TIP3    H243552   0.316   6.389  11.139  1.3144 -0.3810 -1.2842
 6453TIP3   OH243553   5.638   0.688  12.342  0.1093 -0.0927 -0.6995
 6453TIP3    H143554   5.567   0.661  12.400 -0.5887  1.5481 -0.7444
 6453TIP3    H243555   5.715   0.694  12.399 -0.6146  1.7280  0.1710
 6454TIP3   OH243556   0.580   5.043  12.649  0.4148 -0.1337 -0.0018
 6454TIP3    H143557   0.544   5.131  12.639  0.0292  0.1903  3.2977
 6454TIP3    H243558   0.628   5.045  12.732 -0.5546 -3.2919  0.8000
 6455TIP3   OH243559   4.195   6.557  11.507  0.0728 -0.0201  0.0428
 6455TIP3    H143560   4.229   6.626  11.450 -0.1042 -0.9959 -1.2905
 6455TIP3    H243561   4.241   6.569  11.590  2.2632 -0.1025 -1.0874
 6456TIP3   OH243562   5.930   1.631  12.086 -0.1222 -0.2158 -0.1922
 6456TIP3    H143563   5.870   1.587  12.026 -0.7006 -2.4638  1.8237
 6456TIP3    H243564   5.878   1.645  12.166  1.1607  0.7145  0.5210
 6457TIP3   OH243565   4.437   5.948   9.429  0.1863  1.0299 -0.3933
 6457TIP3    H143566   4.511   5.926   9.372  0.9968  0.2646  0.9038
 6457TIP3    H243567   4.388   5.866   9.436  0.7884  0.7668  0.9805
 6458TIP3   OH243568   5.819   5.675  11.350 -0.0910 -0.8149  0.2586
 6458TIP3    H143569   5.900   5.700  11.306 -1.0316 -0.9782 -1.6770
 6458TIP3    H243570   5.750   5.695  11.286 -1.6527  0.0085  2.1207
 6459TIP3   OH243571   3.516   3.108  11.679 -0.1537  0.5191 -0.1170
 6459TIP3    H143572   3.609   3.093  11.698  0.1909  3.3488  1.0377
 6459TIP3    H243573   3.491   3.036  11.622  2.3677 -1.1360  0.6754
 6460TIP3   OH243574   2.207   5.609  10.771 -0.0237 -0.0507  0.0697
 6460TIP3    H143575   2.296   5.595  10.803  0.7000  1.6720 -1.0388
 6460TIP3    H243576   2.174   5.683  10.822 -0.0241  0.6521 -0.9057
 6461TIP3   OH243577   3.462   4.860  12.493  0.0914 -0.1194  0.6622
 6461TIP3    H143578   3.489   4.799  12.562  1.1701  0.5846  0.8892
 6461TIP3    H243579   3.380   4.823  12.460 -0.8056 -0.1653  2.7337
 6462TIP3   OH243580   4.888   2.566   9.346  0.1772  0.1224  0.2010
 6462TIP3    H143581   4.889   2.488   9.401 -0.6218  0.5480  0.8303
 6462TIP3    H243582   4.799   2.570   9.311  0.5713  0.0641 -0.8464
 6463TIP3   OH243583   2.958   0.350   9.454  0.0129  0.6719  0.4798
 6463TIP3    H143584   3.027   0.353   9.521 -1.0868  0.0822  1.6946
 6463TIP3    H243585   2.947   0.441   9.427  2.3300  0.6035 -0.9124
 6464TIP3   OH243586   0.559   1.547  10.541  0.0810 -0.1897  0.0470
 6464TIP3    H143587   0.574   1.559  10.448  1.2720 -1.1515  0.0848
 6464TIP3    H243588   0.632   1.491  10.570  0.5293  1.1971  1.8164
 6465TIP3   OH243589   5.601   3.985   9.683  0.8382  0.6671  0.2630
 6465TIP3    H143590   5.510   4.015   9.681  0.6649  0.1226 -1.4196
 6465TIP3    H243591   5.612   3.948   9.771 -0.7154  0.3230  0.3414
 6466TIP3   OH243592   4.151   0.642   9.669  0.0761 -0.3716  0.0728
 6466TIP3    H143593   4.092   0.661   9.742  1.6557  2.0258  0.8328
 6466TIP3    H243594   4.216   0.582   9.706 -1.1849 -2.2260 -0.5071
 6467TIP3   OH243595   6.431   6.024  10.805 -0.1539  0.2186 -0.1197
 6467TIP3    H143596   6.391   6.107  10.781  0.2513 -0.5348 -4.1870
 6467TIP3    H243597   6.525   6.042  10.803 -0.0838 -0.1145  0.0908
 6468TIP3   OH243598   4.251   2.801  10.865 -0.1048 -0.2565 -0.1427
 6468TIP3    H143599   4.181   2.864  10.884  0.2271 -0.0499  0.4376
 6468TIP3    H243600   4.236   2.729  10.926  0.3041 -0.1118  0.1390
 6469TIP3   OH243601   4.308   6.059  12.488  0.2470 -0.3821  0.2258
 6469TIP3    H143602   4.276   6.149  12.494  1.3875  0.0359  0.4167
 6469TIP3    H243603   4.399   6.068  12.460  0.0771 -1.5416 -0.7713
 6470TIP3   OH243604   5.001   1.329  10.180  0.5914 -0.0462  0.5728
 6470TIP3    H143605   4.938   1.333  10.108  0.3917 -0.0275  0.7456
 6470TIP3    H243606   5.019   1.421  10.201  0.9418 -0.0499  0.2979
 6471TIP3   OH243607   0.363   6.687  12.924  0.3886 -0.2975  0.0613
 6471TIP3    H143608   0.450   6.717  12.950  0.5391 -0.4074 -0.3083
 6471TIP3    H243609   0.314   6.680  13.006  1.0702 -1.3050  0.3963
 6472TIP3   OH243610   2.715   6.627   9.831  0.0956  0.2680 -0.0171
 6472TIP3    H143611   2.749   6.713   9.810  0.0890  0.6416  1.4053
 6472TIP3    H243612   2.684   6.592   9.748  0.8198  1.3080 -0.7420
 6473TIP3   OH243613   2.952   2.091  11.299 -0.0118  0.0538 -0.5764
 6473TIP3    H143614   2.922   2.142  11.224 -0.0237  0.7604 -0.1003
 6473TIP3    H243615   2.911   2.132  11.375  0.2717 -0.4389 -0.1433
 6474TIP3   OH243616   3.942   3.212  11.959 -0.8269  0.3000  0.0846
 6474TIP3    H143617   4.026   3.239  11.921 -0.8330 -0.3659 -0.4201
 6474TIP3    H243618   3.885   3.288  11.947 -0.6022  0.3742 -0.5424
 6475TIP3   OH243619   2.736   3.895  11.766 -0.4305  0.1194 -0.7920
 6475TIP3    H143620   2.698   3.973  11.806 -0.1543 -0.0730 -0.1256
 6475TIP3    H243621   2.668   3.828  11.775 -0.0790 -0.1349  0.0937
 6476TIP3   OH243622   4.538   6.285   9.328 -0.1341 -0.2673 -0.0005
 6476TIP3    H143623   4.598   6.330   9.388 -0.9764  0.1508  0.5471
 6476TIP3    H243624   4.508   6.353   9.268 -2.1084  0.1679  1.3824
 6477TIP3   OH243625   6.543   0.979   9.643  0.2749 -0.3191 -0.3371
 6477TIP3    H143626   6.606   0.959   9.713  0.9213 -2.5042 -1.4503
 6477TIP3    H243627   6.504   0.894   9.622 -1.9682  0.7585 -0.7371
 6478TIP3   OH243628   4.910   5.068  10.129  0.4410 -0.4237  0.5452
 6478TIP3    H143629   4.866   5.001  10.182  0.2549  0.0363  0.9781
 6478TIP3    H243630   4.937   5.021  10.049 -2.1485 -0.3879 -0.4408
 6479TIP3   OH243631   6.633   5.007   9.949  0.0155 -0.1383 -0.2950
 6479TIP3    H143632   6.675   4.958   9.878  0.4005  0.2698 -0.3462
 6479TIP3    H243633   6.571   4.944   9.987  1.5955 -1.1771  0.6455
 6480TIP3   OH243634   0.346   3.856   9.480  0.0095 -0.2909 -0.0053
 6480TIP3    H143635   0.301   3.897   9.406  0.0683 -0.2356 -0.0100
 6480TIP3    H243636   0.403   3.924   9.514 -0.5610 -0.0861  0.5534
 6481TIP3   OH243637   3.752   3.416  11.925  0.8718 -0.3802  0.3012
 6481TIP3    H143638   3.667   3.414  11.969  1.6463  0.4966  1.9604
 6481TIP3    H243639   3.734   3.456  11.840 -0.7103 -2.2219 -0.2960
 6482TIP3   OH243640   2.650   2.431  10.052 -0.1589  0.3549 -0.2015
 6482TIP3    H143641   2.738   2.401  10.075  0.2942  2.1387  0.5792
 6482TIP3    H243642   2.643   2.517  10.093 -1.8620  0.7376 -1.2065
 6483TIP3   OH243643   6.535   6.448   9.540  0.0540  0.2650 -0.0454
 6483TIP3    H143644   6.543   6.353   9.550  0.1928  0.1933 -0.7899
 6483TIP3    H243645   6.456   6.460   9.488  0.1415  0.5483 -0.1167
 6484TIP3   OH243646   3.526   4.401  10.069  0.6279 -0.0178 -0.1082
 6484TIP3    H143647   3.489   4.413  10.157  0.2872  0.3721 -0.3039
 6484TIP3    H243648   3.599   4.463  10.066  0.5959  0.0188 -0.1264
 6485TIP3   OH243649   6.296   0.220  13.538 -0.0581 -0.0194  0.1259
 6485TIP3    H143650   6.233   0.155  13.507 -0.2923 -0.6585  1.8475
 6485TIP3    H243651   6.265   0.303  13.501 -0.6020 -0.6567 -0.8872
 6486TIP3   OH243652   0.093   6.109  12.124 -0.3027 -0.2220  0.6502
 6486TIP3    H143653   0.170   6.062  12.092 -0.9048 -1.2007  0.5878
 6486TIP3    H243654   0.066   6.059  12.202 -0.9415  0.0369  0.5967
 6487TIP3   OH243655   5.527   0.945  10.298  0.0211  0.4309  0.4567
 6487TIP3    H143656   5.597   0.995  10.256  0.4041 -1.1263 -0.8672
 6487TIP3    H243657   5.565   0.858  10.313 -1.0992  0.0576  1.2623
 6488TIP3   OH243658   2.463   6.630  11.952 -0.0311  0.1304  0.0544
 6488TIP3    H143659   2.446   6.692  11.881 -0.3752 -2.3018 -2.1337
 6488TIP3    H243660   2.381   6.629  12.003 -0.3840  0.7170 -0.4921
 6489TIP3   OH243661   0.674   3.570  12.026  0.2007 -0.1592 -0.3119
 6489TIP3    H143662   0.729   3.631  12.076  0.4098  1.1078 -2.0125
 6489TIP3    H243663   0.737   3.520  11.973 -0.0347 -1.3252  0.4756
 6490TIP3   OH243664   0.810   4.133  12.405  0.6789  0.3611 -0.1256
 6490TIP3    H143665   0.726   4.123  12.360  0.8992  0.0799 -0.4787
 6490TIP3    H243666   0.793   4.103  12.494 -0.0368  1.9008  0.2898
 6491TIP3   OH243667   6.311   4.016  11.737  0.0893 -0.1105 -0.0504
 6491TIP3    H143668   6.347   4.043  11.821 -1.7494  2.0342  0.1060
 6491TIP3    H243669   6.293   4.097  11.690  0.8453 -1.2296 -2.4880
 6492TIP3   OH243670   3.949   1.087   9.399 -0.4970  0.0468 -0.2334
 6492TIP3    H143671   4.003   1.030   9.453 -1.1724  0.2723  0.7095
 6492TIP3    H243672   3.880   1.030   9.365 -1.0049  0.2245  0.4741
 6493TIP3   OH243673   1.891   6.670  10.414 -0.4842  0.1136  0.0699
 6493TIP3    H143674   1.820   6.733  10.398 -0.4495 -0.3320 -2.2275
 6493TIP3    H243675   1.971   6.719  10.396 -0.3203  0.0140  0.5152
 6494TIP3   OH243676   4.907   1.620   9.839  0.6334  0.3635  0.0537
 6494TIP3    H143677   4.997   1.597   9.818  0.1596 -1.3907 -0.1720
 6494TIP3    H243678   4.858   1.538   9.833 -0.5629  0.7893  2.5310
 6495TIP3   OH243679   4.830   2.605  12.122  0.4739  0.1676 -0.3257
 6495TIP3    H143680   4.835   2.558  12.039  2.0022  0.4532 -0.4252
 6495TIP3    H243681   4.882   2.553  12.183  0.4938  0.6635  0.0917
 6496TIP3   OH243682   1.628   0.806  11.610 -0.1302  0.1130  0.3525
 6496TIP3    H143683   1.587   0.757  11.682 -0.5522 -0.0222  0.0240
 6496TIP3    H243684   1.621   0.898  11.637  0.3271  0.0271  0.7953
 6497TIP3   OH243685   0.523   3.992  10.183 -0.1012  0.0313  0.1233
 6497TIP3    H143686   0.526   4.059  10.252 -0.1487 -0.3550  0.5098
 6497TIP3    H243687   0.483   3.916  10.226 -1.2906  0.1830 -0.6700
 6498TIP3   OH243688   1.720   3.239  11.474  0.5022 -0.3193  0.0490
 6498TIP3    H143689   1.682   3.317  11.434  2.3118  1.6801  1.9491
 6498TIP3    H243690   1.810   3.236  11.442  0.1214 -2.4434 -0.9954
 6499TIP3   OH243691   0.831   2.958  10.862 -0.6190 -0.1269 -0.1046
 6499TIP3    H143692   0.896   2.990  10.799 -0.4895 -1.9174 -0.9299
 6499TIP3    H243693   0.863   2.988  10.947  0.4362  0.3670 -0.6595
 6500TIP3   OH243694   6.276   5.256  11.945  0.1438 -0.6745 -0.1732
 6500TIP3    H143695   6.238   5.244  12.032  0.7405 -0.5991  0.0990
 6500TIP3    H243696   6.238   5.185  11.893 -1.2486  0.0633 -0.2053
 6501TIP3   OH243697   4.460   0.788  11.817 -0.5637 -0.6668 -0.0311
 6501TIP3    H143698   4.396   0.843  11.771  0.9587  0.6378 -0.7122
 6501TIP3    H243699   4.466   0.827  11.904  0.9068  0.6813 -0.6799
 6502TIP3   OH243700   6.147   0.967  11.497  0.1068 -0.5182  0.6420
 6502TIP3    H143701   6.155   0.900  11.429 -0.6915  1.8270 -1.9318
 6502TIP3    H243702   6.056   0.996  11.492  0.0356 -0.2218  2.7330
 6503TIP3   OH243703   3.191   4.233  12.719 -0.7410  0.2283 -0.1028
 6503TIP3    H143704   3.262   4.173  12.739 -1.9055 -0.7651  1.2334
 6503TIP3    H243705   3.130   4.181  12.666 -0.9792  0.7325 -0.3327
 6504TIP3   OH243706   6.321   6.228  10.129  0.1650  0.3953 -0.2623
 6504TIP3    H143707   6.239   6.186  10.156  0.4960  0.5480  1.0611
 6504TIP3    H243708   6.314   6.317  10.164  0.5749  0.6399 -0.7967
 6505TIP3   OH243709   1.915   6.587  12.215  0.2081  0.2618 -0.9575
 6505TIP3    H143710   1.820   6.597  12.224  0.0702 -2.0342  1.1502
 6505TIP3    H243711   1.931   6.599  12.121 -2.7581 -3.0938 -2.1203
 6506TIP3   OH243712   6.634   4.344  11.676 -0.4901  0.2349 -0.0387
 6506TIP3    H143713   6.695   4.270  11.677  0.4067  0.8574  3.1006
 6506TIP3    H243714   6.549   4.306  11.655  0.4271 -1.1783 -1.3650
 6507TIP3   OH243715   2.674   3.490  11.225  0.2854 -0.4542 -0.2165
 6507TIP3    H143716   2.652   3.398  11.210  0.0438 -0.2571 -1.1330
 6507TIP3    H243717   2.603   3.524  11.280  0.8228 -1.0203  0.8541
 6508TIP3   OH243718   3.550   2.795  11.849 -0.2004  0.6326 -0.5847
 6508TIP3    H143719   3.480   2.762  11.905  1.7425 -0.7169  1.1976
 6508TIP3    H243720   3.599   2.855  11.905  1.4952 -0.3688 -0.9080
 6509TIP3   OH243721   1.889   2.622   9.638 -0.1733  0.4392  0.8044
 6509TIP3    H143722   1.889   2.557   9.567 -0.6509  1.2029  0.0935
 6509TIP3    H243723   1.948   2.585   9.704 -0.2362 -0.5933  0.3017
 6510TIP3   OH243724   6.446   6.040  11.149  0.5894  0.2906  0.0136
 6510TIP3    H143725   6.512   6.056  11.082 -0.0452  0.5045 -0.5718
 6510TIP3    H243726   6.476   5.962  11.195  0.5157 -0.4572 -1.1715
 6511TIP3   OH243727   6.603   1.136  11.618  0.2418  0.1460  0.7939
 6511TIP3    H143728   6.513   1.107  11.605 -0.1515  0.7013  2.0447
 6511TIP3    H243729   6.607   1.223  11.578  0.1536  0.2033  0.9069
 6512TIP3   OH243730   5.393   5.231  12.762  0.3977  0.0200 -0.3061
 6512TIP3    H143731   5.299   5.213  12.757  0.2998 -0.0861  1.4800
 6512TIP3    H243732   5.421   5.194  12.846  1.9308  0.5528 -0.5391
 6513TIP3   OH243733   2.388   2.837  10.184 -0.1215  0.4659 -0.2594
 6513TIP3    H143734   2.335   2.890  10.126  0.0605  1.4734  0.4723
 6513TIP3    H243735   2.415   2.897  10.254 -0.4483 -0.7272  0.9434
 6514TIP3   OH243736   0.563   4.734  11.386  0.8780 -0.1729  0.3723
 6514TIP3    H143737   0.577   4.767  11.297  1.1186 -1.2908 -0.0269
 6514TIP3    H243738   0.499   4.663  11.374 -0.5317  0.8680  1.3511
 6515TIP3   OH243739   0.240   0.185  10.983  0.4325 -0.1140 -0.5232
 6515TIP3    H143740   0.297   0.213  10.912  1.4090 -1.4469 -0.3032
 6515TIP3    H243741   0.287   0.113  11.025 -0.8610 -0.4380  0.4474
 6516TIP3   OH243742   5.139   6.025  11.160  0.4097 -0.1890  0.7861
 6516TIP3    H143743   5.218   5.986  11.197  1.0714  0.5813  0.2288
 6516TIP3    H243744   5.130   6.108  11.207  0.0382 -0.1850  0.7077
 6517TIP3   OH243745   1.538   6.564  12.853  0.0911 -0.4372 -0.5616
 6517TIP3    H143746   1.513   6.635  12.794  1.0143  0.0051 -0.4314
 6517TIP3    H243747   1.463   6.555  12.912  0.2419  0.9076 -0.1277
 6518TIP3   OH243748   2.501   5.441  12.385  0.1953  0.0124 -0.4811
 6518TIP3    H143749   2.460   5.355  12.375 -0.1815  0.0770  0.4754
 6518TIP3    H243750   2.429   5.503  12.381  0.4846  0.3151 -1.3357
 6519TIP3   OH243751   3.174   1.395  11.616  0.1645  0.3748 -0.3543
 6519TIP3    H143752   3.156   1.488  11.629 -1.5181  0.0437 -0.0932
 6519TIP3    H243753   3.247   1.377  11.674  0.1230  1.4042  0.0451
 6520TIP3   OH243754   2.698   2.234  10.417  0.0005  0.0004  0.0863
 6520TIP3    H143755   2.684   2.167  10.484 -1.9826 -1.4508 -1.6439
 6520TIP3    H243756   2.630   2.300  10.435  0.2739  0.2372  0.2483
 6521TIP3   OH243757   6.159   4.205  11.267 -0.3989  0.0862 -0.5139
 6521TIP3    H143758   6.246   4.202  11.307 -0.3211  0.4150 -0.6513
 6521TIP3    H243759   6.166   4.152  11.188  0.0549  1.1981 -1.2335
 6522TIP3   OH243760   0.256   0.291  13.123 -0.1063  0.1209 -0.5732
 6522TIP3    H143761   0.272   0.201  13.153  1.5091  0.2577 -0.9231
 6522TIP3    H243762   0.221   0.336  13.200  1.2609 -0.2534  0.3233
 6523TIP3   OH243763   3.908   3.840  12.153 -0.1245  0.0153  0.0992
 6523TIP3    H143764   3.968   3.817  12.223  0.5798  1.8867  0.1673
 6523TIP3    H243765   3.954   3.814  12.073 -0.2607 -0.6939  0.2420
 6524TIP3   OH243766   5.123   2.443  11.719  0.0588 -0.1211 -0.1477
 6524TIP3    H143767   5.057   2.385  11.684 -1.4742  1.4625  0.0014
 6524TIP3    H243768   5.201   2.426  11.666 -0.8485 -1.0550 -1.2253
 6525TIP3   OH243769   4.878   2.110  11.395 -0.5244  0.1277 -0.0609
 6525TIP3    H143770   4.797   2.155  11.374 -0.4046  0.0213 -0.7673
 6525TIP3    H243771   4.855   2.017  11.394 -0.6224  0.1338  0.7546
 6526TIP3   OH243772   0.586   1.792  10.827  0.0763 -0.0921 -0.3885
 6526TIP3    H143773   0.676   1.759  10.817 -0.2047 -0.9877 -0.0775
 6526TIP3    H243774   0.539   1.755  10.752 -0.7001 -2.0844  1.0063
 6527TIP3   OH243775   1.769   6.670  11.679  0.3865  0.4878  0.3619
 6527TIP3    H143776   1.687   6.713  11.702 -0.1421 -0.4813  0.3636
 6527TIP3    H243777   1.805   6.642  11.762  0.4886  0.5132  0.3255
 6528TIP3   OH243778   5.330   6.319  11.801 -0.1701 -0.2885 -0.1516
 6528TIP3    H143779   5.236   6.314  11.786 -0.2637 -0.0917  0.3488
 6528TIP3    H243780   5.339   6.328  11.896  0.3631 -0.5670 -0.1699
 6529TIP3   OH243781   0.293   5.621  12.629  0.0393 -0.2011 -0.1031
 6529TIP3    H143782   0.226   5.605  12.695  1.1813 -0.6813  0.9833
 6529TIP3    H243783   0.343   5.695  12.664  0.0919  0.1420 -0.8920
 6530TIP3   OH243784   0.549   4.426  12.428 -0.7022  0.1744 -0.1881
 6530TIP3    H143785   0.489   4.498  12.449 -1.1801 -0.5242  0.9426
 6530TIP3    H243786   0.584   4.399  12.513  0.5138 -0.0492 -0.7416
 6531TIP3   OH243787   3.585   2.940   9.610 -0.1151  0.1889  0.0907
 6531TIP3    H143788   3.491   2.925   9.604 -0.1405  0.2037  0.4013
 6531TIP3    H243789   3.596   2.988   9.693  0.2473 -0.5167  0.4548
 6532TIP3   OH243790   4.593   2.932   9.716  0.1991  0.4428 -0.9450
 6532TIP3    H143791   4.672   2.881   9.698  0.3437  0.1007  0.5832
 6532TIP3    H243792   4.593   3.000   9.648  2.3099  1.0233 -0.4273
 6533TIP3   OH243793   6.405   0.924  10.991 -0.5027  0.8337 -0.2366
 6533TIP3    H143794   6.417   0.990  11.059  0.6397 -0.8733  1.2931
 6533TIP3    H243795   6.418   0.840  11.035  2.7431 -0.3415 -2.9432
 6534TIP3   OH243796   1.657   4.664   9.464  0.4002 -0.1392 -0.4784
 6534TIP3    H143797   1.708   4.594   9.503  0.2005  0.6899  1.3717
 6534TIP3    H243798   1.721   4.732   9.443  0.4079 -0.2698 -0.8874
 6535TIP3   OH243799   6.273   3.225  10.439  0.0119 -0.6489  0.0784
 6535TIP3    H143800   6.338   3.166  10.402  0.8347  0.2042  0.1416
 6535TIP3    H243801   6.231   3.265  10.363 -1.4423 -2.2025 -0.0125
 6536TIP3   OH243802   3.153   0.027  11.221 -0.4134 -0.1103 -0.0983
 6536TIP3    H143803   3.059   0.021  11.238 -0.1778 -0.5909  1.1244
 6536TIP3    H243804   3.176  -0.059  11.185 -0.9046  0.8903 -3.0669
 6537TIP3   OH243805   3.172   0.606  11.717  0.4116  0.3168 -0.3976
 6537TIP3    H143806   3.144   0.665  11.787  1.1247  0.9219 -0.6079
 6537TIP3    H243807   3.110   0.533  11.720  0.2567  0.4818  0.6659
 6538TIP3   OH243808   6.114   0.182  11.958 -0.2706  0.2950  0.2330
 6538TIP3    H143809   6.207   0.190  11.977 -0.3763  1.8970  0.1674
 6538TIP3    H243810   6.073   0.169  12.044 -0.2124  2.1895  0.5986
 6539TIP3   OH243811   0.726   3.203   9.515  0.1125 -0.4823  0.3291
 6539TIP3    H143812   0.639   3.165   9.532 -0.3177  0.8725  1.3543
 6539TIP3    H243813   0.711   3.266   9.445  0.3932 -0.6324  0.1304
 6540TIP3   OH243814   1.832   4.121  11.201 -0.7660  0.1969 -0.3535
 6540TIP3    H143815   1.833   4.115  11.105 -0.2433  1.3675 -0.4464
 6540TIP3    H243816   1.743   4.096  11.225 -0.7225 -0.7327 -1.0853
 6541TIP3   OH243817   6.657   3.954  13.031 -0.3547  0.3934 -0.0822
 6541TIP3    H143818   6.586   3.980  12.974 -0.7688 -1.7512 -0.6370
 6541TIP3    H243819   6.726   3.924  12.972 -0.6782 -1.5902  0.4880
 6542TIP3   OH243820   1.012   1.282   9.602  0.7297  0.4262 -0.3537
 6542TIP3    H143821   1.061   1.201   9.593 -0.9354 -0.7100  0.2266
 6542TIP3    H243822   1.078   1.349   9.618  2.0929 -0.9964  0.2134
 6543TIP3   OH243823   6.449   2.440  12.851  0.2391  0.4007 -0.2267
 6543TIP3    H143824   6.380   2.492  12.893  0.3597 -1.6202  2.8143
 6543TIP3    H243825   6.530   2.488  12.868  0.4045 -0.7632  2.8973
 6544TIP3   OH243826   0.104   0.376  11.877  0.2744 -0.7681  0.3231
 6544TIP3    H143827   0.020   0.378  11.830 -0.8214 -0.1121  2.1774
 6544TIP3    H243828   0.159   0.439  11.830 -1.2050  0.8503  0.6233
 6545TIP3   OH243829   4.306   4.658  12.737  0.1272 -0.2112  0.0339
 6545TIP3    H143830   4.398   4.672  12.717 -0.2246  1.6051 -0.4797
 6545TIP3    H243831   4.298   4.681  12.830  0.4234 -1.7630  0.4762
 6546TIP3   OH243832   4.653   5.242  10.407 -0.2483  0.2953  0.2186
 6546TIP3    H143833   4.579   5.287  10.365  0.2041 -0.2399 -1.2362
 6546TIP3    H243834   4.612   5.172  10.458 -0.7663  0.0972 -0.4494
 6547TIP3   OH243835   6.233   3.192  10.901  0.0737 -0.9653 -0.2903
 6547TIP3    H143836   6.229   3.151  10.988  0.8278 -1.1583 -0.3359
 6547TIP3    H243837   6.327   3.191  10.879 -0.0876 -0.7075 -1.0064
 6548TIP3   OH243838   3.009   1.848  12.022 -0.1708  0.1112 -0.1534
 6548TIP3    H143839   3.054   1.894  11.952  0.3189 -0.7021 -0.3894
 6548TIP3    H243840   2.950   1.787  11.977 -1.2046  0.8702  0.1511
 6549TIP3   OH243841   2.779   5.823  11.425  0.1660  0.1357  0.1933
 6549TIP3    H143842   2.711   5.804  11.490  0.4929  0.2560  0.5764
 6549TIP3    H243843   2.802   5.737  11.390 -0.2518  0.1032 -0.0110
 6550TIP3   OH243844   1.838   6.642  11.207  0.6763 -0.2163 -0.2849
 6550TIP3    H143845   1.901   6.592  11.156  3.3702 -0.1049  2.6561
 6550TIP3    H243846   1.818   6.718  11.153  0.8846 -1.6132 -2.4480
 6551TIP3   OH243847   5.839   5.505   9.312  0.1433  0.2505  0.4478
 6551TIP3    H143848   5.882   5.541   9.390  0.1040  0.1351  0.5224
 6551TIP3    H243849   5.812   5.582   9.263 -0.9543  0.3344  1.1567
 6552TIP3   OH243850   2.690   3.448   9.722  0.0786 -0.6822  0.1072
 6552TIP3    H143851   2.732   3.513   9.778  1.7982 -0.6026 -1.2032
 6552TIP3    H243852   2.609   3.491   9.694  2.2832  2.1515 -2.7614
 6553TIP3   OH243853   2.500   4.188  10.945 -0.0037  0.2284 -0.0323
 6553TIP3    H143854   2.467   4.208  10.857  0.6696  2.3970  0.1396
 6553TIP3    H243855   2.595   4.195  10.937  0.0691  0.3143  0.8226
 6554TIP3   OH243856   5.726   6.180  12.100 -0.0126 -0.0288 -0.3581
 6554TIP3    H143857   5.744   6.126  12.023 -0.8964  0.5959 -1.0089
 6554TIP3    H243858   5.801   6.239  12.106  0.6795 -0.9057  0.0236
 6555TIP3   OH243859   6.278   5.103  11.254 -0.4158  0.2942 -0.2664
 6555TIP3    H143860   6.222   5.080  11.180  1.2435  0.1090 -1.5224
 6555TIP3    H243861   6.300   5.195  11.240  0.5430  0.0484 -0.4807
 6556TIP3   OH243862   3.040   2.823  10.421 -0.0847  0.4675  0.0129
 6556TIP3    H143863   3.091   2.871  10.487 -2.1211  1.0923  1.2060
 6556TIP3    H243864   3.004   2.891  10.364 -1.2781  0.2278  0.4544
 6557TIP3   OH243865   4.116   2.806  10.378  0.1064  0.1338  0.0278
 6557TIP3    H143866   4.039   2.754  10.399  0.2479 -0.0651  0.0626
 6557TIP3    H243867   4.097   2.845  10.293 -0.6707  1.3160  0.7094
 6558TIP3   OH243868   4.429   4.359  11.975 -0.5517  0.2178 -0.2036
 6558TIP3    H143869   4.453   4.430  12.034  1.6490 -0.4335 -0.2294
 6558TIP3    H243870   4.411   4.402  11.892 -3.6657  1.1459  0.7877
 6559TIP3   OH243871   3.657   3.557  10.775  0.0207  0.1732  0.5129
 6559TIP3    H143872   3.695   3.482  10.730 -0.2121  0.2044  0.2687
 6559TIP3    H243873   3.600   3.599  10.711 -1.2836 -0.4896  1.1997
 6560TIP3   OH243874   1.967   2.299  10.307 -0.3894 -0.1238  0.1385
 6560TIP3    H143875   1.898   2.234  10.315 -1.6707  1.0770 -0.7314
 6560TIP3    H243876   1.943   2.368  10.368  0.9070 -0.3928  0.9869
 6561TIP3   OH243877   0.097   5.102  11.144  0.5703  0.1240  0.7418
 6561TIP3    H143878   0.032   5.126  11.209  0.7720  0.2224  0.9095
 6561TIP3    H243879   0.106   5.007  11.152  2.7774  0.4057  2.9698
 6562TIP3   OH243880   0.995   2.568  10.560  0.1265 -0.0686 -0.0986
 6562TIP3    H143881   0.920   2.627  10.569  1.1131  1.1688  0.4526
 6562TIP3    H243882   1.026   2.555  10.650  1.4437  0.6641 -0.4199
 6563TIP3   OH243883   3.779   4.911  11.525 -0.2643  0.0596 -0.2303
 6563TIP3    H143884   3.812   4.918  11.435 -1.2669 -0.3928 -0.6392
 6563TIP3    H243885   3.800   4.822  11.552 -1.3007 -0.2853 -0.5543
 6564TIP3   OH243886   3.806   1.478   9.967  0.1060 -0.1104 -0.1398
 6564TIP3    H143887   3.764   1.551   9.921 -0.5061  0.2655  0.9710
 6564TIP3    H243888   3.898   1.501   9.970 -0.0297  0.4412 -0.1226
 6565TIP3   OH243889   0.831   5.294   9.587  0.1234 -0.2437 -0.0103
 6565TIP3    H143890   0.749   5.246   9.585  0.9150 -1.7057  0.7355
 6565TIP3    H243891   0.818   5.367   9.527 -1.8712 -0.1528  0.4919
 6566TIP3   OH243892   2.959   1.707   9.871  0.4444  0.5546 -0.4040
 6566TIP3    H143893   3.004   1.689   9.953  2.1209  0.8789 -1.2157
 6566TIP3    H243894   3.028   1.707   9.805 -0.3338  3.4111 -1.3783
 6567TIP3   OH243895   3.963   1.849   9.979 -0.2716 -0.7028  0.5973
 6567TIP3    H143896   3.898   1.800   9.929 -1.3196 -0.1827  1.4146
 6567TIP3    H243897   3.950   1.940   9.953  0.3650 -0.6228  0.5288
 6568TIP3   OH243898   5.753   2.029  10.721  0.0776  0.0367  0.3693
 6568TIP3    H143899   5.712   1.962  10.776 -1.1502  0.2367 -0.2621
 6568TIP3    H243900   5.784   1.981  10.644 -2.7852  0.3744 -1.1698
 6569TIP3   OH243901   1.508   1.971  10.730  0.2501  0.1929 -0.0819
 6569TIP3    H143902   1.590   1.997  10.771 -1.0376  0.7728  2.3234
 6569TIP3    H243903   1.482   2.049  10.679  0.0002  0.9639  1.1776
 6570TIP3   OH243904   4.626   3.045  11.294 -0.1940  0.2586 -0.0725
 6570TIP3    H143905   4.556   2.985  11.321 -0.0777  0.6225  1.0852
 6570TIP3    H243906   4.705   2.991  11.292 -0.1348  0.2987  0.7242
 6571TIP3   OH243907   5.070   2.435  11.409 -0.5262 -0.0151  0.1903
 6571TIP3    H143908   5.085   2.345  11.382  0.3750  0.4532 -0.9800
 6571TIP3    H243909   5.048   2.481  11.328  3.7921  1.7779 -0.2283
 6572TIP3   OH243910   5.777   3.246  11.510 -0.0119 -0.1679  0.3819
 6572TIP3    H143911   5.775   3.335  11.545 -1.6462  0.3315 -0.9111
 6572TIP3    H243912   5.858   3.209  11.547  2.4523  2.8297 -1.4847
 6573TIP3   OH243913   0.576   1.672  10.285  0.2376 -0.0642  0.2852
 6573TIP3    H143914   0.522   1.683  10.207 -0.5281 -0.6651  0.7250
 6573TIP3    H243915   0.601   1.761  10.310 -1.9953  0.3783  1.0954
 6574TIP3   OH243916   3.297   3.665  10.397 -0.7838 -0.2117  0.1366
 6574TIP3    H143917   3.350   3.598  10.442 -0.7810  0.6273  1.4294
 6574TIP3    H243918   3.212   3.623  10.385 -0.9562 -0.2816  1.4486
 6575TIP3   OH243919   1.349   1.734  10.727 -0.7858  0.6221  0.4370
 6575TIP3    H143920   1.383   1.731  10.638 -2.5001 -0.7023 -0.2441
 6575TIP3    H243921   1.392   1.810  10.767  0.0075  1.2659 -1.5026
 6576TIP3   OH243922   4.822   0.146   9.716  0.0306 -0.1942 -0.1766
 6576TIP3    H143923   4.807   0.229   9.762  0.7973 -0.0966 -0.0907
 6576TIP3    H243924   4.867   0.172   9.635  0.6916 -0.5640  0.0661
 6577TIP3   OH243925   3.163   1.670  10.463 -0.4162 -0.4395  0.2582
 6577TIP3    H143926   3.236   1.627  10.507 -0.5660  0.2558  1.2352
 6577TIP3    H243927   3.188   1.762  10.459 -0.5070 -0.4557 -0.9436
 6578TIP3   OH243928   5.170   4.906  12.337 -0.0277 -0.0705  0.0504
 6578TIP3    H143929   5.179   4.989  12.382 -1.0460  0.2027 -0.2117
 6578TIP3    H243930   5.115   4.926  12.261  0.6853 -0.7507 -0.6679
 6579TIP3   OH243931   3.235   1.474  11.180  0.0131  0.3695  0.6409
 6579TIP3    H143932   3.195   1.435  11.103 -0.4333  0.7317  0.6858
 6579TIP3    H243933   3.323   1.501  11.151  0.2878 -0.5594  0.5835
 6580TIP3   OH243934   3.490   0.756  11.436  0.1747 -0.2025 -0.1509
 6580TIP3    H143935   3.413   0.716  11.476  1.0107 -1.3590  0.3432
 6580TIP3    H243936   3.508   0.833  11.491 -0.3382 -0.1891  0.0037
 6581TIP3   OH243937   5.275   5.250   9.664 -0.0730  0.3066  0.0613
 6581TIP3    H143938   5.236   5.287   9.585  0.0872  0.8983  0.2495
 6581TIP3    H243939   5.256   5.314   9.732  0.8522  0.4067  0.2463
 6582TIP3   OH243940   3.460   5.753   9.837 -0.0262  0.2552 -0.0894
 6582TIP3    H143941   3.405   5.773   9.913  0.8140 -0.5669  0.7649
 6582TIP3    H243942   3.487   5.662   9.851  0.5337  0.2447 -1.1380
 6583TIP3   OH243943   1.207   2.463  10.962 -0.0222  0.2094 -0.1417
 6583TIP3    H143944   1.173   2.432  10.878  1.7018 -0.0382 -0.7874
 6583TIP3    H243945   1.302   2.465  10.950  0.1271  2.8261  0.8845
 6584TIP3   OH243946   4.158   0.932  12.066  0.1099 -0.2567  0.1264
 6584TIP3    H143947   4.198   0.958  12.149 -1.4409  2.7842  0.0735
 6584TIP3    H243948   4.081   0.882  12.091  1.2450 -1.9789  0.3519
 6585TIP3   OH243949   4.156   5.172  12.822  0.6142 -0.1846 -0.0877
 6585TIP3    H143950   4.157   5.243  12.886  0.2935  0.5894 -0.9250
 6585TIP3    H243951   4.171   5.093  12.874 -1.5494  0.1908  1.2362
 6586TIP3   OH243952   6.295   6.291  10.648  0.4314  0.5986  0.0653
 6586TIP3    H143953   6.386   6.302  10.675  0.3279  2.4934 -0.2042
 6586TIP3    H243954   6.249   6.362  10.692 -0.9300 -0.2807  0.1247
 6587TIP3   OH243955   4.162   6.675  12.633  0.2955  0.2194  0.2202
 6587TIP3    H143956   4.217   6.697  12.558  0.7654  0.1692  0.5460
 6587TIP3    H243957   4.194   6.732  12.704 -0.3705  0.5131  0.2906
 6588TIP3   OH243958   0.379   5.322  12.431 -0.2882  0.1799  0.6675
 6588TIP3    H143959   0.423   5.345  12.513  0.3243  0.8807  0.1558
 6588TIP3    H243960   0.386   5.400  12.376 -0.1173 -0.4845 -0.2940
 6589TIP3   OH243961   1.174   2.732   9.595 -0.2075  0.0390 -0.0760
 6589TIP3    H143962   1.124   2.710   9.517 -1.5919  0.4955  0.6455
 6589TIP3    H243963   1.257   2.684   9.585 -1.8598 -3.0727 -0.0025
 6590TIP3   OH243964   5.326   6.164   9.265 -0.0116 -0.0155 -0.4733
 6590TIP3    H143965   5.317   6.151   9.360  1.8749 -0.8990 -0.3683
 6590TIP3    H243966   5.268   6.098   9.226 -0.0170 -0.3438  0.0788
 6591TIP3   OH243967   4.081   3.624  11.164  0.1427  0.2058  0.3744
 6591TIP3    H143968   4.164   3.598  11.204  0.2943  0.0760 -0.0214
 6591TIP3    H243969   4.087   3.593  11.074 -0.1955  0.4986  0.2490
 6592TIP3   OH243970   3.376   5.927  10.226  0.2428  0.1828  0.1218
 6592TIP3    H143971   3.370   5.844  10.179  0.5552 -0.4340  1.1177
 6592TIP3    H243972   3.350   5.993  10.163 -1.9876 -0.8548 -0.1319
 6593TIP3   OH243973   5.731   4.974   9.906 -0.3344 -0.8562 -0.3636
 6593TIP3    H143974   5.648   4.977   9.858 -0.3202  0.7614 -0.3449
 6593TIP3    H243975   5.716   5.026   9.985  1.5034  2.2044 -1.8118
 6594TIP3   OH243976   2.514   1.505   9.947  0.7866  0.0928  0.0104
 6594TIP3    H143977   2.443   1.533   9.888  2.3176 -0.6173 -2.2757
 6594TIP3    H243978   2.554   1.587   9.977 -0.4652  0.4790  0.7113
 6595TIP3   OH243979   2.721   1.461  12.066  0.0466  0.1279 -0.4824
 6595TIP3    H143980   2.747   1.369  12.072  0.3594  0.1035 -1.7639
 6595TIP3    H243981   2.785   1.508  12.119 -0.7097 -0.4767  0.9990
 6596TIP3   OH243982   4.442   1.856  12.034  0.3029  0.1933 -0.3247
 6596TIP3    H143983   4.412   1.881  12.121  0.8480  1.5589 -0.5159
 6596TIP3    H243984   4.378   1.894  11.974  0.9735  0.9035 -0.6037
 6597TIP3   OH243985   4.335   0.898   9.416 -0.8548 -0.4904  0.0310
 6597TIP3    H143986   4.375   0.855   9.492 -0.8654 -2.2453 -0.8938
 6597TIP3    H243987   4.359   0.841   9.342 -1.5259  0.7306 -1.1604
 6598TIP3   OH243988   5.220   5.165  12.412  0.4300  0.0426 -0.1076
 6598TIP3    H143989   5.255   5.210  12.336 -1.4956 -0.1529 -1.1948
 6598TIP3    H243990   5.244   5.220  12.487  0.0134  1.7299 -1.1661
 6599TIP3   OH243991   4.625   0.570  10.908  0.7075  0.4233 -0.5181
 6599TIP3    H143992   4.610   0.504  10.976 -0.8092 -0.2269 -1.4327
 6599TIP3    H243993   4.700   0.537  10.859  1.7346  0.8327  0.7314
 6600TIP3   OH243994   4.573   2.261  11.652 -0.5216  0.0483 -0.1061
 6600TIP3    H143995   4.669   2.253  11.650 -0.5356 -0.7591  0.9725
 6600TIP3    H243996   4.556   2.355  11.652  0.2641  0.1967 -0.4982
 6601TIP3   OH243997   2.697   2.132   9.853  0.2382  0.0042  0.0595
 6601TIP3    H143998   2.726   2.063   9.912  0.2181 -0.2672 -0.2395
 6601TIP3    H243999   2.720   2.213   9.897 -0.8310 -0.1689  0.9817
 6602TIP3   OH244000   1.800   3.976  11.892  0.2589 -0.3305  0.6645
 6602TIP3    H144001   1.817   4.052  11.947 -1.4378  0.3687  0.2937
 6602TIP3    H244002   1.805   4.010  11.802 -3.3270  0.1519  0.4860
 6603TIP3   OH244003   1.197   4.751  12.386 -0.3612  0.7649  0.3703
 6603TIP3    H144004   1.222   4.842  12.404 -2.0536  1.1973  0.6584
 6603TIP3    H244005   1.169   4.716  12.470 -1.5294  0.5758 -0.0848
 6604TIP3   OH244006   4.622   1.167   9.854 -0.0696  0.3616 -0.4581
 6604TIP3    H144007   4.539   1.214   9.844  0.0547  0.5650 -0.5477
 6604TIP3    H244008   4.600   1.075   9.841 -0.3705  0.3601  0.0392
 6605TIP3   OH244009   6.150   5.842   9.802  0.1216  0.7450 -0.6088
 6605TIP3    H144010   6.217   5.848   9.734 -1.9728 -0.4427 -2.9299
 6605TIP3    H244011   6.067   5.856   9.757 -1.4635 -1.0550  1.4935
 6606TIP3   OH244012   0.193   3.520  11.888 -0.2373  0.3831 -0.0203
 6606TIP3    H144013   0.257   3.579  11.928 -0.3033 -0.4740  1.4247
 6606TIP3    H244014   0.214   3.434  11.924 -1.1929 -0.1846 -0.7746
 6607TIP3   OH244015   1.718   3.592  11.088  0.7661 -0.2401 -0.0425
 6607TIP3    H144016   1.737   3.685  11.093 -2.4992  0.5485 -0.2328
 6607TIP3    H244017   1.753   3.565  11.003  0.1081  1.2987 -0.8481
 6608TIP3   OH244018   3.635   5.834  13.251  0.2741 -0.0637  0.1272
 6608TIP3    H144019   3.616   5.801  13.163  1.1779 -0.0765 -0.0715
 6608TIP3    H244020   3.553   5.875  13.279 -1.2965 -3.4145  0.8761
 6609TIP3   OH244021   3.095   5.508   9.366 -0.3046  0.2518  0.3897
 6609TIP3    H144022   3.014   5.533   9.410 -1.9255 -1.8684 -1.2122
 6609TIP3    H244023   3.147   5.588   9.365 -2.9017  2.0641  0.3492
 6610TIP3   OH244024   1.176   4.995  19.198  0.2116  0.1044 -0.2001
 6610TIP3    H144025   1.258   4.955  19.169  0.1550  0.8554 -1.4977
 6610TIP3    H244026   1.150   4.943  19.274  0.4142 -1.9891 -1.4704
 6611TIP3   OH244027   4.908   0.766  12.326 -0.3015  0.7599 -0.5315
 6611TIP3    H144028   4.824   0.736  12.361  0.6338  1.1967  2.3440
 6611TIP3    H244029   4.898   0.861  12.317  0.6297  1.2160  2.3922
 6612TIP3   OH244030   1.841   0.871  12.098 -0.5593  0.3335  0.0338
 6612TIP3    H144031   1.936   0.854  12.101 -0.2694  1.1314 -2.4598
 6612TIP3    H244032   1.829   0.948  12.154  0.3109  0.4333  0.1003
 6613TIP3   OH244033   3.741   0.457  12.486  0.0101  0.2464  0.3499
 6613TIP3    H144034   3.719   0.548  12.506  0.2925  0.7020 -1.2855
 6613TIP3    H244035   3.812   0.436  12.547  0.6748  1.4790  0.0424
 6614TIP3   OH244036   6.401   4.221   9.213 -0.3107 -0.1494  0.4501
 6614TIP3    H144037   6.394   4.315   9.230 -0.6504  0.3656 -2.0790
 6614TIP3    H244038   6.479   4.213   9.157 -0.3396 -1.3646  0.5537
 6615TIP3   OH244039   2.631   3.217  11.237  0.2638 -0.1421 -0.2432
 6615TIP3    H144040   2.582   3.202  11.157  1.6073 -0.4029 -1.0565
 6615TIP3    H244041   2.616   3.139  11.290 -1.6909  0.5973  0.3690
 6616TIP3   OH244042   6.203   3.873  11.354  0.0770 -0.0940  1.5275
 6616TIP3    H144043   6.252   3.825  11.287 -2.0858 -0.1989 -0.1132
 6616TIP3    H244044   6.197   3.962  11.320 -0.7347 -0.0625  1.7301
 6617TIP3   OH244045   5.916   2.342  11.870 -0.1810  0.2385 -0.2672
 6617TIP3    H144046   5.842   2.394  11.901  0.8845  1.5167  0.1992
 6617TIP3    H244047   5.956   2.395  11.802  0.1894 -0.5411 -0.6685
 6618TIP3   OH244048   5.313   5.768  11.099 -0.0286 -0.6073  0.2416
 6618TIP3    H144049   5.306   5.770  11.004  0.6518 -1.6997  0.1600
 6618TIP3    H244050   5.384   5.829  11.119 -0.1557 -0.3966  0.0591
 6619TIP3   OH244051   5.130   5.215   9.198  0.4820  0.2541  0.0474
 6619TIP3    H144052   5.086   5.131   9.212 -0.2833  0.5471 -0.5487
 6619TIP3    H244053   5.092   5.273   9.264 -0.8220  0.7868 -1.1291
 6620TIP3   OH244054   1.714   3.703  12.264  0.1839 -0.3482 -0.4982
 6620TIP3    H144055   1.802   3.667  12.250 -0.1783 -1.2460 -0.5629
 6620TIP3    H244056   1.697   3.688  12.356 -0.0790 -0.5915 -0.5863
 6621TIP3   OH244057   5.211   0.058  11.620  0.1839  0.5107  0.0841
 6621TIP3    H144058   5.210   0.152  11.637 -1.6230  1.1042 -2.7041
 6621TIP3    H244059   5.157   0.021  11.690  2.2600  1.2204  2.2009
 6622TIP3   OH244060   2.914   6.207   9.535 -0.2772 -0.1039 -0.3101
 6622TIP3    H144061   2.949   6.296   9.526  0.0996 -0.3079 -0.8965
 6622TIP3    H244062   2.876   6.187   9.450  1.0628 -1.1025 -0.7038
 6623TIP3   OH244063   0.651   6.568  11.516  0.2413 -0.7097  0.2160
 6623TIP3    H144064   0.557   6.565  11.499 -0.0697  1.1015  1.4114
 6623TIP3    H244065   0.661   6.628  11.589  2.4125 -0.2792 -0.3598
 6624TIP3   OH244066   5.162   3.048  10.378  0.3103 -0.2591  0.0090
 6624TIP3    H144067   5.163   3.056  10.282  1.7667 -1.7052 -0.1320
 6624TIP3    H244068   5.114   2.967  10.394 -0.4211  0.2682  0.5623
 6625TIP3   OH244069   4.489   4.482  10.488  0.3331 -0.1638  0.0305
 6625TIP3    H144070   4.565   4.475  10.546  1.3808 -0.4104 -1.3014
 6625TIP3    H244071   4.414   4.491  10.547  1.3566 -0.2101  1.3980
 6626TIP3   OH244072   1.288   2.817  10.475  0.0190  0.1471  0.9676
 6626TIP3    H144073   1.227   2.755  10.435 -1.8311  1.9543  0.8198
 6626TIP3    H244074   1.253   2.830  10.563  0.8374  0.4265  1.2622
 6627TIP3   OH244075   4.177   2.057   9.811  0.4388  0.0377  0.7313
 6627TIP3    H144076   4.102   2.085   9.864  1.0375 -1.4504  2.4530
 6627TIP3    H244077   4.239   2.130   9.817 -1.1742  1.7550 -1.5673
 6628TIP3   OH244078   3.261   4.297  11.384  0.4573  0.5713 -0.4521
 6628TIP3    H144079   3.286   4.287  11.292 -0.1887  0.0477 -0.5739
 6628TIP3    H244080   3.239   4.209  11.413 -0.6637  0.9305 -0.1740
 6629TIP3   OH244081   5.314   0.040  10.752 -0.5397  0.4150  1.2576
 6629TIP3    H144082   5.366   0.042  10.671  0.5611 -1.6128  1.8406
 6629TIP3    H244083   5.260  -0.038  10.744 -3.1145  2.1045  0.9921
 6630TIP3   OH244084   3.698   5.001   9.717 -0.1183 -0.0447  0.0303
 6630TIP3    H144085   3.781   4.972   9.681  0.6306  1.2666  0.6189
 6630TIP3    H244086   3.690   4.956   9.801 -0.1904 -0.4450 -0.1886
 6631TIP3   OH244087   4.539   4.603  10.127 -0.5023 -0.2546 -0.3235
 6631TIP3    H144088   4.609   4.576  10.186 -1.3379 -2.2306 -0.1480
 6631TIP3    H244089   4.573   4.586  10.039 -0.6628 -0.9949 -0.2472
 6632TIP3   OH244090   4.268   0.776  12.815 -0.2123 -0.3443  0.4820
 6632TIP3    H144091   4.272   0.684  12.791 -0.2869 -0.3360  0.4388
 6632TIP3    H244092   4.217   0.778  12.896  0.2582 -0.4009  0.7861
 6633TIP3   OH244093   3.646   3.670  10.516  0.0461  0.4707 -0.1917
 6633TIP3    H144094   3.631   3.765  10.507 -1.4334  0.1757 -1.2286
 6633TIP3    H244095   3.734   3.657  10.481 -0.1893  1.3306 -1.1739
 6634TIP3   OH244096   2.605   0.789  11.464  0.1289 -0.4819  0.0130
 6634TIP3    H144097   2.591   0.763  11.555 -0.2762 -0.1372  0.0511
 6634TIP3    H244098   2.546   0.863  11.450 -0.1977 -0.8649 -0.6862
 6635TIP3   OH244099   6.194   4.613  11.122  0.3711  0.0597  0.5055
 6635TIP3    H144100   6.131   4.609  11.194 -0.3704  0.1256 -0.1308
 6635TIP3    H244101   6.236   4.527  11.123 -1.6125 -1.0173 -0.7035
 6636TIP3   OH244102   6.400   6.610  10.201  0.4682  0.4220  0.2083
 6636TIP3    H144103   6.439   6.653  10.277  0.9884 -1.2101  0.9042
 6636TIP3    H244104   6.313   6.584  10.230  1.1928 -1.5462  0.8384
 6637TIP3   OH244105   0.029   5.222  10.883  0.2536  0.1848  0.3539
 6637TIP3    H144106  -0.056   5.179  10.879  0.2387  0.2891 -0.5996
 6637TIP3    H244107   0.080   5.171  10.946 -0.1121 -0.6024  0.0137
 6638TIP3   OH244108   2.099   2.560  11.721 -0.2527  0.1223  0.1527
 6638TIP3    H144109   2.023   2.601  11.761 -0.3980  2.9135 -2.6096
 6638TIP3    H244110   2.143   2.515  11.793 -2.3543  1.7289  2.6072
 6639TIP3   OH244111   5.112   0.853   9.845  0.0331 -0.4287 -0.3654
 6639TIP3    H144112   5.187   0.843   9.904  0.6950 -2.4741 -1.4203
 6639TIP3    H244113   5.086   0.763   9.824 -3.3861  0.1661  0.6996
 6640TIP3   OH244114   4.389   4.220   9.687 -0.0335 -0.2486  0.7575
 6640TIP3    H144115   4.330   4.150   9.661 -1.9048  0.6448  2.2957
 6640TIP3    H244116   4.367   4.236   9.779  3.0373 -0.2375  1.6011
 6641TIP3   OH244117   2.702   1.331  12.344  0.1582 -0.1854 -0.1954
 6641TIP3    H144118   2.607   1.338  12.348  0.0980 -0.8475 -0.2624
 6641TIP3    H244119   2.726   1.279  12.421  0.4753  0.0721 -0.1169
 6642TIP3   OH244120   0.360   1.980   9.726 -0.3872  0.3609  0.2042
 6642TIP3    H144121   0.432   1.980   9.790  0.6344  0.1988 -0.9193
 6642TIP3    H244122   0.385   2.047   9.663  0.3015 -1.6988 -1.8310
 6643TIP3   OH244123   6.667   0.637  12.505 -0.3093  0.5865  0.1931
 6643TIP3    H144124   6.744   0.585  12.528  0.7377  1.7175 -0.6097
 6643TIP3    H244125   6.671   0.712  12.565 -0.6726  0.7613 -0.0039
 6644TIP3   OH244126   3.953   2.347  12.367  0.1429 -0.3062 -0.4647
 6644TIP3    H144127   4.036   2.364  12.410 -0.4458  0.6370  0.3393
 6644TIP3    H244128   3.911   2.281  12.421 -0.7875  1.1959  0.7356
 6645TIP3   OH244129   3.709   3.008  12.441 -1.0310 -0.0001  0.0941
 6645TIP3    H144130   3.779   3.071  12.456 -0.3602 -0.5360 -0.7295
 6645TIP3    H244131   3.753   2.929  12.410 -1.9961 -0.3594 -0.4065
 6646TIP3   OH244132   3.893   0.133  11.038 -0.0345 -0.2643 -0.2795
 6646TIP3    H144133   3.928   0.206  11.089 -0.0481  0.4441 -1.2535
 6646TIP3    H244134   3.925   0.055  11.083  0.9132  0.3451  0.1397
 6647TIP3   OH244135   2.988   2.557  10.351  0.1304  0.0101  0.4286
 6647TIP3    H144136   2.896   2.556  10.377 -0.4193 -0.4774 -1.3927
 6647TIP3    H244137   3.012   2.650  10.351  0.0204  0.0583  2.1022
 6648TIP3   OH244138   5.108   5.045  10.607  0.1951  0.0225  0.2741
 6648TIP3    H144139   5.192   5.000  10.605  0.4964  0.6049 -0.7297
 6648TIP3    H244140   5.044   4.977  10.588  0.6026 -0.0885 -0.7381
 6649TIP3   OH244141   6.079   4.707  12.003  0.2310  0.5885 -0.0356
 6649TIP3    H144142   6.092   4.726  11.910 -0.1586  1.5359  0.0988
 6649TIP3    H244143   5.985   4.689  12.011  0.2146  0.7872  0.2236
 6650TIP3   OH244144   0.073   3.963   9.305 -0.3538 -0.3166 -0.1543
 6650TIP3    H144145   0.074   3.982   9.399  0.9049 -1.7769  0.1726
 6650TIP3    H244146   0.086   4.049   9.264  2.3720  0.0118  1.1432
 6651TIP3   OH244147   1.738   6.521  10.894 -0.1991  0.0560  0.2442
 6651TIP3    H144148   1.823   6.480  10.906 -0.4350 -0.4158  0.3361
 6651TIP3    H244149   1.690   6.503  10.975 -0.7131 -0.5004 -0.1667
 6652TIP3   OH244150   2.091   4.076   9.826  0.1863 -0.1143  0.8933
 6652TIP3    H144151   2.010   4.104   9.870 -0.6121 -0.1439 -0.4789
 6652TIP3    H244152   2.133   4.157   9.799 -0.1345 -0.1261  0.3425
 6653TIP3   OH244153   0.734   6.472  12.575  0.0422  0.0992 -0.5824
 6653TIP3    H144154   0.815   6.503  12.535 -0.2760  0.4330 -0.9701
 6653TIP3    H244155   0.665   6.499  12.515 -0.4521  0.7007  0.2409
 6654TIP3   OH244156   4.220   2.107  11.908  0.4875  0.4792 -0.1220
 6654TIP3    H144157   4.223   2.194  11.868  0.4819  1.0360  1.0209
 6654TIP3    H244158   4.127   2.087  11.916  0.4786  0.5665  0.0042
 6655TIP3   OH244159   2.638   4.624  11.541 -0.3188 -0.4826 -0.2856
 6655TIP3    H144160   2.602   4.539  11.515  0.5181 -0.4717 -1.6183
 6655TIP3    H244161   2.730   4.606  11.560  0.1107  0.2541 -1.5225
 6656TIP3   OH244162   6.393   2.772  11.658 -0.1519 -0.1000  0.3480
 6656TIP3    H144163   6.328   2.764  11.727  2.1332  2.0746  2.9792
 6656TIP3    H244164   6.358   2.839  11.599 -0.8650  0.0793  0.9646
 6657TIP3   OH244165   2.608   2.157  10.797  0.4600  0.3972 -0.1861
 6657TIP3    H144166   2.580   2.083  10.743  2.0135 -0.5561  0.2464
 6657TIP3    H244167   2.564   2.145  10.881  0.6487 -0.0037 -0.1437
 6658TIP3   OH244168   0.705   0.991  10.363 -0.8391  0.5258 -0.4292
 6658TIP3    H144169   0.650   1.034  10.430 -0.3518  1.1777 -0.4374
 6658TIP3    H244170   0.777   1.052  10.349  0.1704 -0.5553 -0.0434
 6659TIP3   OH244171   4.173   5.059  11.528 -0.4808  0.0347 -0.2535
 6659TIP3    H144172   4.194   4.968  11.505 -2.1543 -0.5105  0.2708
 6659TIP3    H244173   4.182   5.063  11.623  0.3630  0.6526 -0.3446
 6660TIP3   OH244174   4.979   1.144  13.159 -0.4648  0.1807 -0.2045
 6660TIP3    H144175   4.970   1.225  13.210  0.1136 -0.1654  0.4582
 6660TIP3    H244176   5.071   1.118  13.171 -1.1809 -1.7864  1.4228
 6661TIP3   OH244177   3.206   4.005  11.774  0.1228 -0.1122 -0.7319
 6661TIP3    H144178   3.270   4.045  11.716  0.0647 -0.7052 -1.2160
 6661TIP3    H244179   3.257   3.971  11.847  0.0691  1.7789  0.2543
 6662TIP3   OH244180   3.574   3.160  12.179  0.5056 -0.6291  0.1110
 6662TIP3    H144181   3.583   3.120  12.265 -0.7960 -0.9753  0.1009
 6662TIP3    H244182   3.480   3.167  12.165  0.6967  0.5922 -0.7484
 6663TIP3   OH244183   5.299   2.929  10.889  0.2357 -0.3976 -0.0226
 6663TIP3    H144184   5.389   2.942  10.919 -0.5419  0.8613  1.9025
 6663TIP3    H244185   5.305   2.935  10.793  2.5445 -2.9308 -0.1778
 6664TIP3   OH244186   2.166   1.424  12.172 -0.2080 -0.0011  0.2154
 6664TIP3    H144187   2.131   1.448  12.258  0.5426  0.3416  0.4320
 6664TIP3    H244188   2.261   1.436  12.181  0.3007 -3.2292  0.4295
 6665TIP3   OH244189   3.374   5.016  11.602 -0.1919 -0.2691 -0.2793
 6665TIP3    H144190   3.288   5.025  11.559  0.5906  1.5087 -1.5970
 6665TIP3    H244191   3.401   4.927  11.583 -0.7059 -0.1041 -1.9621
 6666TIP3   OH244192   4.674   2.294  10.098 -0.5418 -0.0040  0.0465
 6666TIP3    H144193   4.698   2.224  10.158 -0.5372  0.0212  0.0744
 6666TIP3    H244194   4.728   2.279  10.020 -1.6764 -0.9541 -0.5739
 6667TIP3   OH244195   0.385   6.459  12.019  0.2586  0.0648  0.0698
 6667TIP3    H144196   0.309   6.452  11.961  0.3173  0.4529 -0.0573
 6667TIP3    H244197   0.353   6.429  12.104  0.2553 -0.8162 -0.2295
 6668TIP3   OH244198   2.858   4.713  10.619 -0.6280 -0.0720 -0.6202
 6668TIP3    H144199   2.905   4.768  10.557  0.3515 -0.3048 -0.1078
 6668TIP3    H244200   2.768   4.748  10.620 -0.0132  1.5930 -0.2179
 6669TIP3   OH244201   4.297   1.914  10.222 -0.4944 -0.2939  0.0363
 6669TIP3    H144202   4.375   1.874  10.261  0.1356  0.1638 -0.7297
 6669TIP3    H244203   4.300   1.888  10.130 -0.5505  0.7828 -0.2836
 6670TIP3   OH244204   1.737   2.993  10.267  0.4797 -0.1155 -0.0255
 6670TIP3    H144205   1.643   2.976  10.262  0.5044 -0.1653 -0.4070
 6670TIP3    H244206   1.777   2.925  10.212  0.8040 -0.5691  0.7622
 6671TIP3   OH244207   6.191   3.702  11.585 -0.0807 -0.3184 -0.1744
 6671TIP3    H144208   6.190   3.764  11.512  0.3183  0.6698  0.6294
 6671TIP3    H244209   6.281   3.707  11.617 -0.6850  0.6055  1.4812
 6672TIP3   OH244210   2.516   1.104  12.483  0.1589  0.0054 -0.3786
 6672TIP3    H144211   2.500   1.198  12.476 -0.6713 -0.1504 -0.7789
 6672TIP3    H244212   2.538   1.090  12.575  0.5517  0.6298 -0.3790
 6673TIP3   OH244213   2.084   3.284  12.469  0.1766 -0.1313  0.5641
 6673TIP3    H144214   2.165   3.330  12.446 -0.5866  0.5560 -0.9282
 6673TIP3    H244215   2.036   3.346  12.524 -0.4973  0.5904 -0.7871
 6674TIP3   OH244216   4.726   3.179  10.191  0.0437 -0.4002 -0.2547
 6674TIP3    H144217   4.674   3.211  10.265 -1.1258 -2.5390 -0.0781
 6674TIP3    H244218   4.692   3.227  10.116  0.4739  0.9887  0.4093
 6675TIP3   OH244219   1.678   3.905   9.844 -0.5990 -0.1766  0.8832
 6675TIP3    H144220   1.739   3.978   9.856  0.0466 -0.3241 -1.1172
 6675TIP3    H244221   1.690   3.851   9.922  0.8609  0.4832  1.1519
 6676TIP3   OH244222   2.460   3.788  13.553 -0.2101 -0.0360 -0.3033
 6676TIP3    H144223   2.486   3.858  13.612 -1.8288 -1.6966  2.6416
 6676TIP3    H244224   2.382   3.822  13.509 -0.1700  0.5161  0.0441
 6677TIP3   OH244225   4.272   2.568  10.056 -0.3827  0.2472 -0.2739
 6677TIP3    H144226   4.323   2.487  10.059  0.6427  0.8971  1.4683
 6677TIP3    H244227   4.189   2.546  10.097 -0.0704  0.0897  0.2774
 6678TIP3   OH244228   4.801   3.922  10.337 -0.2148 -0.6471 -0.4755
 6678TIP3    H144229   4.863   3.886  10.273  0.9351 -0.4048  0.4738
 6678TIP3    H244230   4.809   3.866  10.413 -0.0457  0.2826  0.2079
 6679TIP3   OH244231   3.069   5.557  11.496  0.3630 -0.5340  0.3471
 6679TIP3    H144232   2.989   5.577  11.446  0.9880 -0.0827 -0.5078
 6679TIP3    H244233   3.114   5.491  11.442  0.0659 -1.5859  1.3536
 6680TIP3   OH244234   1.022   6.029  11.590  0.0614  0.2152 -0.2053
 6680TIP3    H144235   0.957   5.964  11.565  0.3551  0.1482 -0.8107
 6680TIP3    H244236   1.039   6.013  11.683  1.3499 -1.6523 -0.7107
 6681TIP3   OH244237   5.793   5.450  11.517  0.5713 -0.7283 -0.4712
 6681TIP3    H144238   5.824   5.495  11.595 -1.4885  0.8389 -0.4932
 6681TIP3    H244239   5.762   5.519  11.459 -1.5333 -2.0681 -1.0505
 6682TIP3   OH244240   1.160   5.322  11.257  0.6268 -0.1138  0.3350
 6682TIP3    H144241   1.116   5.395  11.299 -0.7282  0.6113 -2.1639
 6682TIP3    H244242   1.238   5.306  11.311  0.8728  3.0228  1.0702
 6683TIP3   OH244243   3.844   6.509  13.281 -0.1956  0.1603  0.5835
 6683TIP3    H144244   3.846   6.445  13.210 -0.4971  1.2726 -0.4626
 6683TIP3    H244245   3.756   6.503  13.317 -1.0691  1.6401 -1.1340
 6684TIP3   OH244246   3.929   0.284  12.615 -0.4645 -0.3480 -0.7228
 6684TIP3    H144247   3.926   0.241  12.700  0.0480  0.0807 -0.4838
 6684TIP3    H244248   4.009   0.336  12.617 -0.8583  0.2889 -1.1630
 6685TIP3   OH244249   1.559   6.661  10.349  0.2190 -0.4534 -0.0660
 6685TIP3    H144250   1.589   6.686  10.436  0.0238 -0.4998  0.0158
 6685TIP3    H244251   1.464   6.671  10.352  0.2237 -0.3174 -0.3186
 6686TIP3   OH244252   4.512   2.578  12.006  0.3233  0.4236  0.0967
 6686TIP3    H144253   4.520   2.618  12.092 -0.1211  0.3214  0.1877
 6686TIP3    H244254   4.419   2.587  11.984  0.3119 -0.1362 -0.0858
 6687TIP3   OH244255   0.108   1.524  11.357 -0.1039 -0.1488  0.0249
 6687TIP3    H144256   0.079   1.433  11.357 -1.1274  0.1052 -2.3924
 6687TIP3    H244257   0.143   1.538  11.445  2.1663 -3.5053 -0.1850
 6688TIP3   OH244258   3.652   3.875  10.183  0.5366 -0.5075 -0.0638
 6688TIP3    H144259   3.640   3.964  10.150 -0.5390 -0.4998  0.3002
 6688TIP3    H244260   3.646   3.884  10.278 -1.3031 -1.1622 -0.0701
 6689TIP3   OH244261   6.476   1.555  10.206  0.1599  0.7660  0.3644
 6689TIP3    H144262   6.531   1.633  10.198 -1.5193  2.0511  0.8703
 6689TIP3    H244263   6.494   1.522  10.294  0.7155  0.6888  0.2262
 6690TIP3   OH244264   0.188   3.732   9.677 -0.1633  0.3369 -0.1339
 6690TIP3    H144265   0.206   3.638   9.671  0.7937  0.3882  1.4568
 6690TIP3    H244266   0.226   3.769   9.597 -0.9252 -0.6442 -0.9914
 6691TIP3   OH244267   2.524   4.840  11.324  0.3445 -0.5916  0.0260
 6691TIP3    H144268   2.586   4.878  11.261  0.1794 -0.9165 -0.3346
 6691TIP3    H244269   2.574   4.771  11.368  0.5002 -0.2771  0.3499
 6692TIP3   OH244270   4.797   3.231   9.519  0.0326  0.6585  0.0272
 6692TIP3    H144271   4.830   3.291   9.453  1.6175 -1.2950 -1.0685
 6692TIP3    H244272   4.825   3.144   9.489 -0.7579 -0.4855  2.3464
 6693TIP3   OH244273   5.483   4.715  11.391  0.3684  0.5931 -0.0512
 6693TIP3    H144274   5.477   4.623  11.416  0.4138  0.7542  0.5746
 6693TIP3    H244275   5.441   4.720  11.305 -0.8213  0.2159  0.4910
 6694TIP3   OH244276   1.498   0.022  10.966  0.2479  0.2486 -0.1589
 6694TIP3    H144277   1.431  -0.029  10.921  1.0759 -1.7013  0.6999
 6694TIP3    H244278   1.546  -0.042  11.018  0.4211  2.1420  2.1899
 6695TIP3   OH244279   2.197   6.062  12.109 -0.1536  0.0075  0.1699
 6695TIP3    H144280   2.158   6.144  12.080  0.2378  0.0110 -0.3555
 6695TIP3    H244281   2.147   6.038  12.187 -1.6712 -0.3616 -0.8987
 6696TIP3   OH244282   0.788   2.759  10.596 -0.0702  0.2457  0.4605
 6696TIP3    H144283   0.786   2.816  10.519 -0.2162 -0.1439  0.1750
 6696TIP3    H244284   0.762   2.817  10.668 -0.4720  0.4806  0.1351
 6697TIP3   OH244285   3.619   4.672  12.236  0.1595  0.1627  0.4253
 6697TIP3    H144286   3.698   4.706  12.279  1.3411 -1.2543 -0.4936
 6697TIP3    H244287   3.565   4.637  12.307 -0.1665  2.0775  1.1764
 6698TIP3   OH244288   0.485   0.878  10.851  0.6879  0.0730 -0.1221
 6698TIP3    H144289   0.444   0.824  10.783 -0.6834  1.0999 -0.1553
 6698TIP3    H244290   0.478   0.968  10.817 -0.6771  0.7002  1.6517
 6699TIP3   OH244291   4.189   0.157  10.104  0.2795  0.5674 -0.3893
 6699TIP3    H144292   4.186   0.248  10.073 -0.9324  0.7545  0.2285
 6699TIP3    H244293   4.104   0.121  10.080  0.8162 -0.4714 -0.7816
 6700TIP3   OH244294   3.825   2.688  10.855  0.3928 -0.9223 -0.2002
 6700TIP3    H144295   3.801   2.757  10.792 -0.2182 -2.1929 -1.4041
 6700TIP3    H244296   3.905   2.650  10.820  1.4296 -0.0480  1.1251
 6701TIP3   OH244297   4.622   4.606   9.883 -0.1839  0.2457 -0.0388
 6701TIP3    H144298   4.601   4.518   9.853 -1.0694  0.5709 -0.4119
 6701TIP3    H244299   4.632   4.657   9.803  2.4251  0.0794  0.0706
 6702TIP3   OH244300   4.250   6.328  12.530  0.0362  0.9480  0.2936
 6702TIP3    H144301   4.258   6.351  12.437  1.5168  0.3250  0.2342
 6702TIP3    H244302   4.300   6.395  12.576  2.8305 -0.9320  0.2587
 6703TIP3   OH244303   5.260   3.858  11.518 -0.0354  0.2548  0.3862
 6703TIP3    H144304   5.230   3.816  11.438 -0.3334 -1.5087  1.3680
 6703TIP3    H244305   5.356   3.856  11.512 -0.0558  1.2632 -0.4614
 6704TIP3   OH244306   5.312   5.699  11.394  0.0121 -0.2593 -0.6904
 6704TIP3    H144307   5.332   5.658  11.309  1.8153 -0.3156 -0.2906
 6704TIP3    H244308   5.315   5.793  11.376 -2.6670 -0.2175 -1.2939
 6705TIP3   OH244309   4.400   2.327  10.119 -0.3022  0.4478  0.1724
 6705TIP3    H144310   4.495   2.315  10.111 -0.6226 -2.4407 -0.3728
 6705TIP3    H244311   4.381   2.307  10.211 -0.5660 -1.3027 -0.2130
 6706TIP3   OH244312   6.327   3.085  11.911 -0.2352  0.3487  0.2454
 6706TIP3    H144313   6.250   3.141  11.908  0.0183  0.8043  1.6065
 6706TIP3    H244314   6.351   3.072  11.819 -1.9721  0.1174 -0.1994
 6707TIP3   OH244315   0.184   5.762   9.736 -0.1170  0.5145  0.5658
 6707TIP3    H144316   0.235   5.808   9.802  0.1708  2.7689 -1.1191
 6707TIP3    H244317   0.109   5.727   9.785  0.5015  1.3656  2.2161
 6708TIP3   OH244318   2.013   3.933  10.484 -0.0818  0.0019 -0.0948
 6708TIP3    H144319   1.923   3.905  10.501 -0.6260  1.5332 -0.3426
 6708TIP3    H244320   2.007   4.026  10.465  1.6117  0.2160  0.2195
 6709TIP3   OH244321   1.345   0.165  12.010  0.2184  0.4388  0.9370
 6709TIP3    H144322   1.288   0.221  12.063 -1.4850 -0.4177  0.1279
 6709TIP3    H244323   1.286   0.096  11.978  1.5111  0.0937 -0.8195
 6710TIP3   OH244324   1.920   6.117  11.717 -0.1905 -0.5082 -0.1893
 6710TIP3    H144325   1.937   6.209  11.736 -2.3168 -0.1882  0.3563
 6710TIP3    H244326   1.996   6.071  11.752  0.6762  0.9718 -0.0317
 6711TIP3   OH244327   4.655   5.015  10.986  0.1646 -0.7374  0.4781
 6711TIP3    H144328   4.689   4.926  10.989  0.5249 -0.5966  0.6551
 6711TIP3    H244329   4.691   5.052  10.905 -0.6111 -0.9975  0.0043
 6712TIP3   OH244330   4.502   1.760  10.326 -0.1137  0.4664  0.1249
 6712TIP3    H144331   4.502   1.683  10.383 -1.5776 -0.4745 -1.0678
 6712TIP3    H244332   4.529   1.726  10.241 -2.7526  0.8025 -0.9319
 6713TIP3   OH244333   3.004   2.046  11.652 -0.4297 -0.4967 -0.3406
 6713TIP3    H144334   3.063   2.022  11.723  0.8435 -0.8334 -1.4869
 6713TIP3    H244335   3.006   1.972  11.592 -1.3013 -0.1181 -0.8679
 6714TIP3   OH244336   5.476   5.416  10.954  0.2127  0.5814 -0.0828
 6714TIP3    H144337   5.381   5.417  10.939  0.2390 -0.9449 -0.6464
 6714TIP3    H244338   5.486   5.376  11.040  0.3516 -0.7488 -0.6828
 6715TIP3   OH244339   6.235   0.688  10.002  0.5432 -0.1825  0.1030
 6715TIP3    H144340   6.225   0.689  10.097  2.2604 -0.9377  0.3226
 6715TIP3    H244341   6.265   0.600   9.982  0.0612 -0.0785 -1.1811
 6716TIP3   OH244342   0.336   0.468  10.624 -0.3313 -0.0084  0.3172
 6716TIP3    H144343   0.317   0.552  10.667  0.9116 -0.6224  2.1729
 6716TIP3    H244344   0.373   0.493  10.539 -1.9553  1.2548 -0.0840
 6717TIP3   OH244345   4.163   3.893  10.964  0.2461  0.0283  0.1327
 6717TIP3    H144346   4.104   3.902  10.890 -1.6543  0.4054  1.6066
 6717TIP3    H244347   4.202   3.807  10.954 -0.9037 -0.4165 -0.6770
 6718TIP3   OH244348   3.897   6.076  12.811 -0.4522 -0.1691 -0.0732
 6718TIP3    H144349   3.838   6.123  12.869 -1.7074 -0.3248 -1.1890
 6718TIP3    H244350   3.963   6.141  12.786  0.2061 -0.1403  1.6028
 6719TIP3   OH244351   2.029   5.563   9.656 -0.3833 -0.2398 -0.6963
 6719TIP3    H144352   2.031   5.628   9.727 -0.9566  1.0769 -1.8346
 6719TIP3    H244353   1.945   5.518   9.666 -0.0843 -0.6629 -0.0374
 6720TIP3   OH244354   6.097   4.564  10.774  0.3153 -0.4347  0.3681
 6720TIP3    H144355   6.124   4.478  10.804  0.9167 -1.0188 -1.6509
 6720TIP3    H244356   6.170   4.595  10.721 -0.5150  0.6308 -0.2036
 6721TIP3   OH244357   6.234   1.357  10.336 -0.0906  0.0722  0.0375
 6721TIP3    H144358   6.254   1.278  10.386  1.7594  0.8545  0.6316
 6721TIP3    H244359   6.261   1.337  10.247 -0.6676 -0.3294 -0.0528
 6722TIP3   OH244360   4.852   6.410  12.517 -0.2098 -0.1759 -0.5587
 6722TIP3    H144361   4.863   6.412  12.612 -1.4488 -0.6531 -0.3880
 6722TIP3    H244362   4.790   6.339  12.501 -1.2196  0.8894 -1.5929
 6723TIP3   OH244363   0.975   0.398   9.626  0.3947 -0.1300 -0.2720
 6723TIP3    H144364   1.038   0.420   9.557  0.6642  2.7574  0.7558
 6723TIP3    H244365   0.951   0.483   9.664 -2.9873 -1.2510  0.4071
 6724TIP3   OH244366   5.555   0.744  13.047  0.1960  0.4393  0.2743
 6724TIP3    H144367   5.477   0.691  13.034 -0.0916  0.2761  2.2674
 6724TIP3    H244368   5.626   0.681  13.056  0.1934  0.4744  0.5701
 6725TIP3   OH244369   3.315   1.605  12.111  0.3192  0.7229  0.1739
 6725TIP3    H144370   3.393   1.555  12.087  0.6034  1.7869 -1.2431
 6725TIP3    H244371   3.243   1.561  12.067  0.6916  2.0100 -1.8820
 6726TIP3   OH244372   1.759   1.050  10.326  0.1180 -0.0463  0.4180
 6726TIP3    H144373   1.724   0.961  10.316  1.4463 -0.7225  1.4260
 6726TIP3    H244374   1.834   1.053  10.266 -0.3000  0.6277 -0.0851
 6727TIP3   OH244375   6.027   0.250  12.228 -0.0862 -0.0018 -0.1578
 6727TIP3    H144376   6.035   0.331  12.178  0.5773  1.4941  2.1837
 6727TIP3    H244377   5.932   0.235  12.235 -0.2271  0.7969 -0.2850
 6728TIP3   OH244378   5.214   1.700  10.427 -0.0454  0.6204 -0.2954
 6728TIP3    H144379   5.144   1.713  10.491 -0.7419 -0.2388 -0.8573
 6728TIP3    H244380   5.199   1.766  10.360  0.0935  0.8791 -0.0732
 6729TIP3   OH244381   3.770   0.101   9.460 -0.4201  0.2017 -0.0995
 6729TIP3    H144382   3.777   0.023   9.405  0.1804 -0.1000  0.3904
 6729TIP3    H244383   3.758   0.173   9.398 -1.0237 -0.2751 -0.5542
 6730TIP3   OH244384   3.417   3.773  10.925  0.2616 -0.0086  0.0231
 6730TIP3    H144385   3.335   3.755  10.971 -0.0114 -1.6876 -1.0286
 6730TIP3    H244386   3.481   3.785  10.995 -0.6902  0.3827  0.8517
 6731TIP3   OH244387   1.395   3.873  10.073 -0.2974 -0.3220 -0.1705
 6731TIP3    H144388   1.384   3.788  10.115 -1.7648 -0.3482 -0.5491
 6731TIP3    H244389   1.480   3.904  10.103 -1.4558 -0.0977  3.2525
 6732TIP3   OH244390   6.127   0.156   9.466  0.2416  0.4186  0.3684
 6732TIP3    H144391   6.043   0.173   9.423 -0.2187 -1.6692  0.3235
 6732TIP3    H244392   6.103   0.116   9.550  1.1813  1.4063  1.1281
 6733TIP3   OH244393   2.440   1.028  11.506 -0.1839  0.0642  0.3382
 6733TIP3    H144394   2.377   0.978  11.453 -0.3884  0.9886 -0.3391
 6733TIP3    H244395   2.435   1.117  11.469 -0.0438  0.6421  1.6793
 6734TIP3   OH244396   2.781   3.617  11.625  0.8417  0.3280  0.1295
 6734TIP3    H144397   2.845   3.669  11.576  0.9002  0.8978  0.7999
 6734TIP3    H244398   2.700   3.668  11.619  0.1737 -0.8415 -1.5119
 6735TIP3   OH244399   3.733   5.909   9.762  0.2390  0.2801  0.9194
 6735TIP3    H144400   3.691   5.934   9.680  2.4918  1.6077  0.0558
 6735TIP3    H244401   3.664   5.871   9.815 -1.4512  0.0997 -1.3072
 6736TIP3   OH244402   4.294   3.229  10.745 -0.3831  0.7222 -0.7009
 6736TIP3    H144403   4.313   3.138  10.766 -2.7209  0.3952  0.3643
 6736TIP3    H244404   4.329   3.278  10.819 -0.1321  0.5739 -0.7191
 6737TIP3   OH244405   2.179   5.334  11.980 -0.2375  0.0903  0.2959
 6737TIP3    H144406   2.224   5.250  11.989 -0.8437 -0.1624  1.0370
 6737TIP3    H244407   2.199   5.362  11.890  0.5371 -0.5045  0.2660
 6738TIP3   OH244408   0.776   4.877  10.915  0.1526  0.0555 -0.2335
 6738TIP3    H144409   0.715   4.805  10.934  0.5678 -0.5727 -1.1884
 6738TIP3    H244410   0.776   4.930  10.995 -0.6644 -0.6417  0.2496
 6739TIP3   OH244411   5.373   5.006   9.079  0.2118  0.5419  0.2924
 6739TIP3    H144412   5.467   4.991   9.075  0.1647  0.4512 -0.7603
 6739TIP3    H244413   5.340   4.938   9.137  0.2372 -2.4729 -2.9447
 6740TIP3   OH244414   2.916   5.365  11.626  0.0624 -0.4417 -0.4333
 6740TIP3    H144415   2.987   5.422  11.595  0.8781 -1.3288 -0.2598
 6740TIP3    H244416   2.939   5.278  11.593 -0.0619 -1.0540  1.0078
 6741TIP3   OH244417   5.360   5.824  12.243  0.6610 -0.5592  0.1883
 6741TIP3    H144418   5.383   5.869  12.161 -0.5800  1.5116  0.8930
 6741TIP3    H244419   5.418   5.862  12.309 -0.8181  0.5438  0.9107
 6742TIP3   OH244420   2.761   5.548   9.801 -0.3609  0.6520  0.6298
 6742TIP3    H144421   2.700   5.484   9.838 -0.7532  1.1923  0.9339
 6742TIP3    H244422   2.740   5.630   9.846 -1.6638  1.6294 -1.5569
 6743TIP3   OH244423   1.137   2.480  11.825 -0.6492 -0.2067 -0.3232
 6743TIP3    H144424   1.044   2.463  11.842 -0.7141 -0.7338 -1.1233
 6743TIP3    H244425   1.136   2.540  11.750 -0.3538  0.4897  0.2254
 6744TIP3   OH244426   5.788   0.072  10.043  0.4076 -0.4980  0.3560
 6744TIP3    H144427   5.830   0.155  10.021 -0.2776  0.0866  1.1828
 6744TIP3    H244428   5.860   0.014  10.068  0.8966 -0.1772 -0.2818
 6745TIP3   OH244429   1.769   6.382  11.976 -0.1024 -0.6424 -0.0178
 6745TIP3    H144430   1.848   6.434  11.965 -0.9254  0.5319 -0.6571
 6745TIP3    H244431   1.721   6.426  12.047 -0.4504 -0.9779 -0.0416
 6746TIP3   OH244432   6.231   5.144   9.360 -0.3761  0.2930  0.3537
 6746TIP3    H144433   6.170   5.076   9.330 -0.0075  0.5200 -1.0009
 6746TIP3    H244434   6.313   5.124   9.316 -0.2024  1.4915  0.0817
 6747TIP3   OH244435   0.034   2.253  11.375  0.4134  0.1992 -0.2666
 6747TIP3    H144436   0.020   2.159  11.380  1.7833 -0.0190 -0.0839
 6747TIP3    H244437   0.040   2.282  11.467  0.5995  0.3607 -0.3282
 6748TIP3   OH244438   1.894   2.683  12.160 -0.4064 -0.4937  0.0201
 6748TIP3    H144439   1.819   2.728  12.198 -0.2917 -0.1157 -0.1966
 6748TIP3    H244440   1.883   2.591  12.186 -0.8093 -0.3969  0.1957
 6749TIP3   OH244441   6.135   5.425  13.098 -0.0614 -0.2394 -0.0281
 6749TIP3    H144442   6.141   5.518  13.121 -0.8573  0.1524 -1.2579
 6749TIP3    H244443   6.226   5.395  13.095  0.2667  0.7363 -0.4331
 6750TIP3   OH244444   3.068   1.385  11.377  0.1080 -0.0149  0.0064
 6750TIP3    H144445   3.116   1.386  11.460 -1.0697  2.0482  0.7275
 6750TIP3    H244446   3.134   1.408  11.311  0.3419  1.9870  0.8738
 6751TIP3   OH244447   2.419   0.033  10.426  0.2241 -0.7815  0.5753
 6751TIP3    H144448   2.495   0.090  10.440  2.1433 -2.5565 -1.7345
 6751TIP3    H244449   2.452  -0.056  10.442 -0.6389 -1.8091 -2.6849
 6752TIP3   OH244450   5.651   0.282   9.724  0.5661  0.5569 -0.4341
 6752TIP3    H144451   5.733   0.246   9.689  0.3003  2.1711 -2.9373
 6752TIP3    H244452   5.678   0.359   9.774  0.7244 -0.2067  0.6870
 6753TIP3   OH244453   1.416   2.738  11.389  0.3026  0.0335  0.1027
 6753TIP3    H144454   1.467   2.753  11.469  2.0978  0.5437 -1.0723
 6753TIP3    H244455   1.459   2.663  11.348 -1.1866 -0.8157  0.0420
 6754TIP3   OH244456   1.555   4.887  11.413  0.2307  0.5202  0.3248
 6754TIP3    H144457   1.558   4.834  11.334  0.4059 -1.5194  1.6267
 6754TIP3    H244458   1.489   4.954  11.394 -1.0468 -0.9987 -0.9189
 6755TIP3   OH244459   0.639   0.269  11.774 -0.4170  0.0174 -0.0271
 6755TIP3    H144460   0.685   0.187  11.756 -0.1520  0.1106  0.2171
 6755TIP3    H244461   0.645   0.280  11.869 -2.3477 -0.7979  0.2458
 6756TIP3   OH244462   1.741   2.023  10.015 -0.9053 -0.2314  0.4018
 6756TIP3    H144463   1.763   2.073   9.937 -1.6091  0.2031  0.4613
 6756TIP3    H244464   1.737   2.089  10.085 -0.4143 -0.5931  0.7759
 6757TIP3   OH244465   0.097   2.726  11.322 -0.2102  0.0740  0.1822
 6757TIP3    H144466   0.125   2.761  11.237 -0.0952 -0.0763  0.1577
 6757TIP3    H244467   0.138   2.640  11.327 -0.8043 -0.2155  0.0765
 6758TIP3   OH244468   3.849   6.285  11.134  0.2459 -0.2696 -0.7458
 6758TIP3    H144469   3.907   6.270  11.059  0.8057 -0.1787 -0.3378
 6758TIP3    H244470   3.893   6.354  11.184 -0.7772  0.6019 -1.0195
 6759TIP3   OH244471   2.807   5.184   9.950 -0.4029 -1.2802  0.4897
 6759TIP3    H144472   2.719   5.155   9.927 -0.6774  0.1231 -0.3698
 6759TIP3    H244473   2.831   5.245   9.879  0.1374  0.5290  2.1460
 6760TIP3   OH244474   1.746   3.851  10.565  0.3799 -0.7242  0.7232
 6760TIP3    H144475   1.674   3.811  10.614  0.5856 -1.0963  0.7289
 6760TIP3    H244476   1.706   3.922  10.516 -0.3964 -2.2291 -0.9192
 6761TIP3   OH244477   6.277   4.431  10.184 -0.1518  0.1909 -0.3292
 6761TIP3    H144478   6.203   4.488  10.164 -0.2092 -0.4442 -2.0373
 6761TIP3    H244479   6.346   4.491  10.212 -0.5680  1.0027 -1.0158
 6762TIP3   OH244480   2.690   3.514  13.338  0.4042  0.1255 -0.2084
 6762TIP3    H144481   2.727   3.438  13.293 -1.2356 -0.8237 -0.0241
 6762TIP3    H244482   2.733   3.589  13.296  2.9250 -0.8792  0.3782
 6763TIP3   OH244483   4.808   3.035  10.660  0.3358 -0.0745  0.0522
 6763TIP3    H144484   4.889   2.991  10.687 -0.0665  0.4291  2.1977
 6763TIP3    H244485   4.793   3.003  10.570  0.1108 -4.3149  1.3704
 6764TIP3   OH244486   4.412   6.548  12.555  0.1771 -0.3276  0.9727
 6764TIP3    H144487   4.487   6.531  12.498 -0.4713  0.6765 -0.2329
 6764TIP3    H244488   4.425   6.638  12.584  0.0271 -0.5346  1.6899
 6765TIP3   OH244489   5.442   0.649  10.204  0.5550  0.2431  0.3416
 6765TIP3    H144490   5.351   0.678  10.204  1.0714  1.9674  0.8248
 6765TIP3    H244491   5.457   0.617  10.114 -0.4820  0.0084  0.2413
 6766TIP3   OH244492   5.825   2.449   9.817 -0.4482 -0.2594  0.5520
 6766TIP3    H144493   5.797   2.443   9.908  0.2981 -0.9323  0.7380
 6766TIP3    H244494   5.882   2.374   9.804 -0.4674 -0.1087 -0.4446
 6767TIP3   OH244495   0.706   0.976  10.657 -0.6454  0.1494  0.1345
 6767TIP3    H144496   0.731   1.054  10.608 -0.7598 -0.3554 -0.7570
 6767TIP3    H244497   0.610   0.972  10.648 -0.7852  0.6102  1.2757
 6768TIP3   OH244498   1.046   5.894  10.299  0.1968  0.5503  0.0506
 6768TIP3    H144499   1.111   5.952  10.259  1.2275  0.0350  0.9146
 6768TIP3    H244500   1.079   5.879  10.388 -0.1685 -1.1674 -0.0781
 6769TIP3   OH244501   1.518   4.357   9.382  0.4046 -0.1713 -0.7766
 6769TIP3    H144502   1.486   4.324   9.466 -1.6760 -2.0025 -2.1702
 6769TIP3    H244503   1.570   4.434   9.405  1.1477 -1.4296  2.2767
 6770TIP3   OH244504   2.555   0.186   9.649 -0.0366 -0.3654  0.3620
 6770TIP3    H144505   2.612   0.236   9.591 -0.0897 -0.5135  0.1813
 6770TIP3    H244506   2.593   0.198   9.736  0.3742 -0.6083  0.2196
 6771TIP3   OH244507   0.328   3.020   9.739  0.1785  0.2734 -0.0398
 6771TIP3    H144508   0.244   2.976   9.727  0.3595 -0.2205  0.4139
 6771TIP3    H244509   0.381   2.956   9.787  1.8221 -0.6443 -2.8476
 6772TIP3   OH244510   0.280   2.340  11.285  0.0497  0.0473  0.1659
 6772TIP3    H144511   0.309   2.333  11.194 -1.7654 -0.7231 -0.3821
 6772TIP3    H244512   0.213   2.274  11.295 -0.0317  0.3413  1.9973
 6773TIP3   OH244513   6.218   1.168  12.439  0.6867  0.4101 -0.7118
 6773TIP3    H144514   6.293   1.123  12.478  0.3205  1.0735  0.8410
 6773TIP3    H244515   6.145   1.148  12.497  0.2276  1.8972 -0.7394
 6774TIP3   OH244516   6.173   1.743  10.009  0.3928 -0.0407  0.1945
 6774TIP3    H144517   6.249   1.779  10.054  0.6830 -1.3961  0.8224
 6774TIP3    H244518   6.207   1.667   9.962  0.7131  2.6413 -4.5649
 6775TIP3   OH244519   4.458   5.696  12.891 -0.1876 -0.1149 -0.1027
 6775TIP3    H144520   4.371   5.700  12.851 -0.0232  1.1809 -0.3830
 6775TIP3    H244521   4.478   5.787  12.915  1.7347 -0.0865 -1.4896
 6776TIP3   OH244522   1.684   2.197  10.291 -0.3087 -0.1709  0.3781
 6776TIP3    H144523   1.589   2.200  10.286 -0.4515 -1.6380  1.6648
 6776TIP3    H244524   1.713   2.266  10.231 -2.1394 -0.8257 -1.3683
 6777TIP3   OH244525   1.505   3.173  10.352  0.0616 -0.0354 -0.0367
 6777TIP3    H144526   1.443   3.100  10.348 -0.9423  0.8410 -1.0798
 6777TIP3    H244527   1.591   3.131  10.342 -0.3943 -1.1978  0.7045
 6778TIP3   OH244528   2.521   5.919  11.915  0.3052 -0.2977 -0.1171
 6778TIP3    H144529   2.564   5.922  12.000  2.2744  0.5391 -1.0869
 6778TIP3    H244530   2.469   5.999  11.911  1.0134  0.1734 -0.0743
 6779TIP3   OH244531   1.070   1.272  10.473  1.1249 -0.1666 -0.0316
 6779TIP3    H144532   1.033   1.221  10.401 -1.1892 -0.0707  1.0016
 6779TIP3    H244533   1.111   1.207  10.530  1.8377 -0.3792 -0.7634
 6780TIP3   OH244534   3.397   4.579  11.297  0.4555 -0.3272 -0.0766
 6780TIP3    H144535   3.475   4.523  11.293  0.1128 -0.7805 -0.9134
 6780TIP3    H244536   3.384   4.607  11.206  0.4799  0.9269  0.3003
 6781TIP3   OH244537   3.189   1.385   9.563 -0.3173 -0.4514 -0.3592
 6781TIP3    H144538   3.151   1.394   9.476  0.0777 -1.4440 -0.6380
 6781TIP3    H244539   3.113   1.370   9.621 -0.3626 -4.4492 -1.1656
 6782TIP3   OH244540   4.975   6.347  10.179  0.2299 -0.3190  0.3227
 6782TIP3    H144541   4.982   6.425  10.124  1.0464 -1.9239 -2.0311
 6782TIP3    H244542   4.883   6.324  10.178  0.1834 -0.1164 -0.0408
 6783TIP3   OH244543   3.164   4.311  10.047 -0.2903  0.0131 -0.4406
 6783TIP3    H144544   3.216   4.381  10.088  1.5101 -1.2900 -0.3941
 6783TIP3    H244545   3.218   4.233  10.054 -1.5511 -1.0734 -1.9464
 6784TIP3   OH244546   1.702   2.421  12.907  0.4713  0.5953  0.3924
 6784TIP3    H144547   1.749   2.492  12.950 -0.8199  1.5503  0.2764
 6784TIP3    H244548   1.612   2.431  12.936 -0.5390  1.4471 -2.6556
 6785TIP3   OH244549   2.798   0.318  10.155 -0.2953 -0.3742 -0.8352
 6785TIP3    H144550   2.743   0.291  10.229  0.9227  0.0810  0.2761
 6785TIP3    H244551   2.739   0.318  10.080 -1.7540 -0.1348  0.2702
 6786TIP3   OH244552   4.941   1.720  13.108 -0.4949 -0.1858 -0.2766
 6786TIP3    H144553   4.986   1.664  13.171  0.9035  2.1575  0.9510
 6786TIP3    H244554   5.001   1.727  13.034  0.1429  0.9860  0.3153
 6787TIP3   OH244555   4.571   2.517  11.746  0.1352  0.6034 -0.3432
 6787TIP3    H144556   4.665   2.525  11.732  0.5098 -0.5750  1.2083
 6787TIP3    H244557   4.559   2.536  11.839 -0.6763 -2.3946  0.2755
 6788TIP3   OH244558   5.059   2.220  10.882 -0.3412 -0.5736  0.2622
 6788TIP3    H144559   5.009   2.139  10.872  1.8515 -1.9495 -0.3209
 6788TIP3    H244560   5.124   2.200  10.949 -1.7183  1.8148  2.4844
 6789TIP3   OH244561   2.406   0.576   9.656  0.4014  0.0239  0.0637
 6789TIP3    H144562   2.328   0.631   9.660  0.1936 -0.1663 -0.9551
 6789TIP3    H244563   2.374   0.488   9.676  0.7022  0.2244  1.5153
 6790TIP3   OH244564   0.484   4.946  10.450  0.0472  0.6593 -0.7174
 6790TIP3    H144565   0.572   4.964  10.484 -0.5402  0.8139  0.8064
 6790TIP3    H244566   0.431   5.019  10.482 -1.0279 -0.4127  0.0205
 6791TIP3   OH244567   1.169   1.386  12.005 -0.3600 -0.1387  0.2144
 6791TIP3    H144568   1.144   1.411  11.916 -1.7196  0.4247  0.7331
 6791TIP3    H244569   1.136   1.297  12.015 -1.3899  0.2754  0.5901
 6792TIP3   OH244570   4.519   3.925  11.399 -0.0584 -0.1372 -0.6556
 6792TIP3    H144571   4.483   3.887  11.319 -0.7664 -0.9363  0.0224
 6792TIP3    H244572   4.529   3.850  11.458 -0.4882  0.5918  0.3523
 6793TIP3   OH244573   1.959   4.310  11.348 -0.3864 -0.4184  0.4774
 6793TIP3    H144574   1.961   4.387  11.291  0.5710 -0.8355 -0.0779
 6793TIP3    H244575   1.906   4.246  11.300 -1.0230 -0.1778  0.8521
 6794TIP3   OH244576   2.109   0.781  12.053  0.3686  0.4541 -0.0285
 6794TIP3    H144577   2.103   0.721  11.979 -0.9592 -0.0607  0.4580
 6794TIP3    H244578   2.191   0.759  12.096 -0.1449 -1.1139  0.2027
 6795TIP3   OH244579   1.800   2.480  10.437  0.5354 -0.2899 -0.4252
 6795TIP3    H144580   1.748   2.532  10.498  0.6840 -0.6259 -0.0128
 6795TIP3    H244581   1.745   2.475  10.358  0.3611  0.1735 -0.3392
 6796TIP3   OH244582   3.242   6.512   9.314  0.4375 -0.0465 -0.0041
 6796TIP3    H144583   3.307   6.581   9.328  1.1762 -1.1626  2.5205
 6796TIP3    H244584   3.293   6.431   9.314 -0.7143 -0.7941 -0.3201
 6797TIP3   OH244585   4.070   1.564  12.581 -0.1044  0.1986  0.2565
 6797TIP3    H144586   4.021   1.610  12.649 -0.9259  0.0750 -0.2461
 6797TIP3    H244587   4.027   1.479  12.573 -0.6247  0.5594 -1.0766
 6798TIP3   OH244588   2.406   5.222  11.555  0.0648  0.1007  1.0611
 6798TIP3    H144589   2.493   5.242  11.521  0.5855  0.2737  2.4653
 6798TIP3    H244590   2.381   5.140  11.513  0.4227  0.6125 -0.1947
 6799TIP3   OH244591   6.525   3.843  10.173 -0.0419  0.3175 -0.5865
 6799TIP3    H144592   6.534   3.756  10.133 -0.3507  0.2038 -0.4131
 6799TIP3    H244593   6.606   3.853  10.224 -0.2312 -0.0869 -0.1998
 6800TIP3   OH244594   5.795   0.234  12.377 -0.2720 -0.1482  0.2857
 6800TIP3    H144595   5.848   0.233  12.456 -1.1986 -1.3923  0.9320
 6800TIP3    H244596   5.720   0.179  12.398 -0.4370 -0.6789 -1.5400
 6801TIP3   OH244597   2.293   0.231  10.040  0.6751  0.0261  0.2239
 6801TIP3    H144598   2.270   0.285  10.116  0.8716  0.5647 -0.0909
 6801TIP3    H244599   2.306   0.144  10.075  1.5463  0.4314  0.9286
 6802TIP3   OH244600   3.694   0.467   9.937  0.3655  0.3710 -0.3004
 6802TIP3    H144601   3.748   0.527   9.987 -0.3466 -0.1720  1.1731
 6802TIP3    H244602   3.722   0.380   9.965 -0.9785  0.0710  0.2382
 6803TIP3   OH244603   6.185   0.400   9.942 -0.9052  0.1114  0.0909
 6803TIP3    H144604   6.236   0.327   9.978 -0.4163  0.4364  0.0788
 6803TIP3    H244605   6.213   0.405   9.850 -2.9268 -1.3947 -0.6733
 6804TIP3   OH244606   0.719   4.042  11.921 -0.1343  0.2350  0.1951
 6804TIP3    H144607   0.683   4.047  12.009  2.1478 -0.1349  1.2039
 6804TIP3    H244608   0.814   4.040  11.933  0.2728  0.8912 -2.3082
 6805TIP3   OH244609   3.165   1.742  11.247 -0.4726  0.1338 -0.6368
 6805TIP3    H144610   3.176   1.649  11.227  0.0965  0.5090 -2.2213
 6805TIP3    H244611   3.095   1.770  11.188 -1.1129  0.5774  0.3163
 6806TIP3   OH244612   4.872   4.197   9.774  0.2182  0.2437  0.5262
 6806TIP3    H144613   4.850   4.132   9.841 -1.8604  0.6227  0.2864
 6806TIP3    H244614   4.912   4.146   9.704  0.1614 -0.5292  1.0444
 6807TIP3   OH244615   2.178   5.078  12.807  0.0246  0.0963  0.2103
 6807TIP3    H144616   2.209   4.998  12.766 -0.2883  0.8964 -1.6880
 6807TIP3    H244617   2.156   5.052  12.897 -0.4856 -2.0331 -0.4687
 6808TIP3   OH244618   1.023   6.573   9.744 -0.2728 -0.6543 -0.2653
 6808TIP3    H144619   1.078   6.505   9.782 -0.7613 -0.3815  0.9629
 6808TIP3    H244620   1.081   6.650   9.739 -0.0665 -0.8258 -0.5491
 6809TIP3   OH244621   5.122   2.593   9.962  0.3063  0.1606 -0.0335
 6809TIP3    H144622   5.122   2.646   9.882  1.1494 -1.0655 -0.8839
 6809TIP3    H244623   5.203   2.543   9.958  1.7613  1.9956  2.9660
 6810TIP3   OH244624   2.940   2.465   9.609 -0.0779  0.6881 -0.0877
 6810TIP3    H144625   2.905   2.378   9.593 -0.3246  0.4785  1.5323
 6810TIP3    H244626   2.882   2.523   9.560 -0.3071  0.0146 -0.6353
 6811TIP3   OH244627   0.633   2.276  11.364  0.3583  0.5032  0.7965
 6811TIP3    H144628   0.577   2.202  11.340  1.1625  0.4036 -0.8505
 6811TIP3    H244629   0.663   2.255  11.453 -0.3972 -0.5299  0.8272
 6812TIP3   OH244630   1.474   2.224  10.616 -0.2321  0.1363 -0.0420
 6812TIP3    H144631   1.428   2.253  10.537 -0.1945  1.6109  0.4386
 6812TIP3    H244632   1.485   2.304  10.668 -0.5889 -0.8481  1.6355
 6813TIP3   OH244633   0.962   2.348  11.462 -0.1439  0.0345 -0.1259
 6813TIP3    H144634   0.972   2.398  11.381 -1.4205  1.2227  0.4046
 6813TIP3    H244635   1.049   2.350  11.502 -0.1275  1.8125 -0.1536
 6814TIP3   OH244636   4.468   0.891  10.834 -0.5848  0.3502 -0.2087
 6814TIP3    H144637   4.441   0.908  10.924 -0.3308  0.2475 -0.1134
 6814TIP3    H244638   4.491   0.798  10.833 -2.7175 -0.2424 -0.9043
 6815TIP3   OH244639   2.893   5.001  12.809  0.2965 -0.0199  0.0418
 6815TIP3    H144640   2.981   5.004  12.846 -0.0253 -1.4903  1.0101
 6815TIP3    H244641   2.844   4.944  12.867 -1.2342  0.5090 -0.6595
 6816TIP3   OH244642   0.483   3.092  12.321  0.0629 -0.5152  0.3740
 6816TIP3    H144643   0.525   3.161  12.371  0.1909  0.2347 -0.7368
 6816TIP3    H244644   0.444   3.035  12.387 -0.5397  0.9168  1.2989
 6817TIP3   OH244645   1.649   1.475  11.895 -0.0218  0.3155 -0.1501
 6817TIP3    H144646   1.640   1.379  11.897  0.7370  0.2468  0.4619
 6817TIP3    H244647   1.735   1.490  11.856  0.5381  0.6895  1.1888
 6818TIP3   OH244648   2.293   2.819  11.389  0.1738 -0.3585  0.0737
 6818TIP3    H144649   2.221   2.803  11.329  1.1980 -0.2974 -1.2262
 6818TIP3    H244650   2.262   2.890  11.445 -1.5927 -1.8097  1.0245
 6819TIP3   OH244651   0.056   3.565  10.573 -0.2509  0.2023  0.1409
 6819TIP3    H144652  -0.009   3.510  10.532 -0.4017 -2.1329  3.1523
 6819TIP3    H244653   0.136   3.551  10.523 -0.9940 -0.4648 -0.8742
 6820TIP3   OH244654   0.315   6.547  10.758 -0.1034  0.1552 -0.2080
 6820TIP3    H144655   0.261   6.603  10.813  1.4477  0.4361  1.1134
 6820TIP3    H244656   0.258   6.520  10.686 -2.1056  0.0812  1.3411
 6821TIP3   OH244657   3.370   3.330  13.287  0.8297  0.2567  0.5671
 6821TIP3    H144658   3.294   3.320  13.231  1.5214  1.0092 -0.5374
 6821TIP3    H244659   3.363   3.258  13.350 -0.6160  0.1394  0.3003
 6822TIP3   OH244660   5.656   2.467  11.038 -0.4287 -0.2918  0.4729
 6822TIP3    H144661   5.595   2.471  11.111 -0.6855 -0.6460  0.2801
 6822TIP3    H244662   5.630   2.539  10.980 -0.3891 -0.1751  0.5988
 6823TIP3   OH244663   3.053   6.129  10.846  0.0558 -0.4407  0.0811
 6823TIP3    H144664   3.090   6.043  10.831 -0.8828 -0.4660 -2.9106
 6823TIP3    H244665   3.127   6.184  10.871  1.0212 -1.6823  0.0067
 6824TIP3   OH244666   0.467   1.203  17.509 -0.1905  0.1486  0.0685
 6824TIP3    H144667   0.554   1.171  17.484 -0.1886 -1.5838  2.0269
 6824TIP3    H244668   0.477   1.298  17.516  1.8158 -0.0926  1.1573
 6825TIP3   OH244669   3.275   4.611  10.060  0.3247  0.3221  0.4847
 6825TIP3    H144670   3.189   4.610  10.102  0.5578 -1.3845  1.0067
 6825TIP3    H244671   3.260   4.654   9.976 -1.3272 -1.0723  0.0103
 6826TIP3   OH244672   2.894   5.048  10.683 -0.0516  0.3042 -0.0286
 6826TIP3    H144673   2.830   5.072  10.616  0.9475  0.7728 -0.8612
 6826TIP3    H244674   2.913   5.130  10.728  0.2931  0.2692 -0.1037
 6827TIP3   OH244675   2.517   3.127  10.268 -0.3240  0.1394 -0.0328
 6827TIP3    H144676   2.525   3.057  10.333 -1.7457 -0.4166 -0.4074
 6827TIP3    H244677   2.548   3.087  10.187 -0.0723  0.3057 -0.0167
 6828TIP3   OH244678   3.360   4.661  11.846  0.7480  0.4342  0.3213
 6828TIP3    H144679   3.392   4.710  11.922  2.0773 -0.8879  0.6569
 6828TIP3    H244680   3.413   4.696  11.773  1.3358 -0.1202  0.4735
 6829TIP3   OH244681   2.233   3.842   9.870 -0.1404 -0.3779  0.3418
 6829TIP3    H144682   2.190   3.921   9.840 -0.8110 -0.7442  0.3239
 6829TIP3    H244683   2.309   3.833   9.813 -0.3781 -0.0617 -0.0279
 6830TIP3   OH244684   4.619   1.851  11.723  0.3405  0.4360 -0.0165
 6830TIP3    H144685   4.606   1.777  11.782  1.5640  1.8186  2.1139
 6830TIP3    H244686   4.587   1.927  11.772 -0.1277  1.4493 -1.8073
 6831TIP3   OH244687   2.989   0.152  10.087 -0.4979 -0.5075  0.0706
 6831TIP3    H144688   2.937   0.127  10.011  0.9669 -2.0342 -0.5015
 6831TIP3    H244689   2.946   0.230  10.121 -1.3020  0.1466 -2.2384
 6832TIP3   OH244690   3.308   2.808  11.296 -0.3391 -0.1924 -0.0547
 6832TIP3    H144691   3.341   2.744  11.234 -1.6900  0.5851 -1.6336
 6832TIP3    H244692   3.237   2.852  11.251  1.3916  3.4281  0.3649
 6833TIP3   OH244693   3.696   6.249  12.951  1.0619 -0.7014 -0.6546
 6833TIP3    H144694   3.653   6.179  12.903 -0.4563  0.2284 -0.7269
 6833TIP3    H244695   3.669   6.236  13.042 -3.3607  2.3858 -1.1774
 6834TIP3   OH244696   3.280   1.480  12.368 -0.5725 -0.0349  0.4111
 6834TIP3    H144697   3.280   1.563  12.414  0.0040  0.9832 -1.3368
 6834TIP3    H244698   3.256   1.502  12.278 -0.4133 -1.7662 -0.1026
 6835TIP3   OH244699   2.099   0.534  10.670  0.7250 -0.0860  0.3901
 6835TIP3    H144700   2.108   0.561  10.578  1.1973 -0.5426  0.3034
 6835TIP3    H244701   2.180   0.561  10.711  1.1992 -1.3448  0.3085
 6836TIP3   OH244702   1.186   6.354  13.031  0.7673  0.8173 -0.1022
 6836TIP3    H144703   1.116   6.401  12.986 -0.7481  0.5740  1.8961
 6836TIP3    H244704   1.250   6.421  13.054 -0.1477  1.5114  0.4703
 6837TIP3   OH244705   6.205   0.852  10.784  0.0285 -0.2969  0.4227
 6837TIP3    H144706   6.142   0.897  10.840 -1.9657 -1.2672 -0.9103
 6837TIP3    H244707   6.289   0.863  10.828 -0.7516  2.5198  1.4032
 6838TIP3   OH244708   4.303   4.297   9.935 -0.5218  0.6670 -0.2015
 6838TIP3    H144709   4.244   4.359   9.892 -1.4514  0.9130  1.3662
 6838TIP3    H244710   4.349   4.348  10.000 -0.0605  0.0527 -0.0370
 6839TIP3   OH244711   1.941   1.061  11.043  0.2255  0.6152 -1.2907
 6839TIP3    H144712   1.850   1.080  11.064  0.0222  0.0275 -1.6281
 6839TIP3    H244713   1.938   0.979  10.993  1.1856 -1.0458  1.1870
 6840TIP3   OH244714   0.854   0.951  10.000 -0.3005 -0.0705 -0.0048
 6840TIP3    H144715   0.923   0.969   9.936  1.4223  1.1972  2.0583
 6840TIP3    H244716   0.774   0.943   9.948  1.0429  0.5989 -2.3135
 6841TIP3   OH244717   1.492   3.431   9.854  0.3228 -0.0679 -0.0025
 6841TIP3    H144718   1.570   3.465   9.810  0.3418  0.9187  0.7675
 6841TIP3    H244719   1.512   3.339   9.872  0.9387 -0.0610 -0.6278
 6842TIP3   OH244720   5.484   4.197  11.886  0.6300  0.4762 -0.1692
 6842TIP3    H144721   5.556   4.260  11.895  1.4590 -0.3007 -1.0615
 6842TIP3    H244722   5.479   4.180  11.792  0.5973 -0.9780  0.0760
 6843TIP3   OH244723   1.957   1.130  11.481 -0.0168 -0.4812 -0.2958
 6843TIP3    H144724   1.866   1.103  11.473  0.2482 -0.9096 -2.0410
 6843TIP3    H244725   2.003   1.053  11.513 -0.1310 -0.4943 -0.1629
 6844TIP3   OH244726   6.059   1.248  11.849 -0.1224 -0.0000 -0.2266
 6844TIP3    H144727   6.061   1.286  11.937 -1.5782  2.6323 -1.2233
 6844TIP3    H244728   5.970   1.213  11.840 -1.0616  2.5507 -1.6455
 6845TIP3   OH244729   6.400   2.494  11.546  0.1657  0.1035  1.0124
 6845TIP3    H144730   6.388   2.589  11.544 -1.9263 -0.1041  0.8408
 6845TIP3    H244731   6.462   2.479  11.617  1.0015  1.6116  0.6598
 6846TIP3   OH244732   0.044   5.732   9.998  0.0436  0.2232  0.1433
 6846TIP3    H144733   0.091   5.657  10.034 -0.6221 -0.4819 -0.4219
 6846TIP3    H244734  -0.029   5.694   9.949 -0.4956  1.2537  0.1085
 6847TIP3   OH244735   5.353   2.399   9.756  0.3948  0.2175 -0.0148
 6847TIP3    H144736   5.423   2.458   9.729  0.8400  0.3740  1.4312
 6847TIP3    H244737   5.389   2.351   9.830 -0.1377 -1.5347 -0.8280
 6848TIP3   OH244738   0.497   5.670  11.113  0.1040  0.0502 -0.1639
 6848TIP3    H144739   0.491   5.662  11.018  1.0427 -1.0840 -0.1451
 6848TIP3    H244740   0.442   5.600  11.147 -1.9650  1.7363  0.2048
 6849TIP3   OH244741   2.822   1.058  10.410  0.2185  0.4504  0.1538
 6849TIP3    H144742   2.793   0.968  10.422 -3.1811  1.2628 -0.8925
 6849TIP3    H244743   2.805   1.101  10.494 -1.7678  0.9030 -0.4305
 6850TIP3   OH244744   5.847   3.813  12.036  0.1392  0.4482  0.3323
 6850TIP3    H144745   5.762   3.771  12.035  0.7852 -0.9482  0.9653
 6850TIP3    H244746   5.855   3.854  11.950 -0.3131 -1.2123 -0.5351
 6851TIP3   OH244747   2.087   5.553  10.182  0.2880 -0.1298  0.4595
 6851TIP3    H144748   2.092   5.639  10.141 -2.3950  0.3080  0.8683
 6851TIP3    H244749   2.026   5.504  10.128 -0.4706 -0.7754  1.8433
 6852TIP3   OH244750   0.425   4.346   9.501  0.0057  0.3601 -0.0372
 6852TIP3    H144751   0.415   4.412   9.569  0.6369  0.8805 -0.4384
 6852TIP3    H244752   0.434   4.396   9.420 -1.5768 -0.2580 -0.6380
 6853TIP3   OH244753   2.584   1.970  10.596  0.2115  0.2153 -0.1562
 6853TIP3    H144754   2.612   1.881  10.573 -0.7781 -0.2122  0.2340
 6853TIP3    H244755   2.517   1.991  10.532 -0.3656  0.2283  0.4410
 6854TIP3   OH244756   3.371   6.465   9.647  1.0036 -0.1017  0.4318
 6854TIP3    H144757   3.356   6.538   9.707  1.0964  0.5528 -0.3245
 6854TIP3    H244758   3.462   6.476   9.617  0.8206 -0.1700 -0.1614
 6855TIP3   OH244759   5.761   4.538  12.752 -0.0921 -0.5660 -0.6237
 6855TIP3    H144760   5.753   4.444  12.768 -0.3317 -0.3684  0.5525
 6855TIP3    H244761   5.673   4.573  12.766  0.4083  0.1106  1.2554
 6856TIP3   OH244762   6.551   3.428   9.829  0.4602  0.4437  0.0598
 6856TIP3    H144763   6.631   3.397   9.786  0.1397  1.0426 -1.0113
 6856TIP3    H244764   6.500   3.467   9.758 -0.9743 -0.2936  0.6551
 6857TIP3   OH244765   3.738   0.720  10.772 -0.0693  0.4060  0.0346
 6857TIP3    H144766   3.782   0.740  10.854  0.8510 -1.3118  0.0046
 6857TIP3    H244767   3.647   0.703  10.797 -0.0353  0.9302  0.5316
 6858TIP3   OH244768   2.518   2.916  10.413 -0.0411 -0.1556 -0.2957
 6858TIP3    H144769   2.454   2.879  10.474 -0.4728  4.3196  2.4667
 6858TIP3    H244770   2.600   2.871  10.433 -0.6210 -0.2177  2.3070
 6859TIP3   OH244771   4.788   6.404  13.349  0.0599  0.0326  0.2319
 6859TIP3    H144772   4.797   6.320  13.304  0.3802 -0.6548  1.5190
 6859TIP3    H244773   4.696   6.407  13.376 -0.3675  0.8632 -1.2042
 6860TIP3   OH244774   1.798   5.568  11.888  0.4828  0.1187  0.0237
 6860TIP3    H144775   1.731   5.502  11.867  0.7012  0.0496 -0.4724
 6860TIP3    H244776   1.854   5.571  11.810  0.9026  0.3704  0.3323
 6861TIP3   OH244777   4.125   3.688  10.077  0.0837  0.0233 -0.0100
 6861TIP3    H144778   4.204   3.655  10.034  1.6523 -0.1935  2.8316
 6861TIP3    H244779   4.148   3.776  10.106  0.5172 -1.1335  3.5653
 6862TIP3   OH244780   5.354   0.902  11.361  0.2173  0.6811 -0.0262
 6862TIP3    H144781   5.417   0.937  11.424 -0.1505 -0.5767  1.1043
 6862TIP3    H244782   5.403   0.836  11.312  0.5913  1.8925 -1.3191
 6863TIP3   OH244783   0.852   5.433  10.336  0.1725 -0.2523  0.0754
 6863TIP3    H144784   0.869   5.505  10.275 -1.1905  0.9982  1.0831
 6863TIP3    H244785   0.758   5.417  10.327  0.3254 -1.4320  0.4137
 6864TIP3   OH244786   4.952   0.158  10.915 -0.2256 -0.0224 -0.1818
 6864TIP3    H144787   4.873   0.126  10.871 -1.0058 -0.8034  1.7052
 6864TIP3    H244788   4.920   0.199  10.996  1.2119  0.8578 -0.0153
 6865TIP3   OH244789   1.965   0.811  10.202  0.5253  0.2080  0.0436
 6865TIP3    H144790   1.872   0.811  10.225  0.6347  0.1508  0.4856
 6865TIP3    H244791   1.987   0.904  10.193  0.7204  0.2811  1.1501
 6866TIP3   OH244792   2.653   3.461  12.757 -0.1875 -0.5334  0.3144
 6866TIP3    H144793   2.711   3.485  12.829  1.3426  0.4082 -1.1703
 6866TIP3    H244794   2.666   3.367  12.746  1.6849 -0.2290 -0.4547
 6867TIP3   OH244795   6.633   0.318  11.438  0.2996  0.4015  0.5387
 6867TIP3    H144796   6.555   0.271  11.409  0.9595 -0.8588  0.7314
 6867TIP3    H244797   6.615   0.340  11.529  0.0837  0.3148  0.5173
 6868TIP3   OH244798   0.093   4.900   9.776 -0.6767  0.4455 -0.4629
 6868TIP3    H144799   0.178   4.861   9.799 -1.2963  0.3919  1.9946
 6868TIP3    H244800   0.061   4.847   9.703 -0.0033 -1.5995  0.6423
 6869TIP3   OH244801   0.876   0.835  10.239  0.2376 -0.4171 -0.0224
 6869TIP3    H144802   0.863   0.885  10.158 -1.6053 -1.7216 -0.5771
 6869TIP3    H244803   0.799   0.854  10.291 -0.3147 -2.3681 -0.0869
 6870TIP3   OH244804   6.345   1.858  11.037 -0.3465  0.2643 -0.3480
 6870TIP3    H144805   6.296   1.896  10.964 -0.4845 -1.0909 -0.9768
 6870TIP3    H244806   6.432   1.898  11.031 -0.7637  1.1986 -0.4046
 6871TIP3   OH244807   5.404   0.268  12.305 -0.1840 -0.1656  0.1371
 6871TIP3    H144808   5.467   0.341  12.304 -0.7297  0.3119  0.4940
 6871TIP3    H244809   5.398   0.242  12.213  1.3174 -0.9114  0.2100
 6872TIP3   OH244810   4.959   1.149  10.546  0.0259  0.0325  0.3215
 6872TIP3    H144811   4.930   1.073  10.595  0.2349 -0.2264  0.0442
 6872TIP3    H244812   4.883   1.176  10.495  0.1637 -0.4299 -0.1329
 6873TIP3   OH244813   6.651   2.472  10.990  0.0402  0.0663  0.2545
 6873TIP3    H144814   6.632   2.379  10.978  0.7532  0.0732 -0.9850
 6873TIP3    H244815   6.614   2.492  11.076  0.0698 -1.4096  0.6426
 6874TIP3   OH244816   0.001   1.518  10.919  0.3444 -0.2194  0.3507
 6874TIP3    H144817  -0.063   1.448  10.938  1.2116 -1.3645 -0.7883
 6874TIP3    H244818   0.065   1.510  10.990 -0.2777  0.3434  0.9929
 6875TIP3   OH244819   3.775   2.799  10.004 -0.6974  0.0523  0.1184
 6875TIP3    H144820   3.764   2.802   9.909  1.4006 -0.5272 -0.1930
 6875TIP3    H244821   3.811   2.712  10.021 -1.8778 -0.1962  1.5772
 6876TIP3   OH244822   4.057   4.535  10.787 -0.5166 -0.7868 -0.0316
 6876TIP3    H144823   4.076   4.468  10.852 -0.1848 -2.5546 -1.8384
 6876TIP3    H244824   3.972   4.510  10.750 -0.8226  0.3211 -0.1124
 6877TIP3   OH244825   6.263   4.055   9.387 -0.5280  0.1114 -0.1383
 6877TIP3    H144826   6.330   4.081   9.324  1.1171  0.8292  1.7941
 6877TIP3    H244827   6.207   4.132   9.396  0.4237  0.7325  0.7005
 6878TIP3   OH244828   5.451   5.432  11.233 -0.0388  0.0339 -0.4095
 6878TIP3    H144829   5.435   5.351  11.282 -2.3650  0.7857  0.2080
 6878TIP3    H244830   5.363   5.466  11.213  0.7673  3.3149  0.9211
 6879TIP3   OH244831   0.802   3.143  11.787 -0.4459  0.3349 -0.0166
 6879TIP3    H144832   0.822   3.049  11.787  1.5382  0.7161  0.4954
 6879TIP3    H244833   0.808   3.168  11.879 -0.7757  1.0190 -0.1769
 6880TIP3   OH244834   2.767   3.392  10.252  0.1158  0.4169  0.3005
 6880TIP3    H144835   2.856   3.428  10.260  0.2331  0.3280 -0.5134
 6880TIP3    H244836   2.775   3.326  10.183 -0.9671  1.6630 -1.0695
 6881TIP3   OH244837   4.870   1.042  11.011 -0.4505  0.1636 -0.1085
 6881TIP3    H144838   4.877   0.953  10.976  0.9305  0.7512 -1.4541
 6881TIP3    H244839   4.777   1.065  11.000 -0.4578 -0.4438 -1.4994
 6882TIP3   OH244840   6.342   2.870  10.145  0.1031  0.6200  0.3482
 6882TIP3    H144841   6.286   2.817  10.202 -0.3686 -1.4250 -1.8509
 6882TIP3    H244842   6.381   2.935  10.203  0.4204 -1.8961  3.2139
 6883TIP3   OH244843   1.505   5.309  10.012 -0.0771 -0.4864 -0.3044
 6883TIP3    H144844   1.413   5.328  10.029  0.1594 -0.5217  1.1559
 6883TIP3    H244845   1.506   5.218   9.984 -0.4711 -0.5352 -0.1628
 6884TIP3   OH244846   4.776   2.174   9.845 -0.1687 -0.1453  0.2125
 6884TIP3    H144847   4.822   2.107   9.793  0.0369 -0.7079  1.0921
 6884TIP3    H244848   4.840   2.243   9.857  1.1614 -1.6653  2.8957
 6885TIP3   OH244849   2.673   5.515  12.639  0.6041  0.1629 -0.1148
 6885TIP3    H144850   2.586   5.515  12.598  1.0131  0.0242 -1.0069
 6885TIP3    H244851   2.656   5.537  12.730 -0.4540 -0.6749 -0.0870
 6886TIP3   OH244852   2.066   4.200  11.594 -0.1377  0.0248  0.3959
 6886TIP3    H144853   2.057   4.226  11.503  0.1420  0.0313  0.3691
 6886TIP3    H244854   1.976   4.192  11.626 -0.2517  1.7433  0.6023
 6887TIP3   OH244855   4.215   1.662   9.744 -0.3896  0.3094 -0.2731
 6887TIP3    H144856   4.245   1.724   9.678 -0.7802  0.1209 -0.6311
 6887TIP3    H244857   4.218   1.577   9.699 -0.8704  0.2096 -0.1164
 6888TIP3   OH244858   4.041   3.424  11.609 -0.0279  0.0461  0.2009
 6888TIP3    H144859   4.111   3.488  11.622 -0.1028 -0.1215  1.4850
 6888TIP3    H244860   4.048   3.365  11.684 -0.7903 -0.6825 -0.2905
 6889TIP3   OH244861   0.666   3.155  10.039  0.1416 -0.0908  0.3112
 6889TIP3    H144862   0.659   3.237  10.087  0.5637 -0.4390  0.9713
 6889TIP3    H244863   0.744   3.165   9.984 -0.8908  0.6890 -1.0652
 6890TIP3   OH244864   5.482   1.962   9.989 -0.0058 -0.2409  0.3819
 6890TIP3    H144865   5.561   2.002   9.952  0.4458 -3.1324 -2.1614
 6890TIP3    H244866   5.514   1.911  10.064  0.2550 -0.0031  0.4329
 6891TIP3   OH244867   3.058   5.813  10.159 -0.3400 -0.1345  0.1417
 6891TIP3    H144868   3.068   5.898  10.202 -0.1693 -0.9440  1.7673
 6891TIP3    H244869   3.010   5.832  10.078 -0.0283  1.5380  0.3217
 6892TIP3   OH244870   4.330   3.671  10.901 -0.0976  0.5242 -0.1616
 6892TIP3    H144871   4.424   3.652  10.896  0.6846  3.6071  0.6045
 6892TIP3    H244872   4.289   3.603  10.848  2.2058 -2.8445  1.9744
 6893TIP3   OH244873   0.982   2.841  12.021 -0.0725  0.5556 -0.7096
 6893TIP3    H144874   0.892   2.812  12.008  0.1191 -0.1801 -0.4780
 6893TIP3    H244875   1.022   2.835  11.935 -0.2224  0.8003 -0.7964
 6894TIP3   OH244876   6.178   4.107  10.730  0.1805  0.3928 -0.2937
 6894TIP3    H144877   6.092   4.080  10.698 -0.0468 -0.5599  1.0528
 6894TIP3    H244878   6.227   4.025  10.738 -0.0017  0.4693  2.3644
 6895TIP3   OH244879   5.479   1.851  11.106  0.0545  0.2484 -0.1995
 6895TIP3    H144880   5.508   1.936  11.138 -1.8134  0.9519 -0.2082
 6895TIP3    H244881   5.399   1.834  11.156  1.2986 -2.3524  1.0789
 6896TIP3   OH244882   0.092   4.249  12.180  0.3827 -0.4228  0.5592
 6896TIP3    H144883   0.009   4.297  12.189  0.2119 -0.8354  1.3423
 6896TIP3    H244884   0.143   4.300  12.117 -0.2001  0.2091  0.5843
 6897TIP3   OH244885   1.233   2.317  11.499 -0.2349 -0.5896  0.4485
 6897TIP3    H144886   1.326   2.304  11.517  0.0563 -1.2983 -1.4006
 6897TIP3    H244887   1.231   2.364  11.416 -1.5335  0.4476  1.0235
 6898TIP3   OH244888   3.960   2.723   9.790 -0.0499  0.9132  0.2748
 6898TIP3    H144889   3.982   2.815   9.800  0.4616  0.7737  0.4299
 6898TIP3    H244890   3.993   2.681   9.869  0.1740  0.5155 -0.0232
 6899TIP3   OH244891   0.309   3.883   9.885  0.0923  0.0421 -0.2158
 6899TIP3    H144892   0.404   3.894   9.887  0.0237  0.6318  2.2491
 6899TIP3    H244893   0.295   3.815   9.818  2.5032 -2.1980  1.3397
 6900TIP3   OH244894   6.118   5.219  10.392  0.7689 -0.3488 -0.2469
 6900TIP3    H144895   6.157   5.181  10.471  0.8171  0.9102  0.3541
 6900TIP3    H244896   6.191   5.257  10.345  0.3609  2.1720  0.9656
 6901TIP3   OH244897   5.849   2.973  11.115  0.3586  0.1697 -0.1695
 6901TIP3    H144898   5.818   3.049  11.164  0.1183  0.0299 -0.0984
 6901TIP3    H244899   5.944   2.975  11.125  0.2239 -0.8808  1.8979
 6902TIP3   OH244900   5.907   3.364  10.702 -0.2238  0.7471  0.5380
 6902TIP3    H144901   5.961   3.295  10.742  0.8677  1.1142 -0.2543
 6902TIP3    H244902   5.821   3.352  10.741  0.0091 -0.9044  0.6131
 6903TIP3   OH244903   6.395   6.669  10.655 -0.0875 -0.6009 -0.4205
 6903TIP3    H144904   6.421   6.694  10.744 -1.6505  0.8271 -0.3217
 6903TIP3    H244905   6.323   6.607  10.667  0.7384 -1.6430 -0.7081
 6904TIP3   OH244906   4.471   0.120  12.625  0.5139 -0.4388  0.3201
 6904TIP3    H144907   4.470   0.150  12.716  2.6978 -0.9410  0.5590
 6904TIP3    H244908   4.457   0.199  12.574 -2.0069 -0.3169  1.0466
 6905TIP3   OH244909   3.553   5.811  11.022 -0.5053  0.3828 -0.1139
 6905TIP3    H144910   3.540   5.859  10.940 -2.0980  0.9605  0.4404
 6905TIP3    H244911   3.609   5.737  10.997 -1.0058  0.5023 -1.7483
 6906TIP3   OH244912   4.449   5.372  10.240 -0.0408 -0.0782 -0.1643
 6906TIP3    H144913   4.488   5.451  10.205 -1.4134  0.3994 -0.6511
 6906TIP3    H244914   4.356   5.393  10.252 -0.4125 -1.5654 -0.1897
 6907TIP3   OH244915   5.678   4.133   9.986 -0.1312 -0.5296  0.0550
 6907TIP3    H144916   5.714   4.046   9.970 -0.1987 -0.4158 -0.7117
 6907TIP3    H244917   5.677   4.175   9.901 -0.9074 -0.0861  0.2735
 6908TIP3   OH244918   2.428   2.236  11.932  0.0769 -0.2603 -0.1041
 6908TIP3    H144919   2.451   2.159  11.880 -2.5999 -0.3557 -1.3599
 6908TIP3    H244920   2.436   2.309  11.871 -1.2659 -0.1255 -0.1540
 6909TIP3   OH244921   5.505   4.605  12.099 -0.1289 -0.4196  0.3489
 6909TIP3    H144922   5.474   4.693  12.077 -0.5045 -0.3930  0.9797
 6909TIP3    H244923   5.533   4.612  12.190  0.3731 -0.8152  0.2268
 6910TIP3   OH244924   2.425   6.065  13.047  0.3091 -0.2201 -0.4655
 6910TIP3    H144925   2.424   6.102  13.136  1.9500 -0.2734 -0.3893
 6910TIP3    H244926   2.375   6.127  12.995 -0.2620  0.0705  0.3991
 6911TIP3   OH244927   3.266   3.122  11.427  0.5015  0.0105  1.0134
 6911TIP3    H144928   3.328   3.127  11.354  0.1893 -1.2059  0.6408
 6911TIP3    H244929   3.295   3.191  11.488  1.1960  0.5678  0.0805
 6912TIP3   OH244930   1.881   5.481  11.333 -0.1098 -0.0221  0.3776
 6912TIP3    H144931   1.866   5.548  11.400 -0.5804  2.0638 -1.6656
 6912TIP3    H244932   1.794   5.465  11.296  0.3406  0.1030 -0.7889
 6913TIP3   OH244933   5.119   0.728  10.888 -0.4896 -0.0290  0.0813
 6913TIP3    H144934   5.164   0.697  10.809 -0.5032 -0.0262  0.0723
 6913TIP3    H244935   5.138   0.821  10.891  0.7509 -0.2807  0.8893
 6914TIP3   OH244936   0.985   0.049  12.198 -0.2536  0.1860 -0.0381
 6914TIP3    H144937   0.974   0.050  12.103  0.4671  1.9483 -0.1387
 6914TIP3    H244938   1.000  -0.043  12.219 -4.1775 -0.8783 -1.1168
 6915TIP3   OH244939   1.699   2.599  12.491  0.0990 -0.1041  0.2207
 6915TIP3    H144940   1.696   2.516  12.539  0.5260  0.2361  0.8601
 6915TIP3    H244941   1.614   2.640  12.508  0.6010  0.4708  1.5706
 6916TIP3   OH244942   6.666   0.451  12.910  0.3713 -0.9935 -0.8258
 6916TIP3    H144943   6.695   0.531  12.953 -1.6627 -0.6683  0.0936
 6916TIP3    H244944   6.651   0.389  12.981  2.5654 -2.4818 -1.5672
 6917TIP3   OH244945   2.466   3.214  12.559 -0.1257  0.6947  0.1918
 6917TIP3    H144946   2.500   3.303  12.548  1.2243  0.2217  0.3417
 6917TIP3    H244947   2.434   3.189  12.473 -1.4149  1.6577  0.3594
 6918TIP3   OH244948   3.542   6.259  11.624  0.1450 -0.2798  0.2935
 6918TIP3    H144949   3.514   6.219  11.541  1.4418  2.1501 -1.4182
 6918TIP3    H244950   3.609   6.199  11.658 -0.4217 -1.3238 -0.3615
 6919TIP3   OH244951   3.844   6.489   9.399 -0.1576 -0.1065  0.4546
 6919TIP3    H144952   3.833   6.464   9.307 -1.4788 -0.1167  0.5983
 6919TIP3    H244953   3.939   6.488   9.413  0.1883  1.5004 -1.3525
 6920TIP3   OH244954   0.620   1.730  11.978 -0.0948  0.1561  0.6010
 6920TIP3    H144955   0.623   1.703  12.070  3.0039  0.8463  0.8195
 6920TIP3    H244956   0.664   1.815  11.976 -1.2276  0.7662 -1.3713
 6921TIP3   OH244957   5.638   4.237  10.571 -0.7278  0.5155 -0.1989
 6921TIP3    H144958   5.639   4.324  10.532  0.1429  0.8351  0.5128
 6921TIP3    H244959   5.570   4.241  10.638 -1.3651  0.3419 -0.8263
 6922TIP3   OH244960   6.144   2.607  11.885  1.1786 -0.5360  0.3361
 6922TIP3    H144961   6.189   2.531  11.922  0.2317 -0.4727  1.7024
 6922TIP3    H244962   6.127   2.663  11.960 -2.3931 -1.1973  0.1989
 6923TIP3   OH244963   5.322   4.862   9.854  0.4516  0.6068  1.0186
 6923TIP3    H144964   5.381   4.937   9.847 -1.7951  2.7917  3.4519
 6923TIP3    H244965   5.255   4.879   9.788  1.7777 -1.2888 -0.9558
 6924TIP3   OH244966   4.566   5.161   9.615  0.2796  0.2391 -0.1815
 6924TIP3    H144967   4.493   5.105   9.588  0.4136  0.4453 -1.0157
 6924TIP3    H244968   4.620   5.106   9.670 -0.6048  0.1372  0.6037
 6925TIP3   OH244969   5.779   0.663  13.436 -0.4725 -0.3989  0.0428
 6925TIP3    H144970   5.822   0.578  13.439  3.2739  1.2925  0.0941
 6925TIP3    H244971   5.779   0.686  13.343 -0.8827 -0.1654  0.0983
 6926TIP3   OH244972   2.086   2.127  11.205  0.2397  0.0017 -0.5831
 6926TIP3    H144973   2.031   2.079  11.267  0.5650  0.9630  0.4759
 6926TIP3    H244974   2.050   2.216  11.205  0.4993  0.1107 -1.4747
 6927TIP3   OH244975   3.642   4.609  10.946  0.2004 -0.0421 -0.4739
 6927TIP3    H144976   3.617   4.542  11.009  0.0479  1.1680  0.7985
 6927TIP3    H244977   3.582   4.682  10.964  1.6174  1.1619 -0.4815
 6928TIP3   OH244978   3.660   4.655  13.010 -0.5461  0.2141 -0.4402
 6928TIP3    H144979   3.674   4.639  13.103  0.3689  0.1564 -0.5791
 6928TIP3    H244980   3.706   4.582  12.966 -0.7321  0.3925 -0.9377
 6929TIP3   OH244981   5.490   1.138  10.799 -0.0993 -0.0006  0.0318
 6929TIP3    H144982   5.498   1.216  10.743 -0.6564 -1.6901 -2.6005
 6929TIP3    H244983   5.396   1.120  10.802  0.1016 -1.2122 -0.4188
 6930TIP3   OH244984   5.490   0.284  11.764 -0.1324  0.3935 -0.1796
 6930TIP3    H144985   5.532   0.366  11.792 -0.7308  0.3838  0.7862
 6930TIP3    H244986   5.401   0.290  11.798 -0.2252 -0.5995 -0.2376
 6931TIP3   OH244987   4.903   1.382  11.265  0.2390 -0.2005  0.2802
 6931TIP3    H144988   4.809   1.402  11.261  0.8730  3.3262  0.4770
 6931TIP3    H244989   4.921   1.372  11.358  0.2717  0.3796  0.3387
 6932TIP3   OH244990   5.501   4.471  10.378 -0.0898  0.9710  0.7020
 6932TIP3    H144991   5.594   4.489  10.389  0.3637  0.3164 -1.4544
 6932TIP3    H244992   5.466   4.550  10.337  0.1947  0.1594 -1.2235
 6933TIP3   OH244993   0.703   1.603  11.270 -0.1622 -0.3359 -0.2383
 6933TIP3    H144994   0.730   1.573  11.357 -1.3009 -1.8386 -0.3847
 6933TIP3    H244995   0.784   1.634  11.230  0.9138 -2.2635  0.3183
 6934TIP3   OH244996   3.061   4.885  11.111  0.0550  0.5944  0.0300
 6934TIP3    H144997   2.999   4.823  11.073  0.7796 -1.8381  2.4237
 6934TIP3    H244998   3.011   4.930  11.179  0.3314  0.1888  0.5143
 6935TIP3   OH244999   2.580   5.913  12.585 -0.1136  0.5079  0.2155
 6935TIP3    H145000   2.649   5.959  12.633  0.7844  0.5853 -1.0962
 6935TIP3    H245001   2.612   5.910  12.495 -0.6161 -1.7641  0.0546
 6936TIP3   OH245002   6.226   5.032  13.052 -0.1090  0.0932  0.4297
 6936TIP3    H145003   6.168   4.984  12.994 -0.6442  1.0881  0.1279
 6936TIP3    H245004   6.168   5.086  13.106  0.3918 -0.6173  1.7307
 6937TIP3   OH245005   1.419   3.603  10.870  0.4209 -0.4183 -0.1448
 6937TIP3    H145006   1.457   3.678  10.825  1.6009  0.4623  2.1579
 6937TIP3    H245007   1.443   3.527  10.817 -0.0088  0.7034 -2.0239
 6938TIP3   OH245008   2.552   6.411  11.641 -0.3817  0.2017  0.3646
 6938TIP3    H145009   2.593   6.486  11.599  0.3440 -0.0268  0.6484
 6938TIP3    H245010   2.499   6.371  11.572 -0.2574  0.5983  0.0365
 6939TIP3   OH245011   1.561   5.803   9.857 -0.1999 -0.2643 -0.0881
 6939TIP3    H145012   1.533   5.711   9.857  0.3247 -0.4360  0.7669
 6939TIP3    H245013   1.639   5.805   9.912 -0.5173  0.7848  0.3655
 6940TIP3   OH245014   2.858   3.236   9.588 -0.0653 -0.2526  0.2512
 6940TIP3    H145015   2.923   3.253   9.657  0.9774  1.0668 -0.9835
 6940TIP3    H245016   2.797   3.310   9.594 -0.1346 -0.2843 -0.0519
 6941TIP3   OH245017   2.688   3.828   9.604 -0.1841  0.4182  0.2725
 6941TIP3    H145018   2.608   3.811   9.653  0.7054  0.4099  1.7968
 6941TIP3    H245019   2.732   3.743   9.599  0.7005  0.7920  1.3039
 6942TIP3   OH245020   4.440   2.519  10.518 -0.2285  0.0347  0.4202
 6942TIP3    H145021   4.503   2.540  10.449 -1.5293  0.2514 -0.7445
 6942TIP3    H245022   4.370   2.583  10.507 -0.9566 -0.5912  1.2855
 6943TIP3   OH245023   4.946   5.159  12.402 -0.2928  0.1372  0.1513
 6943TIP3    H145024   5.041   5.169  12.405 -0.1459 -1.2409  0.4462
 6943TIP3    H245025   4.927   5.089  12.464 -1.6393  1.2300  1.0553
 6944TIP3   OH245026   4.478   1.994  11.515 -0.2783 -0.2531  0.7213
 6944TIP3    H145027   4.485   1.979  11.610  1.0542  0.0805  0.6945
 6944TIP3    H245028   4.510   2.083  11.503  0.3130 -0.5806 -0.1402
 6945TIP3   OH245029   0.965   1.448  11.119  0.1042  0.0914 -0.3140
 6945TIP3    H145030   1.036   1.416  11.063 -0.8285  0.6363 -1.8954
 6945TIP3    H245031   0.932   1.526  11.073 -0.2421  0.9903  1.3951
 6946TIP3   OH245032   5.071   2.256  12.863  0.6317 -0.4245 -0.2736
 6946TIP3    H145033   5.015   2.314  12.915 -0.1881 -0.1947 -1.3803
 6946TIP3    H245034   5.096   2.186  12.924 -0.9459 -0.5789  0.2510
 6947TIP3   OH245035   4.912   6.574  13.066  0.6304  1.0398  0.7031
 6947TIP3    H145036   4.934   6.481  13.063 -1.3822  0.5443 -1.5511
 6947TIP3    H245037   4.961   6.613  12.994 -1.0126  1.0438 -0.4729
 6948TIP3   OH245038   3.622   5.269   9.749  0.5857 -0.1442 -0.5102
 6948TIP3    H145039   3.701   5.321   9.764  0.1198 -0.0252  1.9729
 6948TIP3    H245040   3.653   5.179   9.745  0.8871 -0.1141  0.6439
 6949TIP3   OH245041   4.103   3.225  10.549 -0.0020  0.1016  0.4712
 6949TIP3    H145042   4.036   3.233  10.617  1.2400  2.5299  1.5375
 6949TIP3    H245043   4.182   3.200  10.596  0.1265 -1.7683 -0.6387
 6950TIP3   OH245044   4.430   0.536  11.747 -0.3358 -1.1267  0.3534
 6950TIP3    H145045   4.482   0.611  11.776  0.5093 -1.5691  0.0262
 6950TIP3    H245046   4.396   0.498  11.828 -0.1281 -0.8359  0.5791
 6951TIP3   OH245047   0.174   3.012  11.326 -0.2885 -0.3099  0.0749
 6951TIP3    H145048   0.102   2.953  11.346 -0.5864 -0.2440 -0.7503
 6951TIP3    H245049   0.141   3.066  11.254  0.6828 -0.4682 -0.5087
 6952TIP3   OH245050   6.056   4.264  10.386 -0.0951 -0.5854 -0.0405
 6952TIP3    H145051   6.005   4.217  10.451  0.7146  1.3700  2.1439
 6952TIP3    H245052   6.141   4.219  10.384 -0.0187 -0.4643  0.4900
 6953TIP3   OH245053   3.431   4.115   9.628 -0.4129  0.2162 -0.2583
 6953TIP3    H145054   3.375   4.117   9.551  0.3544  0.5946 -0.8214
 6953TIP3    H245055   3.439   4.206   9.655  1.9698  0.5323 -1.7317
 6954TIP3   OH245056   1.129   1.052   9.415 -0.5623 -0.1251  0.0880
 6954TIP3    H145057   1.105   1.120   9.352 -0.4368 -0.2877 -0.1403
 6954TIP3    H245058   1.204   1.088   9.461 -1.3393  0.4591  0.9281
 6955TIP3   OH245059   2.907   1.613  12.219 -0.0022  0.5140 -0.3410
 6955TIP3    H145060   2.969   1.680  12.248  1.6959 -0.5959 -1.1848
 6955TIP3    H245061   2.955   1.531  12.228 -1.4401 -0.4277 -0.8495
 6956TIP3   OH245062   5.785   2.742  12.104 -0.5545  0.4031  0.3813
 6956TIP3    H145063   5.788   2.835  12.124  1.0984  0.3088  0.7268
 6956TIP3    H245064   5.778   2.699  12.189  0.0576  0.1913  0.3322
 6957TIP3   OH245065   4.294   1.702  10.993 -0.3667 -0.0020  1.0779
 6957TIP3    H145066   4.291   1.795  11.016 -1.7767 -0.0598  1.2315
 6957TIP3    H245067   4.213   1.687  10.944 -0.3689 -1.2430  1.4292
 6958TIP3   OH245068   2.251   5.992  10.339 -0.5725 -0.6842  0.2241
 6958TIP3    H145069   2.319   5.938  10.380 -0.0642 -0.4736 -0.3126
 6958TIP3    H245070   2.194   6.020  10.411  0.2632 -0.3607  0.7710
 6959TIP3   OH245071   6.251   1.210  12.164  0.2075  0.1205  0.2200
 6959TIP3    H145072   6.219   1.195  12.253 -1.0732 -0.3549 -0.2936
 6959TIP3    H245073   6.195   1.279  12.130 -0.6066 -1.0195 -0.8537
 6960TIP3   OH245074   5.133   1.011  10.944  0.0450 -0.0197  0.1747
 6960TIP3    H145075   5.155   1.044  11.031  1.0429 -1.4615  0.5057
 6960TIP3    H245076   5.048   1.051  10.924  0.2943  1.1713  1.3382
 6961TIP3   OH245077   4.162   5.809  11.698  0.2612  0.0761  0.3801
 6961TIP3    H145078   4.255   5.792  11.716  1.4933  3.1184 -2.1871
 6961TIP3    H245079   4.140   5.884  11.754 -0.5501 -0.3782  0.6830
 6962TIP3   OH245080   1.960   0.734   9.929 -0.4415  0.9779  0.2252
 6962TIP3    H145081   1.956   0.723  10.024 -1.6483 -1.2489 -0.0027
 6962TIP3    H245082   1.956   0.828   9.915  1.7215  1.4842  2.4249
 6963TIP3   OH245083   3.710   6.258  10.744 -0.2339 -0.4619  0.1120
 6963TIP3    H145084   3.803   6.243  10.731 -0.3465 -2.2009  0.9501
 6963TIP3    H245085   3.694   6.346  10.711  1.3299 -0.8549 -1.8469
 6964TIP3   OH245086   5.172   1.245   9.972 -0.5379 -0.2522 -0.0522
 6964TIP3    H145087   5.115   1.282  10.040  0.7218 -0.8874  1.4147
 6964TIP3    H245088   5.260   1.251  10.009 -0.1282 -3.5626 -0.1885
 6965TIP3   OH245089   5.005   2.587  10.239 -0.1906  0.2147  0.2367
 6965TIP3    H145090   5.037   2.600  10.150 -1.1154  2.4992  0.1423
 6965TIP3    H245091   4.988   2.493  10.246  0.7773 -0.1454 -1.6733
 6966TIP3   OH245092   4.349   1.417  11.320 -0.4120 -0.0760  0.1157
 6966TIP3    H145093   4.298   1.402  11.399 -1.4510 -0.0093 -0.5153
 6966TIP3    H245094   4.423   1.357  11.327 -0.7100 -0.3669  0.9362
 6967TIP3   OH245095   5.485   5.035  12.583  0.3239  0.9852  0.3871
 6967TIP3    H145096   5.435   4.970  12.632  1.9531  0.1241  0.9771
 6967TIP3    H245097   5.484   5.113  12.639 -0.3617  0.9869  0.3776
 6968TIP3   OH245098   4.957   5.396  12.125 -0.5441  0.1035  0.0376
 6968TIP3    H145099   4.863   5.399  12.142 -0.5421  0.1955  0.0323
 6968TIP3    H245100   4.995   5.451  12.194 -0.4879 -0.0006  0.0894
 6969TIP3   OH245101   1.967   0.390  10.071 -0.2158 -0.8286 -0.4183
 6969TIP3    H145102   2.002   0.350   9.992  0.2442 -2.6648  0.6612
 6969TIP3    H245103   2.037   0.382  10.135 -0.6890  0.3599  0.2851
 6970TIP3   OH245104   2.163   0.704   9.728 -0.3132  0.1135 -0.0518
 6970TIP3    H145105   2.145   0.762   9.803  1.8445  0.0903  0.5692
 6970TIP3    H245106   2.095   0.638   9.732 -0.5718  0.4257  1.6028
 6971TIP3   OH245107   6.298   4.024  10.019 -0.4813  0.6983  0.0738
 6971TIP3    H145108   6.346   4.042  10.100 -0.8968 -0.1723  0.5161
 6971TIP3    H245109   6.349   3.955   9.976 -1.5896 -0.6255  0.8070
 6972TIP3   OH245110   5.759   5.160  11.499 -0.3850  0.2692 -0.1706
 6972TIP3    H145111   5.794   5.147  11.411  1.4321  0.6568  0.4408
 6972TIP3    H245112   5.759   5.255  11.511  1.3286  0.1936  0.9100
 6973TIP3   OH245113   1.247   3.138  10.587 -0.0718 -0.2172  0.1248
 6973TIP3    H145114   1.340   3.115  10.587 -0.2345 -0.9068  0.5423
 6973TIP3    H245115   1.241   3.215  10.643  0.0818 -0.9160  1.1210
 6974TIP3   OH245116   2.499   0.265  12.034 -0.8193 -0.2627  0.3932
 6974TIP3    H145117   2.509   0.336  12.097 -0.3680 -0.4519  0.5417
 6974TIP3    H245118   2.490   0.186  12.088 -1.0593 -0.3512  0.2263
 6975TIP3   OH245119   2.666   4.089  12.997 -0.0935 -0.2371  0.5958
 6975TIP3    H145120   2.609   4.063  12.925 -1.7782  2.7307  0.6951
 6975TIP3    H245121   2.644   4.029  13.069 -2.5352  0.2843  0.3525
 6976TIP3   OH245122   3.227   5.076  10.296  0.0788  0.5377 -0.1122
 6976TIP3    H145123   3.146   5.073  10.245 -0.6912 -3.2042  0.9822
 6976TIP3    H245124   3.199   5.061  10.386  1.9366 -0.5566  0.3290
 6977TIP3   OH245125   0.706   4.876   9.408  0.3754  0.7517 -0.4903
 6977TIP3    H145126   0.732   4.788   9.379 -2.1118 -0.1169 -0.3357
 6977TIP3    H245127   0.780   4.906   9.462  1.9735 -0.5458 -1.8299
 6978TIP3   OH245128   0.456   1.023  10.541  0.1096 -0.3920 -0.2923
 6978TIP3    H145129   0.414   1.108  10.556  0.1577 -0.8877  3.5984
 6978TIP3    H245130   0.383   0.964  10.522 -0.1959  0.0235 -0.4315
 6979TIP3   OH245131   6.415   1.795   9.796  0.0099  0.1546 -0.4968
 6979TIP3    H145132   6.419   1.809   9.701  0.6317 -0.3048 -0.5455
 6979TIP3    H245133   6.441   1.704   9.808  0.6269  0.4089  0.1665
 6980TIP3   OH245134   5.756   3.278  12.944 -0.5034  0.2632  0.3707
 6980TIP3    H145135   5.680   3.321  12.906 -0.1114  0.4355 -0.2252
 6980TIP3    H245136   5.807   3.350  12.983  0.1141  0.3416 -0.5592
 6981TIP3   OH245137   0.731   1.217  10.547 -1.0843  0.2278 -0.2768
 6981TIP3    H145138   0.686   1.260  10.620  0.0109  2.9008 -1.0380
 6981TIP3    H245139   0.735   1.284  10.479 -1.0178 -1.7869 -2.3924
 6982TIP3   OH245140   1.898   5.412  12.659  0.4323 -0.8081 -0.5172
 6982TIP3    H145141   1.942   5.497  12.655 -0.8812 -0.0236  0.7381
 6982TIP3    H245142   1.839   5.412  12.583  0.4591 -0.6122 -0.5396
 6983TIP3   OH245143   5.180   1.920  10.269  0.4427 -0.1522  1.2127
 6983TIP3    H145144   5.196   1.980  10.197 -1.5760 -0.7769  0.1384
 6983TIP3    H245145   5.159   1.976  10.343  0.0264  0.4996  0.6196
 6984TIP3   OH245146   2.161   5.244  12.576 -0.7678  0.6364  0.3989
 6984TIP3    H145147   2.180   5.180  12.645 -0.4242  2.0470  1.6580
 6984TIP3    H245148   2.073   5.275  12.596 -1.1547  0.1670 -0.5386
 6985TIP3   OH245149   6.140   5.215  12.204 -0.1735 -0.8197 -0.1362
 6985TIP3    H145150   6.202   5.286  12.221 -0.7435 -0.8569  2.4667
 6985TIP3    H245151   6.147   5.158  12.280 -0.9051 -2.7279 -1.4184
 6986TIP3   OH245152   4.654   0.633  12.181  0.5960  0.0335 -0.5805
 6986TIP3    H145153   4.723   0.586  12.228  1.3914 -0.9888 -2.6195
 6986TIP3    H245154   4.595   0.564  12.150  0.3047  0.6023 -1.3273
 6987TIP3   OH245155   3.001   3.608  10.952  0.0462 -0.0902 -0.4531
 6987TIP3    H145156   3.044   3.590  10.868 -1.3735  0.2171 -1.2768
 6987TIP3    H245157   3.006   3.703  10.962  1.9134 -0.2733  0.7893
 6988TIP3   OH245158   3.149   0.300  11.384 -0.4286 -0.2372  0.8079
 6988TIP3    H145159   3.233   0.327  11.421 -1.0820 -0.1604  2.3148
 6988TIP3    H245160   3.160   0.206  11.368 -0.4028 -0.4576  2.0342
 6989TIP3   OH245161   5.476   5.971  12.437  0.4604  0.1128  0.6302
 6989TIP3    H145162   5.544   6.035  12.460 -0.2913  0.5014  1.9042
 6989TIP3    H245163   5.403   5.993  12.495 -0.7999 -0.2348 -0.7772
 6990TIP3   OH245164   6.513   4.078  12.431 -0.2289 -0.1501 -0.0855
 6990TIP3    H145165   6.532   4.076  12.525  0.4972 -0.1959 -0.2314
 6990TIP3    H245166   6.524   4.169  12.407 -3.0410  0.3968  0.3873
 6991TIP3   OH245167   3.216   0.975  10.252 -0.0435  0.2772  0.0533
 6991TIP3    H145168   3.147   0.915  10.224 -0.8008  0.8164  0.7058
 6991TIP3    H245169   3.203   1.053  10.197  0.3851  0.1724 -0.1946
 6992TIP3   OH245170   5.218   4.272  11.853 -0.2257  0.4094 -0.7143
 6992TIP3    H145171   5.266   4.189  11.850 -1.5502 -0.4331  0.4067
 6992TIP3    H245172   5.278   4.335  11.813  0.3696 -1.2865 -2.6770
 6993TIP3   OH245173   5.207   3.955  11.783 -0.4852  0.1154  0.3373
 6993TIP3    H145174   5.248   3.907  11.711 -1.3889 -0.3711  0.1234
 6993TIP3    H245175   5.115   3.964  11.757 -0.1186  3.1565 -0.2458
 6994TIP3   OH245176   3.481   1.233  11.025  0.8271 -0.2747 -0.5273
 6994TIP3    H145177   3.421   1.172  10.982 -0.1432  1.1285 -1.2235
 6994TIP3    H245178   3.457   1.229  11.118 -1.0864  1.0152 -0.9165
 6995TIP3   OH245179   0.301   4.419  11.624 -0.3554 -0.1062  0.2427
 6995TIP3    H145180   0.347   4.336  11.610 -0.5410 -0.1213 -0.3459
 6995TIP3    H245181   0.321   4.470  11.546  0.2230  0.6341  0.8653
 6996TIP3   OH245182   4.654   5.587  11.591 -0.2996 -0.2448  0.7384
 6996TIP3    H145183   4.675   5.545  11.507  0.6263 -0.7545  1.2097
 6996TIP3    H245184   4.727   5.564  11.648  0.2015  1.9195  1.0696
 6997TIP3   OH245185   3.826   0.525  13.207 -0.2289  0.7690  0.3348
 6997TIP3    H145186   3.895   0.580  13.245  0.6153  0.8159 -1.1611
 6997TIP3    H245187   3.860   0.436  13.213 -0.2861  0.7314  0.1155
 6998TIP3   OH245188   0.078   6.560  12.146  0.1011  0.4181  0.2052
 6998TIP3    H145189   0.085   6.621  12.073 -0.4859 -0.2939 -0.4739
 6998TIP3    H245190   0.031   6.608  12.214 -0.1553  0.7912 -0.2293
 6999TIP3   OH245191   0.146   4.430  10.206 -0.4854  0.0110 -0.5420
 6999TIP3    H145192   0.204   4.356  10.191 -0.6275 -0.0982 -0.5518
 6999TIP3    H245193   0.057   4.394  10.197 -0.5764 -0.0612  0.4998
 7000TIP3   OH245194   6.105   2.907  10.847  0.4744 -0.2562  0.6630
 7000TIP3    H145195   6.093   2.991  10.804 -0.6285 -0.2561  0.9324
 7000TIP3    H245196   6.156   2.926  10.926  0.0071  0.2065  0.8555
 7001TIP3   OH245197   2.440   4.913  12.519 -0.1231 -0.3910  0.1051
 7001TIP3    H145198   2.490   4.835  12.540  0.8069 -0.0323 -0.7309
 7001TIP3    H245199   2.379   4.885  12.451 -0.9839 -0.7822  0.9992
 7002TIP3   OH245200   4.470   6.503   9.824  0.0558  0.3956  0.0738
 7002TIP3    H145201   4.512   6.456   9.752  0.6905 -0.9947  1.2910
 7002TIP3    H245202   4.519   6.584   9.832 -1.0732  1.3749 -2.0862
 7003TIP3   OH245203   1.394   5.151  11.095 -0.0350  0.0965  0.1199
 7003TIP3    H145204   1.373   5.120  11.183  0.1228  0.3840  0.2599
 7003TIP3    H245205   1.310   5.155  11.050 -0.2303  0.8630  0.5501
 7004TIP3   OH245206   2.910   2.773   9.342 -0.3276  0.4153  0.1492
 7004TIP3    H145207   2.926   2.862   9.375 -2.7751  1.2918 -0.8202
 7004TIP3    H245208   2.894   2.785   9.248  2.1999 -1.4824 -0.6250
 7005TIP3   OH245209   4.248   5.422   9.446 -0.3031  0.0446  0.4677
 7005TIP3    H145210   4.175   5.397   9.390  0.0381  0.9706 -0.4066
 7005TIP3    H245211   4.321   5.438   9.386  0.2822  0.3233  1.2297
 7006TIP3   OH245212   0.090   6.127  13.220 -0.0283  0.1342  0.1343
 7006TIP3    H145213   0.070   6.033  13.218  0.9021 -0.1308  2.0552
 7006TIP3    H245214   0.127   6.142  13.306  3.2426  1.5904 -1.3781
 7007TIP3   OH245215   4.343   5.518  11.488 -0.0061  0.5360 -0.0707
 7007TIP3    H145216   4.349   5.548  11.579  0.4771  1.0381 -0.2658
 7007TIP3    H245217   4.381   5.430  11.489  1.6460  1.2204 -0.1061
 7008TIP3   OH245218   2.021   0.884  11.626  0.4393 -0.4405 -0.4815
 7008TIP3    H145219   1.937   0.845  11.602 -0.0289  1.4145 -2.0836
 7008TIP3    H245220   2.010   0.906  11.719 -0.4935 -1.0195 -0.4277
 7009TIP3   OH245221   2.682   1.726  11.106 -0.0913  0.1840 -0.4867
 7009TIP3    H145222   2.703   1.686  11.021  0.6321  0.4106 -0.4176
 7009TIP3    H245223   2.683   1.820  11.089 -2.0913  0.2197 -0.7179
 7010TIP3   OH245224   0.757   4.163   9.639  0.1100  0.3897 -1.0532
 7010TIP3    H145225   0.847   4.134   9.625 -0.1585 -0.5612 -0.8871
 7010TIP3    H245226   0.733   4.128   9.725  0.0044  1.7425 -0.5043
 7011TIP3   OH245227   3.478   2.525  12.773  0.2672  0.2198  0.3916
 7011TIP3    H145228   3.473   2.430  12.779 -0.4780  0.2058 -0.2144
 7011TIP3    H245229   3.535   2.551  12.845  0.2597 -0.6634  0.7288
 7012TIP3   OH245230   1.616   6.615  10.634  0.3234 -0.0120  0.2746
 7012TIP3    H145231   1.644   6.604  10.725  0.2874  0.6366  0.3630
 7012TIP3    H245232   1.653   6.539  10.589  0.8828  0.0021  0.7008
 7013TIP3   OH245233   3.428   3.380  10.831 -0.3010 -0.0856  0.3155
 7013TIP3    H145234   3.512   3.408  10.796 -1.0897  0.8494 -0.9283
 7013TIP3    H245235   3.404   3.447  10.895  0.4458 -1.0124  1.6216
 7014TIP3   OH245236   0.364   4.850  12.608 -0.0116  0.1605 -0.3971
 7014TIP3    H145237   0.430   4.916  12.628 -0.4595  1.3365 -2.4673
 7014TIP3    H245238   0.366   4.843  12.512  0.2483 -3.1191 -0.2608
 7015TIP3   OH245239   5.197   4.616  10.004  0.1419 -0.1960 -0.3919
 7015TIP3    H145240   5.291   4.601   9.995 -0.0656 -1.1588 -1.2441
 7015TIP3    H245241   5.182   4.702   9.966  0.4544 -0.8174 -2.0303
 7016TIP3   OH245242   0.402   2.410  10.712  0.7349  0.5101  0.2973
 7016TIP3    H145243   0.368   2.495  10.685 -0.8152  0.0644  0.7219
 7016TIP3    H245244   0.445   2.428  10.796  1.2310  1.0290 -0.0609
 7017TIP3   OH245245   4.097   2.337  12.124  0.1517  0.0031 -0.0087
 7017TIP3    H145246   4.090   2.414  12.067  0.9496  0.0560 -0.0423
 7017TIP3    H245247   4.050   2.362  12.204 -3.1335 -0.9246 -1.4616
 7018TIP3   OH245248   0.450   0.477  10.385 -0.2105 -0.0517 -0.2348
 7018TIP3    H145249   0.489   0.412  10.327 -1.6218 -0.5563 -0.6674
 7018TIP3    H245250   0.495   0.558  10.364 -0.5770 -0.2524 -1.9676
 7019TIP3   OH245251   2.915   3.773  10.091  0.4244  0.3112  0.3031
 7019TIP3    H145252   2.928   3.702  10.153 -3.2593 -0.8725 -0.0532
 7019TIP3    H245253   2.837   3.820  10.122  0.0259  1.3125 -1.9497
 7020TIP3   OH245254   3.947   1.961  10.681  0.3288 -0.0512 -0.3408
 7020TIP3    H145255   3.917   1.893  10.621  0.0412 -0.1258 -0.1107
 7020TIP3    H245256   3.870   1.985  10.731  0.4571  0.3608 -0.3373
 7021TIP3   OH245257   5.138   5.455  11.708 -0.2091 -0.3474  0.2094
 7021TIP3    H145258   5.231   5.450  11.686 -0.5477 -2.2983 -1.0386
 7021TIP3    H245259   5.093   5.435  11.626 -1.7216  0.0417  0.9184
 7022TIP3   OH245260   5.088   3.188  10.726  1.2948  0.1894 -0.2903
 7022TIP3    H145261   5.131   3.250  10.666  1.3082  0.3791 -0.0845
 7022TIP3    H245262   5.101   3.103  10.685  1.3412  0.3146 -0.5385
 7023TIP3   OH245263   1.113   2.931  12.248 -0.2310  0.1896  0.3195
 7023TIP3    H145264   1.075   2.913  12.162 -0.8592  0.2758  0.5713
 7023TIP3    H245265   1.073   3.013  12.275  0.9400  0.8428  0.1439
 7024TIP3   OH245266   0.952   5.571  10.570 -0.3022 -0.4031 -0.0061
 7024TIP3    H145267   0.903   5.532  10.498 -0.9523 -0.4486  0.4531
 7024TIP3    H245268   0.887   5.621  10.619  0.0719 -0.6105  0.7140
 7025TIP3   OH245269   4.834   1.335   9.872  0.3831 -0.3054 -0.0672
 7025TIP3    H145270   4.764   1.270   9.863  0.4074 -0.5751  1.4513
 7025TIP3    H245271   4.791   1.410   9.912  0.1286  1.0670 -2.7027
 7026TIP3   OH245272   5.565   5.830  12.740 -0.4292 -0.5412  0.7598
 7026TIP3    H145273   5.558   5.786  12.655 -0.1505 -1.4212  1.1902
 7026TIP3    H245274   5.659   5.835  12.757 -0.4773 -0.1899  0.9377
 7027TIP3   OH245275   4.015   3.923  10.728  0.3264  0.1276  0.2346
 7027TIP3    H145276   4.032   3.915  10.634  1.0219  1.3594  0.2446
 7027TIP3    H245277   4.002   4.016  10.743 -1.1311 -0.1917  1.1581
 7028TIP3   OH245278   4.634   4.347   9.784  0.3978 -0.0299 -0.1156
 7028TIP3    H145279   4.704   4.283   9.770  0.3570 -0.3954  1.2325
 7028TIP3    H245280   4.559   4.310   9.736  0.7811 -0.2371 -0.5723
 7029TIP3   OH245281   4.782   5.155  12.180  0.5130 -0.2128 -0.4298
 7029TIP3    H145282   4.855   5.167  12.241  0.6317  0.6149 -0.7319
 7029TIP3    H245283   4.760   5.062  12.188  0.4180 -0.0893  0.9993
 7030TIP3   OH245284   2.044   4.965   9.615 -0.0804 -0.0030 -0.0316
 7030TIP3    H145285   2.002   4.927   9.693 -1.4578 -1.2267 -1.3119
 7030TIP3    H245286   2.126   4.915   9.607 -0.2295 -0.3093  0.2726
 7031TIP3   OH245287   4.648   5.380  12.188  0.0746 -0.3776  0.7392
 7031TIP3    H145288   4.557   5.370  12.215  0.2510 -1.4443  0.9906
 7031TIP3    H245289   4.680   5.291  12.175  0.7089  0.0113 -0.6396
 7032TIP3   OH245290   6.261   5.718  12.102  0.4712  0.1577  0.0471
 7032TIP3    H145291   6.271   5.637  12.053 -0.4147  0.8416 -1.3452
 7032TIP3    H245292   6.350   5.741  12.130  0.9246 -0.5414 -0.7809
 7033TIP3   OH245293   6.070   3.841   9.439 -0.1308 -0.1119  0.0192
 7033TIP3    H145294   6.083   3.815   9.530  0.1753  2.0854  0.6639
 7033TIP3    H245295   6.133   3.912   9.426  0.9060 -1.3572 -2.3937
 7034TIP3   OH245296   1.510   5.949  10.255  0.2293 -0.1316  0.8363
 7034TIP3    H145297   1.566   6.021  10.226  1.3651 -0.0150  3.1230
 7034TIP3    H245298   1.424   5.968  10.216  0.9115  1.5374  0.0507
 7035TIP3   OH245299   6.353   3.269  12.193 -0.3707  0.3236  0.5073
 7035TIP3    H145300   6.428   3.230  12.148 -2.2307 -2.2648 -0.5706
 7035TIP3    H245301   6.291   3.290  12.123 -1.0252  1.5986  1.4292
 7036TIP3   OH245302   1.800   3.946  12.456 -0.0543  0.0607 -0.5549
 7036TIP3    H145303   1.774   3.857  12.477  1.2020 -0.2421 -0.2190
 7036TIP3    H245304   1.753   3.966  12.375 -1.3343 -0.4261  0.0413
 7037TIP3   OH245305   5.944   1.123  11.424  0.1794 -0.3065 -0.2760
 7037TIP3    H145306   6.017   1.148  11.366  0.3301  2.2757  0.8789
 7037TIP3    H245307   5.915   1.206  11.462 -0.6274 -1.7493  2.5133
 7038TIP3   OH245308   6.000   0.176  19.450  0.4411 -0.4961  0.3273
 7038TIP3    H145309   6.087   0.210  19.427  0.1712 -1.5850 -2.7848
 7038TIP3    H245310   6.015   0.124  19.529  2.0660  1.4009  1.3602
 7039TIP3   OH245311   5.821   1.855  10.465 -0.0666 -0.3639 -0.1000
 7039TIP3    H145312   5.832   1.869  10.371  1.1694 -1.1869 -0.1008
 7039TIP3    H245313   5.727   1.842  10.476 -0.1893 -0.5993 -1.2670
 7040TIP3   OH245314   0.168   0.819  11.097  0.3744 -0.4120  0.5815
 7040TIP3    H145315   0.160   0.739  11.045  1.4090 -0.0462 -0.1962
 7040TIP3    H245316   0.262   0.826  11.115  0.2805  0.5670  0.7459
 7041TIP3   OH245317   3.386   3.146  10.952 -0.9533  0.6585 -0.3409
 7041TIP3    H145318   3.409   3.235  10.923  1.6021  0.1889 -0.0345
 7041TIP3    H245319   3.339   3.108  10.877  0.8275  1.2312 -1.8444
 7042TIP3   OH245320   6.272   3.742  10.121  0.0619 -0.2348 -0.5351
 7042TIP3    H145321   6.350   3.791  10.147  1.1320 -1.9625 -0.3771
 7042TIP3    H245322   6.247   3.780  10.037  2.0326 -0.6849 -1.3744
 7043TIP3   OH245323   1.914   1.996  11.400 -0.4994 -0.1641  0.6055
 7043TIP3    H145324   1.949   1.976  11.487  1.8067  1.1842  0.0847
 7043TIP3    H245325   1.843   2.059  11.416  0.1074  0.2989  1.4966
 7044TIP3   OH245326   6.405   5.863   9.695 -0.3817  0.1364 -0.3338
 7044TIP3    H145327   6.500   5.869   9.687 -0.1060 -0.7548  1.8047
 7044TIP3    H245328   6.384   5.917   9.772 -1.7159  0.8793 -1.1729
 7045TIP3   OH245329   1.052   5.112  10.131 -0.0905 -0.1246  0.0701
 7045TIP3    H145330   1.006   5.061  10.064 -0.8981 -0.9335  1.2203
 7045TIP3    H245331   1.145   5.095  10.114 -0.3238 -2.6048  0.8406
 7046TIP3   OH245332   0.058   5.811  11.865  0.3895  0.2292 -0.1454
 7046TIP3    H145333  -0.013   5.850  11.916  0.8625 -0.0418  0.7486
 7046TIP3    H245334   0.097   5.747  11.924 -0.8913 -2.2822 -1.8266
 7047TIP3   OH245335   4.795   0.776  12.688 -0.0775  0.3291  0.5294
 7047TIP3    H145336   4.704   0.793  12.664  0.4115  1.5927 -0.5714
 7047TIP3    H245337   4.817   0.694  12.643 -0.8578 -0.3644  1.3822
 7048TIP3   OH245338   4.315   3.206  12.579 -0.4169 -0.3891 -0.4574
 7048TIP3    H145339   4.294   3.183  12.669 -0.0807 -1.9453 -0.7411
 7048TIP3    H245340   4.374   3.136  12.550  1.9241  1.6552 -0.9394
 7049TIP3   OH245341   0.318   6.401   9.992 -0.0996  0.2511 -0.0400
 7049TIP3    H145342   0.292   6.463   9.923 -0.1284 -0.3554 -0.5816
 7049TIP3    H245343   0.277   6.436  10.071 -0.9046  0.4176 -0.5090
 7050TIP3   OH245344   2.595   5.413   9.968  0.0788 -0.0512 -0.8392
 7050TIP3    H145345   2.603   5.442  10.059  1.6690 -0.4882 -0.7996
 7050TIP3    H245346   2.507   5.438   9.942  0.1522  1.5810  0.3176
 7051TIP3   OH245347   0.671   2.997  12.118 -0.0561 -0.3536  0.0952
 7051TIP3    H145348   0.633   2.964  12.036 -0.4897 -0.7080  0.4329
 7051TIP3    H245349   0.595   3.017  12.173  0.1950 -2.2193  1.2410
 7052TIP3   OH245350   6.057   3.218  11.533  0.8447 -0.9006 -0.6972
 7052TIP3    H145351   6.127   3.246  11.591  0.2589  0.5128 -0.6425
 7052TIP3    H245352   6.073   3.264  11.451 -0.0569 -0.5000 -0.6593
 7053TIP3   OH245353   6.092   2.753  12.101  0.0306  0.0662  0.0821
 7053TIP3    H145354   6.118   2.841  12.128 -0.2230 -0.2163  1.2890
 7053TIP3    H245355   6.072   2.707  12.182 -1.6490 -0.5388 -0.6137
 7054TIP3   OH245356   6.494   5.515  13.036 -0.6068 -0.1733 -0.4286
 7054TIP3    H145357   6.446   5.433  13.050 -0.5380 -0.1706 -0.1679
 7054TIP3    H245358   6.586   5.490  13.040 -0.5816 -0.0202  0.0612
 7055TIP3   OH245359   1.711   2.171  11.433 -0.4947  0.3485 -0.0143
 7055TIP3    H145360   1.618   2.169  11.456 -0.7771  1.8730 -0.8803
 7055TIP3    H245361   1.714   2.219  11.351  1.0808  0.4458  0.0836
 7056TIP3   OH245362   1.228   3.288   9.867 -0.1532 -0.5085  0.1900
 7056TIP3    H145363   1.254   3.239   9.945  0.0324  0.0931  0.5113
 7056TIP3    H245364   1.293   3.357   9.858 -0.8635  0.1891  0.2276
 7057TIP3   OH245365   3.608   5.818  12.982  0.0986 -0.2571  0.7445
 7057TIP3    H145366   3.661   5.817  12.903  1.3429 -0.8486  1.5658
 7057TIP3    H245367   3.522   5.849  12.952  1.0687  1.4211 -0.4927
 7058TIP3   OH245368   3.767   0.101  11.899 -0.2879  0.0776  0.2116
 7058TIP3    H145369   3.677   0.070  11.892 -0.8329  1.2064  1.6785
 7058TIP3    H245370   3.797   0.108  11.808 -1.5990 -0.4971 -0.2980
 7059TIP3   OH245371   3.622   2.527  11.796  0.5408 -0.2616 -0.3426
 7059TIP3    H145372   3.592   2.618  11.799 -0.1468 -0.4782 -0.4503
 7059TIP3    H245373   3.698   2.529  11.738  0.5213  0.2423 -0.3580
 7060TIP3   OH245374   2.286   3.215  11.642  0.4895 -0.8451  0.6631
 7060TIP3    H145375   2.373   3.210  11.603 -0.5420  0.6153 -2.0876
 7060TIP3    H245376   2.280   3.303  11.679  0.1380 -0.8932  0.7277
 7061TIP3   OH245377   0.897   0.871   9.358  0.1072 -0.5366  0.5799
 7061TIP3    H145378   0.915   0.840   9.269  0.3937  0.9073  0.1030
 7061TIP3    H245379   0.979   0.912   9.386 -0.4304  0.3380  0.9172
 7062TIP3   OH245380   3.445   6.345  12.388  0.4296  0.8142 -0.6539
 7062TIP3    H145381   3.452   6.305  12.475  1.8207  0.9248 -0.6983
 7062TIP3    H245382   3.385   6.419  12.401  2.0489  1.9651  0.6655
 7063TIP3   OH245383   1.510   4.711  10.975 -0.4487 -0.1123  0.3046
 7063TIP3    H145384   1.516   4.803  10.999  1.0844 -0.4996  1.6109
 7063TIP3    H245385   1.493   4.712  10.881 -1.6632  1.4874  0.5029
 7064TIP3   OH245386   3.519   6.377  12.047 -0.4625  0.1957 -0.2616
 7064TIP3    H145387   3.575   6.375  12.125  0.8781 -0.3840 -1.1948
 7064TIP3    H245388   3.562   6.439  11.988  0.5238 -1.9035 -1.8901
 7065TIP3   OH245389   6.527   1.443   9.771 -0.1704  0.0087 -0.1037
 7065TIP3    H145390   6.619   1.468   9.759 -0.4139  0.6494 -0.6999
 7065TIP3    H245391   6.528   1.347   9.766  0.3855  0.0355 -0.7494
 7066TIP3   OH245392   0.476   1.408  10.060  0.2175  0.2141 -0.4134
 7066TIP3    H145393   0.478   1.313  10.050 -0.4769  0.1505 -0.0144
 7066TIP3    H245394   0.467   1.422  10.155  0.2311  0.6714 -0.4769
 7067TIP3   OH245395   6.435   1.181   9.817  0.3866  0.0587  0.6281
 7067TIP3    H145396   6.503   1.136   9.767 -0.3898 -0.3665 -0.0728
 7067TIP3    H245397   6.353   1.141   9.788 -0.3963  2.2224 -0.3787
 7068TIP3   OH245398   1.280   3.264  12.886 -0.1494 -0.6087 -0.0964
 7068TIP3    H145399   1.285   3.346  12.935 -0.5110  0.6030 -1.9734
 7068TIP3    H245400   1.371   3.241  12.869 -0.0473 -0.4545  0.2341
 7069TIP3   OH245401   4.639   5.114  12.944  0.0330  0.3309  0.1290
 7069TIP3    H145402   4.668   5.112  12.853  0.8923 -2.2880  0.3908
 7069TIP3    H245403   4.622   5.023  12.966 -2.8988  1.1534  1.8002
 7070TIP3   OH245404   6.680   3.804  11.157 -0.2017  0.2235  0.8780
 7070TIP3    H145405   6.739   3.877  11.175  0.3552  0.3927 -1.3955
 7070TIP3    H245406   6.736   3.738  11.115 -1.4438  0.0902 -0.6467
 7071TIP3   OH245407   3.047   6.157  11.946  0.2437 -0.0248 -0.4650
 7071TIP3    H145408   2.999   6.226  11.901  0.2707  0.0443 -0.3892
 7071TIP3    H245409   3.002   6.076  11.922  1.7935 -0.3027 -2.6942
 7072TIP3   OH245410   6.101   1.434   9.904  0.4063 -0.4872 -0.1373
 7072TIP3    H145411   6.048   1.493   9.851  1.4008 -1.1207 -1.9221
 7072TIP3    H245412   6.187   1.476   9.909  0.4745 -0.6929  0.5534
 7073TIP3   OH245413   0.726   6.214  10.226 -0.4817 -0.0845 -0.1884
 7073TIP3    H145414   0.774   6.254  10.154 -2.3223 -0.1754 -1.5209
 7073TIP3    H245415   0.643   6.263  10.230 -1.1719 -1.2650  0.6502
 7074TIP3   OH245416   2.369   4.511   9.550 -0.0901  0.5136 -0.1431
 7074TIP3    H145417   2.346   4.554   9.468 -1.0233 -1.1276 -0.7935
 7074TIP3    H245418   2.460   4.484   9.538 -0.1588  0.4592 -0.5583
 7075TIP3   OH245419   4.109   0.485  10.464 -0.6073 -0.4257  0.1841
 7075TIP3    H145420   4.184   0.536  10.496 -0.9522  0.9589 -1.0688
 7075TIP3    H245421   4.142   0.396  10.458  0.3270 -0.2083  1.5264
 7076TIP3   OH245422   3.098   2.318  10.402 -0.4978 -0.3637 -0.9215
 7076TIP3    H145423   3.149   2.354  10.475 -0.3907 -3.1226  0.5022
 7076TIP3    H245424   3.064   2.395  10.356  0.5437  1.5077  1.2390
 7077TIP3   OH245425   3.182   3.199  10.064 -0.3609  0.5847  0.7128
 7077TIP3    H145426   3.125   3.276  10.060 -0.5130  0.4419 -0.3107
 7077TIP3    H245427   3.207   3.192  10.156 -0.7240  1.5799  0.9019
 7078TIP3   OH245428   1.040   0.394  11.280 -0.1440  0.5140 -0.4395
 7078TIP3    H145429   1.049   0.409  11.186  0.8612  1.8326 -0.1648
 7078TIP3    H245430   1.009   0.477  11.315 -0.0025  0.2020  0.4578
 7079TIP3   OH245431   3.159   4.031  11.458 -0.6179 -0.3043 -0.1289
 7079TIP3    H145432   3.208   3.949  11.457  1.3283  0.8041  0.2918
 7079TIP3    H245433   3.082   4.012  11.511  1.6395 -0.9015  3.2456
 7080TIP3   OH245434   1.024   3.591   9.841  0.6521 -0.0315 -0.0014
 7080TIP3    H145435   0.988   3.503   9.830 -0.7458  0.4370  0.4726
 7080TIP3    H245436   1.118   3.582   9.826  0.2046 -1.1040 -2.7148
 7081TIP3   OH245437   4.983   6.370  10.469 -0.5224  0.1425  0.6085
 7081TIP3    H145438   4.988   6.355  10.374 -0.6942 -2.3701  0.9220
 7081TIP3    H245439   5.036   6.300  10.506 -0.4552  1.0986  2.3914
 7082TIP3   OH245440   5.308   0.488  11.188  0.5035  0.2244 -0.4944
 7082TIP3    H145441   5.283   0.520  11.275 -0.4278  1.3513 -1.1388
 7082TIP3    H245442   5.265   0.403  11.182 -0.8698  0.8730 -0.4649
 7083TIP3   OH245443   1.763   2.289  11.865  0.4595 -0.1943 -1.1242
 7083TIP3    H145444   1.732   2.283  11.775 -0.2515 -0.7598 -0.8575
 7083TIP3    H245445   1.716   2.364  11.902 -1.8103 -1.8577 -0.3125
 7084TIP3   OH245446   6.360   2.245  11.000  0.0025 -0.2037 -0.3125
 7084TIP3    H145447   6.441   2.233  10.951 -0.6069 -0.7646 -1.2278
 7084TIP3    H245448   6.379   2.210  11.087  0.7786 -0.2056 -0.4746
 7085TIP3   OH245449   2.572   6.217   9.535  0.3146  0.1626  0.7944
 7085TIP3    H145450   2.564   6.122   9.523  0.5442  0.2585 -0.2011
 7085TIP3    H245451   2.481   6.247   9.545  0.2488 -0.1743  1.2252
 7086TIP3   OH245452   2.798   3.048  11.605 -0.2460  0.1021  0.4471
 7086TIP3    H145453   2.861   3.034  11.534  1.1189  0.9656  1.4287
 7086TIP3    H245454   2.747   2.967  11.608  0.9134 -0.6971 -0.2867
 7087TIP3   OH245455   1.202   5.515  12.502  0.2075 -0.2852  0.8153
 7087TIP3    H145456   1.109   5.532  12.487  0.1204 -1.2589  0.1314
 7087TIP3    H245457   1.221   5.558  12.585 -0.9534 -0.4043  1.1651
 7088TIP3   OH245458   3.311   1.769  10.715 -0.5575  0.6164  0.0934
 7088TIP3    H145459   3.304   1.815  10.631 -2.5427  1.2818  0.5562
 7088TIP3    H245460   3.348   1.684  10.692  0.0686  1.2202 -1.2688
 7089TIP3   OH245461   6.237   0.739  11.343 -0.1465 -0.0788  0.8722
 7089TIP3    H145462   6.209   0.652  11.314 -1.4049  0.7018 -0.3613
 7089TIP3    H245463   6.323   0.751  11.304 -0.7512 -0.0547 -0.4817
 7090TIP3   OH245464   1.733   1.018  11.393 -0.4980 -0.5323 -0.2684
 7090TIP3    H145465   1.737   0.953  11.322 -0.2039 -0.3602 -0.4112
 7090TIP3    H245466   1.640   1.020  11.418 -0.9642  0.7169 -1.8904
 7091TIP3   OH245467   1.697   0.165  11.471  0.6815  0.1289  0.0467
 7091TIP3    H145468   1.746   0.194  11.548 -1.1587  0.6356  1.1061
 7091TIP3    H245469   1.656   0.245  11.437 -1.0335 -0.5307  0.4496
 7092TIP3   OH245470   1.342   0.155  11.472 -0.0113  0.1989  0.1486
 7092TIP3    H145471   1.423   0.107  11.454 -0.3327 -0.2176 -0.2000
 7092TIP3    H245472   1.304   0.170  11.385 -0.0168  0.9054  0.2670
 7093TIP3   OH245473   2.513   5.536  10.665  0.1762  0.2387  0.4985
 7093TIP3    H145474   2.498   5.613  10.611  2.3984 -0.6307 -1.5830
 7093TIP3    H245475   2.489   5.562  10.753 -0.7194  2.7387 -0.4105
 7094TIP3   OH245476   2.865   1.230  10.060 -0.4850  0.2514  0.6205
 7094TIP3    H145477   2.794   1.233   9.996  0.1132  2.8282 -0.0438
 7094TIP3    H245478   2.929   1.170  10.022 -1.7036 -1.0825  0.6054
 7095TIP3   OH245479   1.331   0.010  13.599  0.1657  0.2671 -0.5631
 7095TIP3    H145480   1.310   0.073  13.530 -2.0837  1.2849  0.9245
 7095TIP3    H245481   1.248  -0.032  13.620  0.6114  0.4352  1.9256
 7096TIP3   OH245482   6.389   0.924  10.159 -0.2262  0.4379 -0.3537
 7096TIP3    H145483   6.381   1.019  10.151  1.0273  0.5852 -0.1570
 7096TIP3    H245484   6.318   0.889  10.105 -0.4687  1.4757 -0.7409
 7097TIP3   OH245485   2.647   5.403  11.647 -0.4036 -0.0084 -0.0636
 7097TIP3    H145486   2.637   5.418  11.553 -0.2748 -1.3778 -0.3087
 7097TIP3    H245487   2.737   5.431  11.666 -0.3137 -0.0588 -0.4080
 7098TIP3   OH245488   5.744   0.742  10.800 -0.4803 -0.0785  0.3246
 7098TIP3    H145489   5.667   0.702  10.760 -0.5598 -0.2936  0.6937
 7098TIP3    H245490   5.815   0.681  10.780 -0.6639 -0.5876  1.1818
 7099TIP3   OH245491   6.029   2.839  11.532  0.1222  0.0052 -0.3397
 7099TIP3    H145492   5.988   2.876  11.454 -1.7856 -0.7979  0.2196
 7099TIP3    H245493   5.957   2.833  11.596  0.6690 -3.0279  0.1487
 7100TIP3   OH245494   0.928   1.835   9.990  0.5135  0.3269 -0.1597
 7100TIP3    H145495   0.977   1.834  10.072  1.0380 -0.7176 -0.4615
 7100TIP3    H245496   0.880   1.918   9.991  0.7272  0.4550  1.0688
 7101TIP3   OH245497   0.624   2.541  10.472  0.0258  0.2053  0.4836
 7101TIP3    H145498   0.670   2.594  10.538  0.2677 -0.7602  1.1130
 7101TIP3    H245499   0.532   2.547  10.496  0.1679 -0.6737  1.3445
 7102TIP3   OH245500   5.478   2.677  11.930 -0.0890  0.1497 -0.0667
 7102TIP3    H145501   5.508   2.689  11.840 -1.3858  0.7988 -0.4354
 7102TIP3    H245502   5.543   2.725  11.983  0.3791  0.2239 -0.6976
 7103TIP3   OH245503   5.568   6.550  10.310 -0.0784 -0.1612 -0.3281
 7103TIP3    H145504   5.587   6.629  10.260  1.3610 -0.4466 -0.2665
 7103TIP3    H245505   5.653   6.518  10.339 -0.7490 -0.8818  0.9788
 7104TIP3   OH245506   6.491   5.668  10.508  0.1564 -0.1595  0.0425
 7104TIP3    H145507   6.494   5.642  10.416 -1.3106  0.7900 -0.3068
 7104TIP3    H245508   6.559   5.735  10.517 -0.2863  0.3822 -0.5775
 7105TIP3   OH245509   2.351   4.206  10.370 -0.0834 -0.7389  0.0477
 7105TIP3    H145510   2.261   4.201  10.400 -0.3770  0.1735 -0.6276
 7105TIP3    H245511   2.386   4.117  10.381 -0.7336 -0.8537  1.2922
 7106TIP3   OH245512   0.228   3.864  10.836 -0.8264 -0.0377  0.4769
 7106TIP3    H145513   0.303   3.872  10.895 -0.3913  0.3485 -0.1160
 7106TIP3    H245514   0.243   3.781  10.790  0.8378  1.3751 -1.7635
 7107TIP3   OH245515   1.968   5.212   9.536 -0.3981  0.0677  0.2085
 7107TIP3    H145516   1.894   5.203   9.596 -1.4823  0.7821 -0.9737
 7107TIP3    H245517   2.017   5.130   9.547 -2.1440 -1.0591 -0.0060
 7108TIP3   OH245518   6.336   4.176  10.273  0.2178  0.3566  0.1186
 7108TIP3    H145519   6.323   4.270  10.257  0.6564  0.8501  2.3415
 7108TIP3    H245520   6.428   4.161  10.252 -0.1284  0.1350 -1.3477
 7109TIP3   OH245521   0.359   1.058   9.741 -0.1550 -0.6318 -0.7737
 7109TIP3    H145522   0.323   1.003   9.671 -0.8194 -0.5097 -0.5289
 7109TIP3    H245523   0.284   1.082   9.795  0.7192 -4.2596  2.5397
 7110TIP3   OH245524   2.435   1.465  12.162 -0.1850 -0.1086  0.0758
 7110TIP3    H145525   2.513   1.463  12.107  0.1690 -2.3308  0.5471
 7110TIP3    H245526   2.446   1.543  12.216  1.8093 -0.4154  0.1979
 7111TIP3   OH245527   1.401   4.112  12.198  0.0740  0.2111 -0.0323
 7111TIP3    H145528   1.495   4.120  12.184  0.4703 -0.6265  1.8385
 7111TIP3    H245529   1.393   4.078  12.287 -1.8482 -3.3870 -1.3569
 7112TIP3   OH245530   4.020   6.426  12.146  0.4052 -0.8209  0.1966
 7112TIP3    H145531   3.927   6.437  12.126  0.5474 -0.7739 -0.4720
 7112TIP3    H245532   4.032   6.331  12.150 -0.1508 -0.8542  2.7079
 7113TIP3   OH245533   2.406   6.609   9.613  0.0760 -0.1797 -0.3839
 7113TIP3    H145534   2.432   6.676   9.551 -1.6520 -0.9983 -2.0680
 7113TIP3    H245535   2.489   6.572   9.644  0.9829  0.9377 -1.3930
 7114TIP3   OH245536   0.622   4.612  11.900 -0.0098 -0.4883 -0.2077
 7114TIP3    H145537   0.639   4.518  11.914  2.2442 -0.2377 -0.9861
 7114TIP3    H245538   0.609   4.620  11.805  1.5623  0.2129 -0.3847
 7115TIP3   OH245539   4.490   6.367  13.476  0.4465  0.1587 -0.0656
 7115TIP3    H145540   4.427   6.378  13.405  0.8556  2.3675 -0.1677
 7115TIP3    H245541   4.437   6.368  13.556  0.3099  2.0597 -0.1475
 7116TIP3   OH245542   5.515   3.415  10.575 -0.6042 -0.1904  0.5725
 7116TIP3    H145543   5.440   3.359  10.557 -2.3019  2.4247 -1.0602
 7116TIP3    H245544   5.568   3.411  10.495 -1.0135  0.8978  0.2336
 7117TIP3   OH245545   4.465   0.921  11.484  0.2381 -0.2309 -0.2127
 7117TIP3    H145546   4.470   0.826  11.487 -1.5210 -0.3401  0.3960
 7117TIP3    H245547   4.377   0.940  11.450 -0.4112  1.1323  2.0114
 7118TIP3   OH245548   0.071   1.612   9.772 -0.4883  0.7023  0.0406
 7118TIP3    H145549   0.086   1.617   9.867  0.7247  0.4255 -0.1219
 7118TIP3    H245550   0.156   1.629   9.734 -1.1114  1.5359 -1.0416
 7119TIP3   OH245551   1.856   0.828  10.863 -0.6944  0.0697 -0.1329
 7119TIP3    H145552   1.867   0.831  10.768 -0.0002 -1.1021 -0.1088
 7119TIP3    H245553   1.897   0.746  10.890  0.4656  1.0869  1.3643
 7120TIP3   OH245554   2.817   6.401   9.961  0.0636  0.4785 -0.0837
 7120TIP3    H145555   2.804   6.489   9.926  1.8354  1.2455  1.0737
 7120TIP3    H245556   2.897   6.370   9.919 -0.7712 -0.7772 -0.7998
 7121TIP3   OH245557   0.895   4.282  12.188  0.0588 -0.8421  0.2717
 7121TIP3    H145558   0.883   4.234  12.270 -0.6220 -0.4621  0.4033
 7121TIP3    H245559   0.989   4.279  12.172  0.4472  0.4485  1.9201
 7122TIP3   OH245560   0.724   1.416  10.328  0.4154 -0.4014 -0.1100
 7122TIP3    H145561   0.706   1.501  10.288  1.2548  0.0170  0.3815
 7122TIP3    H245562   0.753   1.361  10.255  2.5333  0.5249 -0.0340
 7123TIP3   OH245563   2.228   0.338  12.904 -0.3274 -0.2597  0.1142
 7123TIP3    H145564   2.290   0.402  12.870  0.6484 -1.0746  0.3282
 7123TIP3    H245565   2.276   0.291  12.971 -1.8052  0.4165  1.7184
 7124TIP3   OH245566   3.808   1.245   9.577 -0.1024  0.2197  0.1434
 7124TIP3    H145567   3.868   1.203   9.515 -0.1576 -0.4922  0.5555
 7124TIP3    H245568   3.736   1.277   9.523 -0.4275 -0.8915 -0.1144
 7125TIP3   OH245569   2.296   0.281   9.754  0.5192  0.0078 -0.0583
 7125TIP3    H145570   2.362   0.234   9.704  0.7232  0.9073 -0.6529
 7125TIP3    H245571   2.335   0.293   9.841  1.0434  0.3183 -0.3319
 7126TIP3   OH245572   6.439   0.498  10.465  0.0985 -0.2437 -0.5369
 7126TIP3    H145573   6.400   0.430  10.519  1.0424  0.2519  0.8178
 7126TIP3    H245574   6.418   0.580  10.510  1.6221  0.1142 -0.4297
 7127TIP3   OH245575   4.289   2.416   9.459 -0.7176  0.2652  0.4089
 7127TIP3    H145576   4.361   2.359   9.487  0.7548  0.8246 -1.9130
 7127TIP3    H245577   4.216   2.357   9.444  0.0753 -0.7128  0.2720
 7128TIP3   OH245578   3.861   0.595  11.055 -0.5655  0.1441 -0.2792
 7128TIP3    H145579   3.865   0.688  11.078 -0.3106  0.2416 -0.6976
 7128TIP3    H245580   3.769   0.581  11.031 -1.3979 -0.5038  2.9173
 7129TIP3   OH245581   5.716   4.831  11.291  0.2328  0.1025 -0.0398
 7129TIP3    H145582   5.637   4.788  11.322 -0.3236  0.6381 -0.6859
 7129TIP3    H245583   5.786   4.795  11.346 -0.4003 -0.6360  0.3019
 7130TIP3   OH245584   0.997   0.988  11.142  0.0425 -0.2192  0.2865
 7130TIP3    H145585   1.012   1.004  11.048  1.3618 -1.5310  0.2371
 7130TIP3    H245586   1.036   1.065  11.185  0.1389  0.0181 -0.2092
 7131TIP3   OH245587   3.722   1.763  11.425 -0.4988  1.1602  0.0867
 7131TIP3    H145588   3.750   1.770  11.517 -2.7192 -0.7731  0.9951
 7131TIP3    H245589   3.667   1.840  11.411 -0.8173  1.0433  0.6588
 7132TIP3   OH245590   2.662   2.584  12.275  0.1709  0.4745  0.3683
 7132TIP3    H145591   2.622   2.522  12.215  1.8964  0.7185 -1.1083
 7132TIP3    H245592   2.636   2.553  12.362  0.9685 -2.3349 -0.3012
 7133TIP3   OH245593   1.069   5.855  12.010  0.1556 -0.3753 -0.6731
 7133TIP3    H145594   1.156   5.885  11.984 -0.2561  1.1477 -0.3605
 7133TIP3    H245595   1.067   5.868  12.105 -1.1500  1.6866 -0.9327
 7134TIP3   OH245596   2.423   5.277  12.705 -0.9808 -0.1324  0.4087
 7134TIP3    H145597   2.365   5.258  12.631 -0.4564  1.1893 -0.3806
 7134TIP3    H245598   2.501   5.225  12.688 -1.2748 -0.6562  0.6176
 7135TIP3   OH245599   4.261   4.449   9.568 -0.0429 -0.5741 -0.5588
 7135TIP3    H145600   4.217   4.488   9.644  2.0274  1.0444 -0.1253
 7135TIP3    H245601   4.312   4.376   9.604  1.2649  0.4471 -0.2737
 7136TIP3   OH245602   4.054   0.712  10.286  0.0687  0.0226 -0.2524
 7136TIP3    H145603   4.134   0.718  10.234  0.6102 -0.1999  0.5422
 7136TIP3    H245604   4.074   0.648  10.355 -0.3565  0.8829  0.7011
 7137TIP3   OH245605   4.410   4.939   9.607 -0.4859 -0.4633  0.4475
 7137TIP3    H145606   4.358   4.895   9.540  1.4636 -1.1563 -0.6968
 7137TIP3    H245607   4.351   4.946   9.682 -1.7748 -2.4773 -0.2851
 7138TIP3   OH245608   6.450   4.366  12.562 -0.1771  0.6079 -0.3950
 7138TIP3    H145609   6.487   4.412  12.486 -0.0851  0.0905 -0.6619
 7138TIP3    H245610   6.523   4.359  12.624  0.1969 -0.4547 -0.9398
 7139TIP3   OH245611   0.980   1.893  12.191 -0.1981  0.1317  0.5656
 7139TIP3    H145612   0.960   1.802  12.214 -1.6771  0.7816  2.0816
 7139TIP3    H245613   1.071   1.904  12.217 -0.0090 -0.8969  0.4005
 7140TIP3   OH245614   6.261   1.216  11.656 -0.1583 -0.0706  0.5119
 7140TIP3    H145615   6.210   1.157  11.601  0.0549 -0.8207  1.0946
 7140TIP3    H245616   6.203   1.238  11.729  0.1510 -0.4975  0.8966
 7141TIP3   OH245617   4.759   4.504  10.656 -0.0866  0.0877  0.3278
 7141TIP3    H145618   4.722   4.416  10.653 -1.7412  0.7355  0.6785
 7141TIP3    H245619   4.829   4.498  10.720  1.9295 -1.6727 -1.8456
 7142TIP3   OH245620   6.487   5.421   9.490 -0.7250 -0.0934 -0.1713
 7142TIP3    H145621   6.430   5.406   9.414 -1.6178 -1.0879  0.6767
 7142TIP3    H245622   6.438   5.483   9.544  0.1086  0.9655 -0.5878
 7143TIP3   OH245623   2.238   2.213   9.495 -0.1924 -0.0470 -0.2167
 7143TIP3    H145624   2.320   2.262   9.496 -1.3624  2.1311 -1.8530
 7143TIP3    H245625   2.265   2.122   9.503  2.2536  0.6686  0.8296
 7144TIP3   OH245626   4.240   5.932  12.743  0.4083  0.1335  0.6898
 7144TIP3    H145627   4.192   5.850  12.735 -0.9188  0.9306  0.0836
 7144TIP3    H245628   4.241   5.968  12.654 -2.5283  2.6200  1.4746
 7145TIP3   OH245629   5.748   0.170  11.195 -0.2808 -0.2632  0.6851
 7145TIP3    H145630   5.692   0.244  11.218  0.2683  1.0223 -1.7766
 7145TIP3    H245631   5.695   0.117  11.136  1.4200  1.8616 -3.0649
 7146TIP3   OH245632   6.006   3.105  10.658  0.1584 -0.2664  0.9067
 7146TIP3    H145633   6.075   3.104  10.592 -0.0171 -3.0063  0.6459
 7146TIP3    H245634   5.925   3.102  10.608 -0.0466 -0.0884  1.2268
 7147TIP3   OH245635   5.972   0.213  10.923  0.7555  0.1618  0.0542
 7147TIP3    H145636   5.978   0.306  10.903  0.8037  0.0678 -0.3815
 7147TIP3    H245637   6.015   0.204  11.009  0.1166  0.6438  0.4274
 7148TIP3   OH245638   5.639   3.692  12.298 -0.3347  0.3669  0.3960
 7148TIP3    H145639   5.547   3.690  12.323 -0.1588  0.9652  1.1260
 7148TIP3    H245640   5.638   3.682  12.203 -1.3291  2.9359  0.0568
 7149TIP3   OH245641   2.336   6.345   9.559 -0.5603 -0.2090  0.1963
 7149TIP3    H145642   2.270   6.335   9.628 -0.0629 -0.7802  0.6028
 7149TIP3    H245643   2.372   6.432   9.573 -1.7525  0.4293 -0.5145
 7150TIP3   OH245644   0.169   6.137  11.462  0.2116 -0.0603  0.3295
 7150TIP3    H145645   0.100   6.204  11.459  0.8208  0.5516 -0.2012
 7150TIP3    H245646   0.137   6.074  11.527 -0.7814  0.2883  0.2077
 7151TIP3   OH245647   4.225   2.373  11.854 -0.1966  0.3846 -0.1533
 7151TIP3    H145648   4.218   2.425  11.774  1.4194  0.1677 -0.4725
 7151TIP3    H245649   4.234   2.438  11.924  2.1561  0.6188 -0.5827
 7152TIP3   OH245650   6.422   1.094  12.619  0.0420  0.0800  0.0772
 7152TIP3    H145651   6.389   1.019  12.670  1.5672  0.2574  1.3995
 7152TIP3    H245652   6.514   1.073  12.603 -0.1960  0.4204 -1.9634
 7153TIP3   OH245653   1.347   2.840  12.339  0.0731 -0.4972  0.0294
 7153TIP3    H145654   1.268   2.870  12.293 -0.4417 -0.5026  0.8793
 7153TIP3    H245655   1.392   2.920  12.366  0.1691 -0.4921 -0.1493
 7154TIP3   OH245656   5.080   2.645   9.691 -0.4526 -0.3079  0.1821
 7154TIP3    H145657   5.125   2.635   9.606 -0.2171  0.0070  0.2697
 7154TIP3    H245658   5.098   2.735   9.717  0.6266 -0.7847  1.2132
 7155TIP3   OH245659   2.030   1.719   9.800 -0.0032 -0.1139  0.3330
 7155TIP3    H145660   1.975   1.735   9.877 -0.2014 -0.5451  0.2809
 7155TIP3    H245661   2.087   1.796   9.796 -0.3808  0.1867  0.5769
 7156TIP3   OH245662   3.038   4.201  12.441 -0.1615  0.0212  0.0749
 7156TIP3    H145663   3.006   4.286  12.415  1.0602  0.3373 -0.4675
 7156TIP3    H245664   3.132   4.202  12.419  0.0545 -1.1513  0.8036
 7157TIP3   OH245665   6.430   2.385  10.609 -0.6422  0.1067  0.1474
 7157TIP3    H145666   6.356   2.442  10.587  0.3520  1.1765 -0.5286
 7157TIP3    H245667   6.498   2.445  10.640  1.3383 -0.3466 -2.9434
 7158TIP3   OH245668   6.045   5.185  11.555  0.0630 -0.4237 -0.7338
 7158TIP3    H145669   5.986   5.181  11.480 -0.2610 -1.0306 -0.4474
 7158TIP3    H245670   6.104   5.111  11.543 -2.0696 -2.6340  1.3316
 7159TIP3   OH245671   1.720   0.807  12.896  0.1233 -0.2909  0.2172
 7159TIP3    H145672   1.783   0.877  12.877  1.1101 -1.6385 -1.8918
 7159TIP3    H245673   1.636   0.841  12.866 -0.2949  1.5728  3.1619
 7160TIP3   OH245674   0.093   6.049  12.492 -0.6788 -0.2729  0.6282
 7160TIP3    H145675   0.118   5.996  12.568  1.6447 -1.0095 -0.5497
 7160TIP3    H245676   0.062   6.131  12.529  1.8678  0.0028  2.4027
 7161TIP3   OH245677   6.293   5.645  10.703  0.5375 -0.1982 -0.3869
 7161TIP3    H145678   6.357   5.665  10.634  0.4998  1.1481 -0.0749
 7161TIP3    H245679   6.346   5.636  10.782  0.3717  0.9801 -0.1158
 7162TIP3   OH245680   2.174   3.084  11.413 -0.8571  0.5664  0.3332
 7162TIP3    H145681   2.240   3.096  11.481 -0.9259  0.8918  0.3400
 7162TIP3    H245682   2.093   3.117  11.451 -1.0136  0.2371  0.2971
 7163TIP3   OH245683   4.881   1.809  10.351 -0.2893  0.3087  0.4372
 7163TIP3    H145684   4.795   1.794  10.392  0.6507 -2.2168  1.6762
 7163TIP3    H245685   4.938   1.836  10.423  1.2579 -3.7027  1.0057
 7164TIP3   OH245686   1.881   1.866  10.699  0.2980 -0.2494  0.2107
 7164TIP3    H145687   1.878   1.959  10.721  0.0773 -0.5355  1.4238
 7164TIP3    H245688   1.918   1.864  10.610  1.4971  0.9082  0.6554
 7165TIP3   OH245689   4.744   6.456  10.535 -0.3540 -0.2056  0.1232
 7165TIP3    H145690   4.749   6.472  10.629  0.4266 -2.3340  0.5034
 7165TIP3    H245691   4.834   6.436  10.510 -0.8205 -1.2993 -0.7319
 7166TIP3   OH245692   6.453   5.568  10.263 -0.2363 -1.3858 -0.1251
 7166TIP3    H145693   6.471   5.558  10.169 -0.3702 -0.9580 -0.1979
 7166TIP3    H245694   6.393   5.497  10.284 -1.0500 -0.8546 -0.5957
 7167TIP3   OH245695   5.933   4.768   9.993 -0.8499 -0.6688  0.1828
 7167TIP3    H145696   5.878   4.711  10.048 -1.9232 -0.7963 -0.9655
 7167TIP3    H245697   5.874   4.837   9.964  0.4106  0.9850  1.4322
 7168TIP3   OH245698   5.694   6.501   9.853  0.0452 -0.1982 -0.2969
 7168TIP3    H145699   5.614   6.481   9.804 -0.1757 -0.4244  0.1462
 7168TIP3    H245700   5.698   6.597   9.855  0.5927 -0.1705 -1.6075
 7169TIP3   OH245701   1.625   5.020  10.999 -0.4169  0.0541  0.5654
 7169TIP3    H145702   1.555   5.064  11.047 -1.1728 -0.6084  0.0974
 7169TIP3    H245703   1.705   5.047  11.044 -1.0627 -0.1672  1.8918
 7170TIP3   OH245704   2.488   6.228  11.903 -0.1609 -0.8474  0.0847
 7170TIP3    H145705   2.505   6.253  11.812 -0.6269  2.3306  0.7588
 7170TIP3    H245706   2.574   6.232  11.945 -0.2546 -0.1576  0.2215
 7171TIP3   OH245707   6.191   6.472  10.829  0.2572 -0.3101 -0.1767
 7171TIP3    H145708   6.134   6.518  10.890 -1.5887 -2.1410 -0.3828
 7171TIP3    H245709   6.249   6.420  10.884  0.3639  0.0207  0.0257
 7172TIP3   OH245710   4.898   2.433  10.981  0.3368 -0.5373  0.2508
 7172TIP3    H145711   4.936   2.503  10.928 -1.6378 -0.0463 -0.6003
 7172TIP3    H245712   4.936   2.353  10.944 -0.7635 -0.1873 -1.8119
 7173TIP3   OH245713   2.009   5.132  10.366 -0.0212  0.3364  0.2757
 7173TIP3    H145714   2.052   5.111  10.283  0.0994 -0.5711  0.5564
 7173TIP3    H245715   1.976   5.221  10.354  0.7381  0.5335 -0.4393
 7174TIP3   OH245716   6.580   3.423  10.397  0.7249 -0.2823  0.0004
 7174TIP3    H145717   6.632   3.406  10.318 -0.9747  0.8919 -1.4637
 7174TIP3    H245718   6.508   3.478  10.366 -0.9824 -1.2400  2.0580
 7175TIP3   OH245719   6.250   4.074  11.052  0.5404  0.1266  0.0084
 7175TIP3    H145720   6.324   4.015  11.042  0.7752  0.6052 -1.2169
 7175TIP3    H245721   6.190   4.050  10.981  0.8435  1.6211 -0.7938
 7176TIP3   OH245722   5.856   5.029   9.430 -0.3607 -0.0090 -0.1237
 7176TIP3    H145723   5.822   5.104   9.381 -0.8534 -0.3198 -0.2648
 7176TIP3    H245724   5.851   5.056   9.521  1.7750  1.0847 -0.2646
 7177TIP3   OH245725   0.069   2.892   9.748 -0.5653  0.0465  0.1019
 7177TIP3    H145726   0.103   2.802   9.751 -1.2117 -0.2239 -0.5000
 7177TIP3    H245727   0.029   2.905   9.834 -0.7267 -0.3405  0.0867
 7178TIP3   OH245728   0.916   5.309  11.685  0.1590 -0.3470  0.3470
 7178TIP3    H145729   0.890   5.238  11.743  0.6989 -0.9101 -0.0890
 7178TIP3    H245730   1.001   5.338  11.718 -0.0132  0.0351  0.4635
 7179TIP3   OH245731   1.941   4.513  10.342  0.1622  0.2020 -0.3162
 7179TIP3    H145732   1.883   4.563  10.399  0.3384  0.3058 -0.2287
 7179TIP3    H245733   1.946   4.426  10.382 -1.6614 -0.5037 -1.4694
 7180TIP3   OH245734   5.872   1.342  12.369  0.2396 -0.4844  0.0981
 7180TIP3    H145735   5.851   1.252  12.396 -0.4336 -0.2692  0.3042
 7180TIP3    H245736   5.787   1.384  12.355  0.4268  0.8776  2.4871
 7181TIP3   OH245737   2.353   5.406  11.765 -0.1682 -0.5752 -0.1411
 7181TIP3    H145738   2.369   5.351  11.689 -1.9753 -0.4061 -0.7090
 7181TIP3    H245739   2.386   5.492  11.740  0.5392 -0.8466 -0.1592
 7182TIP3   OH245740   1.379   5.749  12.418  0.0640  0.1806  0.2753
 7182TIP3    H145741   1.291   5.755  12.455 -0.9144 -1.8323 -1.4940
 7182TIP3    H245742   1.431   5.707  12.487 -1.1721 -1.4935  0.2530
 7183TIP3   OH245743   0.808   5.695  11.159  0.1552  0.0778 -0.0482
 7183TIP3    H145744   0.726   5.742  11.171  0.1291 -0.1548  0.8058
 7183TIP3    H245745   0.852   5.703  11.244  1.2524  0.6356 -0.6402
 7184TIP3   OH245746   5.732   6.007  10.577 -0.0493  0.2362  0.1522
 7184TIP3    H145747   5.669   5.940  10.603 -1.8129  1.5432 -0.5875
 7184TIP3    H245748   5.709   6.028  10.487  1.0794  1.1700  0.0588
 7185TIP3   OH245749   0.222   0.506  13.352 -0.1964 -0.6877 -0.1720
 7185TIP3    H145750   0.152   0.441  13.355 -2.4431  1.5743  1.9380
 7185TIP3    H245751   0.189   0.574  13.293  1.2048 -0.5152 -0.8004
 7186TIP3   OH245752   4.645   6.682   9.549 -0.6857 -0.1100 -0.1330
 7186TIP3    H145753   4.662   6.730   9.630 -0.0968 -0.4282 -0.0679
 7186TIP3    H245754   4.642   6.750   9.481 -0.0943  0.0456 -0.0058
 7187TIP3   OH245755   3.330   0.120  11.825  0.2261  0.6811  0.3475
 7187TIP3    H145756   3.400   0.174  11.787  2.0899 -1.3633  0.6320
 7187TIP3    H245757   3.338   0.036  11.779  0.9712 -1.0917  3.4246
 7188TIP3   OH245758   2.110   1.503  12.425 -0.1482 -0.4312  0.2001
 7188TIP3    H145759   2.196   1.545  12.425  1.0546 -2.7106 -0.1770
 7188TIP3    H245760   2.083   1.503  12.517  0.5656 -0.2469  0.4139
 7189TIP3   OH245761   0.578   1.118  11.809  0.3778 -0.1665  0.2377
 7189TIP3    H145762   0.649   1.175  11.838  0.2764  0.0054  0.1482
 7189TIP3    H245763   0.589   1.113  11.714 -2.0288  3.0503 -0.3941
 7190TIP3   OH245764   3.995   4.528  12.234 -0.4194  0.6159  0.2005
 7190TIP3    H145765   4.028   4.486  12.313  0.2505  1.4262  0.3577
 7190TIP3    H245766   4.013   4.464  12.164  1.7378  1.1027  0.2341
 7191TIP3   OH245767   1.684   6.382  10.484 -0.2000  0.2334 -0.9176
 7191TIP3    H145768   1.681   6.423  10.398  0.0651  0.2634 -0.9133
 7191TIP3    H245769   1.720   6.295  10.469 -1.0334 -0.1160 -0.9676
 7192TIP3   OH245770   3.034   4.545  12.005  0.1921  0.3491 -0.0792
 7192TIP3    H145771   2.959   4.603  12.007  1.7487  2.4769  1.0510
 7192TIP3    H245772   3.079   4.567  11.923  1.1163  1.2810  0.6432
 7193TIP3   OH245773   5.258   2.126  11.050  0.2727 -0.3083 -0.0731
 7193TIP3    H145774   5.273   2.034  11.027  1.1261 -0.3818  0.7124
 7193TIP3    H245775   5.336   2.171  11.018 -0.5221  0.2892 -1.2013
 7194TIP3   OH245776   1.850   4.478   9.564 -0.1433 -1.0629  0.1826
 7194TIP3    H145777   1.859   4.385   9.544 -1.3750 -0.6965 -2.5489
 7194TIP3    H245778   1.936   4.504   9.598  0.6622 -2.8896 -0.3312
 7195TIP3   OH245779   1.166   5.612  11.582 -0.0129 -0.5715 -0.3062
 7195TIP3    H145780   1.185   5.657  11.664  0.1303  0.1315 -0.7157
 7195TIP3    H245781   1.200   5.671  11.514  0.7625 -1.5874 -0.8320
 7196TIP3   OH245782   0.759   5.154  10.086  0.0134 -0.3469  0.2686
 7196TIP3    H145783   0.729   5.159  10.177 -1.2657 -0.5798 -0.1094
 7196TIP3    H245784   0.850   5.183  10.089 -0.0389 -0.2276  1.6005
 7197TIP3   OH245785   3.204   5.240   9.833 -0.1713  0.1220 -0.3926
 7197TIP3    H145786   3.194   5.150   9.861  0.0755  0.3735  0.5207
 7197TIP3    H245787   3.121   5.261   9.789 -0.1169 -0.6270 -0.8547
 7198TIP3   OH245788   6.461   0.127  12.523  0.1664 -0.6882 -0.5488
 7198TIP3    H145789   6.385   0.156  12.473  0.4218 -1.1986 -1.2606
 7198TIP3    H245790   6.519   0.203  12.525  0.0922 -0.6179 -0.9313
 7199TIP3   OH245791   3.010   6.465  11.905 -0.1178  0.0466  0.8278
 7199TIP3    H145792   3.022   6.410  11.982 -1.7530  0.8430  1.7062
 7199TIP3    H245793   2.916   6.463  11.888  0.2332 -0.3888 -1.3838
 7200TIP3   OH245794   0.401   2.881  11.235 -0.0217 -0.3954  0.0040
 7200TIP3    H145795   0.346   2.926  11.299  0.6827  0.2182  0.1803
 7200TIP3    H245796   0.380   2.788  11.247 -1.4769 -0.1414 -0.3567
 7201TIP3   OH245797   5.534   0.850   9.697 -0.2455  0.5675  0.4141
 7201TIP3    H145798   5.443   0.855   9.666 -0.1985 -1.4216 -0.1407
 7201TIP3    H245799   5.586   0.874   9.620 -0.2668  0.9016  0.5014
 7202TIP3   OH245800   5.742   5.705   9.135  0.1339  0.3003 -0.0741
 7202TIP3    H145801   5.770   5.743   9.052 -0.3176 -0.1607 -0.4443
 7202TIP3    H245802   5.658   5.663   9.115  0.4006 -0.4935  0.4302
 7203TIP3   OH245803   0.541   0.444   9.671  0.3007 -0.1885 -0.0796
 7203TIP3    H145804   0.584   0.484   9.595 -1.4710  1.0806 -0.4578
 7203TIP3    H245805   0.599   0.371   9.694  0.5421 -1.0948 -3.0833
 7204TIP3   OH245806   5.914   5.616  12.000  0.1962  0.2821 -0.5509
 7204TIP3    H145807   6.002   5.591  11.969  0.3240 -1.4344  1.0509
 7204TIP3    H245808   5.923   5.709  12.022  1.4366  0.2965 -0.9766
 7205TIP3   OH245809   2.248   2.372   9.852  0.0342  0.2554  0.0555
 7205TIP3    H145810   2.315   2.440   9.855  1.9244 -1.2104 -3.5334
 7205TIP3    H245811   2.296   2.290   9.865 -1.4817 -0.6803 -0.0059
 7206TIP3   OH245812   5.875   5.106  12.411  0.0541 -0.2283  0.0173
 7206TIP3    H145813   5.894   5.092  12.504  0.4556 -0.8161 -0.1523
 7206TIP3    H245814   5.831   5.192  12.409 -1.1915 -0.8043  0.8967
 7207TIP3   OH245815   5.812   1.078  10.291  0.0310  0.0476 -0.4895
 7207TIP3    H145816   5.810   1.174  10.297  1.9416  0.2007 -1.4487
 7207TIP3    H245817   5.868   1.051  10.363 -1.4275 -0.4950  0.4954
 7208TIP3   OH245818   3.720   4.090  11.030  0.1796  0.3459  0.1776
 7208TIP3    H145819   3.726   4.121  10.940  1.3407  0.8373  0.4136
 7208TIP3    H245820   3.784   4.142  11.078 -0.7430  0.4072  1.3887
 7209TIP3   OH245821   2.334   2.980  11.025  1.2975  0.6012  0.3011
 7209TIP3    H145822   2.366   3.068  11.043  0.4155  0.6247  1.9008
 7209TIP3    H245823   2.246   2.978  11.061  1.9160 -1.4588  1.9386
 7210TIP3   OH245824   1.327   0.058  10.100 -0.0114 -0.0233  0.2745
 7210TIP3    H145825   1.247   0.083  10.054  0.9295 -0.5832 -1.7822
 7210TIP3    H245826   1.373   0.140  10.114 -0.9487  0.3154  1.5669
 7211TIP3   OH245827   3.462   5.269  10.702 -0.7496  0.4517 -0.2343
 7211TIP3    H145828   3.377   5.229  10.716  0.2096 -1.0711  1.7251
 7211TIP3    H245829   3.501   5.217  10.631 -0.1156 -1.2192  1.2626
 7212TIP3   OH245830   1.461   5.043   9.777 -0.2278 -0.5101 -0.1259
 7212TIP3    H145831   1.441   4.977   9.710 -0.2847  0.0357 -0.6576
 7212TIP3    H245832   1.431   5.004   9.859 -0.5611 -1.0136 -0.4821
 7213TIP3   OH245833   1.185   0.261  10.438 -0.6250  0.8568  0.1859
 7213TIP3    H145834   1.105   0.299  10.476  0.5685  0.5263  3.3340
 7213TIP3    H245835   1.193   0.176  10.480  0.9877  0.5494 -0.6872
 7214TIP3   OH245836   4.788   1.254  10.373 -0.1620 -0.2012 -0.3278
 7214TIP3    H145837   4.873   1.283  10.339 -0.9288  2.2558 -0.3729
 7214TIP3    H245838   4.754   1.196  10.305  0.7380  0.1798 -1.1337
 7215TIP3   OH245839   5.290   4.139  11.485 -0.1944 -0.7688 -0.0622
 7215TIP3    H145840   5.358   4.119  11.420 -0.7589 -0.3052 -0.8194
 7215TIP3    H245841   5.241   4.058  11.494  0.1621 -0.9651  0.1219
 7216TIP3   OH245842   0.594   0.761  12.137  0.4666  0.3341  0.0793
 7216TIP3    H145843   0.517   0.753  12.081  1.4238  1.1452 -1.4115
 7216TIP3    H245844   0.642   0.836  12.101  1.3314  0.6160  1.7432
 7217TIP3   OH245845   3.501   6.026  10.447 -0.3372  0.1771  0.3664
 7217TIP3    H145846   3.448   5.990  10.376 -0.6470 -1.9738  1.6028
 7217TIP3    H245847   3.439   6.069  10.505 -0.3162  0.4283  0.2008
 7218TIP3   OH245848   2.493   5.328  13.004  0.2362  0.2971 -0.5288
 7218TIP3    H145849   2.434   5.276  13.058  0.9697  2.1037  2.2317
 7218TIP3    H245850   2.478   5.297  12.915 -2.8414 -1.2041  0.3724
 7219TIP3   OH245851   0.349   1.046  12.214 -0.2727 -0.4509  0.1845
 7219TIP3    H145852   0.312   1.015  12.296 -1.7555 -0.0243 -0.3049
 7219TIP3    H245853   0.372   0.966  12.167  0.6436 -0.6988  1.0039
 7220TIP3   OH245854   1.773   5.820  10.022  0.0332 -0.5444  0.2813
 7220TIP3    H145855   1.734   5.741  10.060 -0.5308 -0.5402 -0.2713
 7220TIP3    H245856   1.822   5.860  10.093 -1.0885 -0.4747  1.0353
 7221TIP3   OH245857   2.821   1.698   9.383 -0.1781 -0.3913 -0.4597
 7221TIP3    H145858   2.762   1.718   9.456  0.8249 -0.2719  0.3389
 7221TIP3    H245859   2.901   1.745   9.404 -0.0564  0.0884 -1.9301
 7222TIP3   OH245860   4.420   6.344  11.775 -0.6408 -0.2319 -0.4597
 7222TIP3    H145861   4.392   6.262  11.815  1.8105 -1.0833 -0.2943
 7222TIP3    H245862   4.443   6.320  11.685 -0.0690  0.3002 -0.4641
 7223TIP3   OH245863   2.395   5.766  12.718 -0.0498 -0.4656 -0.3145
 7223TIP3    H145864   2.472   5.788  12.666  1.3414 -0.2844  1.7268
 7223TIP3    H245865   2.334   5.838  12.702  1.4789  1.0762  0.4953
 7224TIP3   OH245866   4.782   5.909   9.673  0.0458 -0.9349 -0.0658
 7224TIP3    H145867   4.863   5.932   9.719  0.2895 -3.1036  0.7092
 7224TIP3    H245868   4.797   5.820   9.642 -0.3171  0.1717 -3.9827
 7225TIP3   OH245869   0.306   1.838  10.302  0.3305  0.1055 -0.4127
 7225TIP3    H145870   0.234   1.802  10.354  0.8265  0.5374  0.5962
 7225TIP3    H245871   0.355   1.894  10.363  1.9093 -0.6844 -0.9027
 7226TIP3   OH245872   3.646   0.387  10.605  0.6240 -0.0778  0.1330
 7226TIP3    H145873   3.584   0.451  10.640  0.5524 -0.8369  1.4306
 7226TIP3    H245874   3.597   0.343  10.535  0.2175  0.3509  0.1422
 7227TIP3   OH245875   2.561   4.932   9.700  0.6609 -0.2084  0.0267
 7227TIP3    H145876   2.543   5.006   9.757 -1.4888  1.1065 -2.1689
 7227TIP3    H245877   2.645   4.953   9.658  0.6927  0.3471  0.3724
 7228TIP3   OH245878   2.462   3.550  11.416 -0.7390 -0.1202 -0.2504
 7228TIP3    H145879   2.491   3.641  11.422  0.3200 -0.4272 -0.5407
 7228TIP3    H245880   2.430   3.529  11.504 -2.2273  0.9186 -0.5119
 7229TIP3   OH245881   0.944   1.259  12.084 -0.0779 -0.8403  0.4800
 7229TIP3    H145882   0.873   1.294  12.030 -0.3548  0.1178  1.4219
 7229TIP3    H245883   0.931   1.300  12.170  0.5447 -2.0616  1.1790
 7230TIP3   OH245884   1.623   5.312  10.693 -0.0692  0.6620  0.0343
 7230TIP3    H145885   1.710   5.350  10.682  0.2317 -0.4355 -1.8427
 7230TIP3    H245886   1.577   5.334  10.612 -0.2971 -1.7340 -0.5775
 7231TIP3   OH245887   3.211   4.471   9.654 -0.1164  0.3419 -0.1022
 7231TIP3    H145888   3.200   4.400   9.718 -0.0831 -2.4931 -2.9926
 7231TIP3    H245889   3.297   4.508   9.674 -0.3003 -0.0875  1.7257
 7232TIP3   OH245890   3.312   3.190  12.110  0.3377 -0.0915  0.0613
 7232TIP3    H145891   3.322   3.145  12.026 -1.5405 -2.7279  1.1125
 7232TIP3    H245892   3.251   3.262  12.092 -1.5343 -1.7497 -0.5576
 7233TIP3   OH245893   6.425   5.090  12.788  0.1840  0.0355 -0.3374
 7233TIP3    H145894   6.362   5.022  12.763 -0.3622 -0.0991  1.3014
 7233TIP3    H245895   6.372   5.170  12.792  0.4515  0.2208 -0.5113
 7234TIP3   OH245896   0.572   4.191  11.056 -0.0143  0.3504 -0.6612
 7234TIP3    H145897   0.535   4.279  11.066  1.9218  0.9471  2.6164
 7234TIP3    H245898   0.662   4.206  11.025  0.6910 -0.3335  0.9460
 7235TIP3   OH245899   6.401   1.598  11.080 -0.0201  0.0928  0.2601
 7235TIP3    H145900   6.363   1.686  11.072 -1.1832 -0.2436  1.5976
 7235TIP3    H245901   6.439   1.597  11.168  0.7927 -0.4627 -0.0884
 7236TIP3   OH245902   2.839   6.449  10.387  0.1981 -0.4754  0.0386
 7236TIP3    H145903   2.768   6.428  10.327 -2.3349 -0.6886  2.9115
 7236TIP3    H245904   2.854   6.543  10.375 -1.1947 -0.2519 -0.0197
 7237TIP3   OH245905   6.154   5.456  11.322 -0.8991  0.6619  0.5023
 7237TIP3    H145906   6.142   5.548  11.345 -3.3467  0.5408 -0.0059
 7237TIP3    H245907   6.067   5.427  11.294 -0.0728 -1.6753  0.1472
 7238TIP3   OH245908   4.401   0.094  11.516 -0.9689 -0.1124  0.4274
 7238TIP3    H145909   4.454   0.166  11.551 -1.0240  0.0931  0.0906
 7238TIP3    H245910   4.412   0.024  11.580 -1.9554  0.6224  1.4568
 7239TIP3   OH245911   0.737   0.004  11.756  0.1862  0.0671 -0.4862
 7239TIP3    H145912   0.674  -0.007  11.827 -1.0760  0.0377 -1.5571
 7239TIP3    H245913   0.799  -0.068  11.766 -0.6055 -0.5658 -0.0491
 7240TIP3   OH245914   2.229   3.456  12.841 -0.2594  0.7073  0.1421
 7240TIP3    H145915   2.153   3.438  12.896 -1.2398  0.7696 -1.1405
 7240TIP3    H245916   2.297   3.397  12.874 -1.2969 -0.3660  0.4202
 7241TIP3   OH245917   3.373   6.664  12.354  0.1069  0.1303  0.1055
 7241TIP3    H145918   3.365   6.665  12.258 -0.5036  1.3341  0.1569
 7241TIP3    H245919   3.283   6.666  12.385  0.3229  2.2987  0.6994
 7242TIP3   OH245920   6.156   0.441  12.588 -0.1229 -0.3052 -0.3477
 7242TIP3    H145921   6.224   0.505  12.612  0.2300 -0.9149  0.3217
 7242TIP3    H245922   6.155   0.379  12.661 -0.4677 -1.0592 -0.9753
 7243TIP3   OH245923   3.301   1.481  12.675  0.0738 -0.0445  0.6287
 7243TIP3    H145924   3.218   1.455  12.635  1.4717 -0.3307 -2.3844
 7243TIP3    H245925   3.305   1.576  12.663  0.3950 -0.0987  0.2909
 7244TIP3   OH245926   1.378   1.831  10.164 -0.6492 -0.3068 -0.2897
 7244TIP3    H145927   1.361   1.899  10.099 -0.5484 -0.4160 -0.4320
 7244TIP3    H245928   1.357   1.872  10.248  0.9815  0.4671 -0.2048
 7245TIP3   OH245929   2.494   2.165  12.496 -0.2907  0.0501 -0.3600
 7245TIP3    H145930   2.518   2.257  12.485  0.3190 -0.1883 -1.0555
 7245TIP3    H245931   2.413   2.155  12.446 -1.2940  0.5907  1.0843
 7246TIP3   OH245932   6.138   3.291  12.023 -0.4781  0.3116  0.7377
 7246TIP3    H145933   6.061   3.257  11.977  0.2247  0.6705 -0.7332
 7246TIP3    H245934   6.110   3.375  12.059 -0.8767  0.2830  0.4976
 7247TIP3   OH245935   5.283   1.876  10.781  0.2718  0.4406  0.4218
 7247TIP3    H145936   5.212   1.813  10.769  1.6531 -0.9875 -0.6572
 7247TIP3    H245937   5.330   1.846  10.859  0.2252  0.8723  0.6243
 7248TIP3   OH245938   5.862   2.745  11.813 -0.0811 -0.1670  0.2325
 7248TIP3    H145939   5.918   2.681  11.769 -0.5957 -0.6608  0.2770
 7248TIP3    H245940   5.860   2.715  11.904  1.9702  1.5390  0.9172
 7249TIP3   OH245941   0.283   1.023  11.327  0.4291 -0.1636  0.0734
 7249TIP3    H145942   0.345   1.083  11.285  0.6736 -0.4725 -0.0195
 7249TIP3    H245943   0.215   1.008  11.261 -0.1470  0.7704  0.4524
 7250TIP3   OH245944   3.518   3.285  12.585 -0.5729 -0.1403 -0.2378
 7250TIP3    H145945   3.520   3.324  12.497  0.4793  1.2670  0.3848
 7250TIP3    H245946   3.609   3.265  12.604 -0.9300 -1.6155  0.0662
 7251TIP3   OH245947   0.225   5.587  10.616 -0.1791 -0.3272  0.6527
 7251TIP3    H145948   0.274   5.655  10.570 -0.7989  0.0235  0.5003
 7251TIP3    H245949   0.140   5.585  10.573  0.0346 -1.6593  0.2222
 7252TIP3   OH245950   1.101   5.887  12.945  0.5331  0.0620 -0.8745
 7252TIP3    H145951   1.070   5.799  12.924  0.5597 -0.7399  2.0602
 7252TIP3    H245952   1.021   5.935  12.967  0.7195  0.0203 -0.0744
 7253TIP3   OH245953   4.887   1.852  11.648 -0.5194 -0.9586 -0.0837
 7253TIP3    H145954   4.891   1.757  11.657 -1.0353 -0.8996  0.8609
 7253TIP3    H245955   4.800   1.876  11.680 -0.4955 -0.1982 -0.5777
 7254TIP3   OH245956   6.132   4.813  11.737  0.0682 -0.3626  0.2061
 7254TIP3    H145957   6.137   4.806  11.642 -1.4774  0.3200  0.0463
 7254TIP3    H245958   6.215   4.853  11.763  0.3023 -0.1048 -0.9016
 7255TIP3   OH245959   4.556   5.963  12.651 -0.0178 -0.1732  0.2716
 7255TIP3    H145960   4.517   5.890  12.602  0.5355 -0.3319  0.0526
 7255TIP3    H245961   4.488   5.989  12.713 -0.2141 -0.9077  0.3839
 7256TIP3   OH245962   4.926   2.465  11.902 -0.1322 -0.3188  0.1167
 7256TIP3    H145963   4.944   2.371  11.906 -0.5221 -0.3839  0.3757
 7256TIP3    H245964   4.988   2.499  11.837  0.8755 -0.5346  0.9603
 7257TIP3   OH245965   4.373   5.800  12.481  0.1968  0.6543 -0.6670
 7257TIP3    H145966   4.346   5.889  12.457  0.2496  0.4415 -1.5564
 7257TIP3    H245967   4.426   5.770  12.407 -1.4087 -0.8290 -1.2846
 7258TIP3   OH245968   6.664   1.752  10.172 -0.2307  0.2590  0.0956
 7258TIP3    H145969   6.714   1.701  10.109 -0.9006 -0.1221 -0.1395
 7258TIP3    H245970   6.694   1.842  10.159  0.4995  0.0202  0.0716
 7259TIP3   OH245971   3.692   6.314  12.264 -0.1049 -0.2175  0.2644
 7259TIP3    H145972   3.613   6.304  12.317 -0.5321  0.4869 -0.2121
 7259TIP3    H245973   3.729   6.398  12.291 -0.5675  0.3691 -0.8216
 7260TIP3   OH245974   1.166   2.584  10.343  0.4355  0.0001  0.0988
 7260TIP3    H145975   1.104   2.613  10.276  1.0669 -1.8864 -1.3978
 7260TIP3    H245976   1.112   2.544  10.411 -0.0564 -1.8142 -1.2832
 7261TIP3   OH245977   3.710   3.724  11.819  0.3341  0.4239 -0.2561
 7261TIP3    H145978   3.746   3.638  11.796  0.5679  0.8106 -1.3707
 7261TIP3    H245979   3.767   3.787  11.775 -0.4373  1.1250 -0.2776
 7262TIP3   OH245980   3.691   5.511  11.995 -0.4950  0.6176 -0.1646
 7262TIP3    H145981   3.634   5.441  11.963 -0.0032  0.2344 -0.2239
 7262TIP3    H245982   3.660   5.529  12.083 -1.0897  0.8323 -0.4150
 7263TIP3   OH245983   4.998   1.038  11.475  0.0390 -0.5903  0.0735
 7263TIP3    H145984   4.928   1.057  11.412 -0.5705  0.7824  1.1002
 7263TIP3    H245985   5.015   0.945  11.465 -0.4819 -0.5365 -1.6611
 7264TIP3   OH245986   6.572   6.290  10.686 -0.4392  0.3231  0.3964
 7264TIP3    H145987   6.593   6.322  10.598 -1.5167 -1.9806 -0.7760
 7264TIP3    H245988   6.646   6.235  10.710 -1.4425 -1.4414 -0.3874
 7265TIP3   OH245989   2.436   2.229  18.990  0.6533 -0.2826 -0.7984
 7265TIP3    H145990   2.426   2.138  19.016  1.5990 -0.2649 -0.3104
 7265TIP3    H245991   2.458   2.226  18.897  0.2481 -0.5234 -0.8867
 7266TIP3   OH245992   1.712   6.670  10.057 -0.8215  0.3872  0.1608
 7266TIP3    H145993   1.672   6.747  10.017 -1.3191  0.4563  0.7812
 7266TIP3    H245994   1.694   6.679  10.150 -0.6843 -0.3645  0.2640
 7267TIP3   OH245995   2.704   5.737  10.016  0.2606  0.3752 -0.1134
 7267TIP3    H145996   2.610   5.753  10.007 -0.8234 -3.1515  2.5987
 7267TIP3    H245997   2.733   5.803  10.080 -0.1823  1.8131 -1.3381
 7268TIP3   OH245998   1.883   4.591  12.784  0.2796 -0.6320 -0.4078
 7268TIP3    H145999   1.816   4.628  12.842  1.3026 -2.1399  1.9256
 7268TIP3    H246000   1.964   4.636  12.809  0.1399  1.9004 -3.8889
 7269TIP3   OH246001   5.744   1.663  12.289 -0.1542  0.2295 -0.7870
 7269TIP3    H146002   5.784   1.669  12.375 -1.8694 -4.8997  0.7139
 7269TIP3    H246003   5.655   1.695  12.301 -0.7900 -1.6602 -0.2136
 7270TIP3   OH246004   5.616   1.314  10.627 -0.6604 -0.4982 -0.0610
 7270TIP3    H146005   5.703   1.278  10.640  0.2385  2.0244  1.7617
 7270TIP3    H246006   5.618   1.354  10.540  0.1605 -0.1173  0.1281
 7271TIP3   OH246007   3.412   4.955  10.140 -0.4520 -0.1288  0.2709
 7271TIP3    H146008   3.350   4.990  10.203  0.1836  0.4064  0.6130
 7271TIP3    H246009   3.440   5.031  10.089  0.0178 -0.3425  0.2058
 7272TIP3   OH246010   6.362   6.593  12.261 -0.9062  0.1159 -0.1522
 7272TIP3    H146011   6.447   6.600  12.304 -0.7663 -1.7544 -0.0277
 7272TIP3    H246012   6.368   6.650  12.185  0.0206  0.9293  0.5124
 7273TIP3   OH246013   4.438   5.343  12.401  0.5288 -0.1986 -0.1499
 7273TIP3    H146014   4.359   5.390  12.427 -0.6345 -0.9932 -2.0621
 7273TIP3    H246015   4.497   5.352  12.476 -1.8792 -0.8087  1.9495
 7274TIP3   OH246016   4.976   6.345  12.270 -0.6184  0.1031 -0.2001
 7274TIP3    H146017   4.994   6.420  12.213  1.4801  0.6809  1.0734
 7274TIP3    H246018   4.942   6.384  12.351  2.0845 -0.0295  1.1227
 7275TIP3   OH246019   6.092   4.624  10.176 -0.5878  0.2483 -0.0524
 7275TIP3    H146020   6.020   4.642  10.115  0.1279  0.9231 -0.7210
 7275TIP3    H246021   6.048   4.602  10.259 -1.5887 -1.5688 -1.0140
 7276TIP3   OH246022   2.748   4.370  12.059 -0.7098  0.2605  0.1181
 7276TIP3    H146023   2.760   4.386  12.152  0.1358  1.0912 -0.1290
 7276TIP3    H246024   2.756   4.275  12.051 -0.7370  0.1844  0.8800
 7277TIP3   OH246025   0.294   4.644  12.220 -0.1832 -0.0206  0.5090
 7277TIP3    H146026   0.384   4.652  12.189 -0.0572 -0.4995  0.7327
 7277TIP3    H246027   0.260   4.733  12.220 -0.7428 -0.1204 -2.5786
 7278TIP3   OH246028   1.655   1.306  11.288  0.0551 -0.1528  0.2556
 7278TIP3    H146029   1.669   1.285  11.195  0.4415  0.7657  0.0999
 7278TIP3    H246030   1.676   1.224  11.334 -0.9440 -0.8681 -0.5142
 7279TIP3   OH246031   3.537   0.080  11.166 -0.7039  0.3192  0.7282
 7279TIP3    H146032   3.535  -0.007  11.127  1.4423  0.6701 -0.3334
 7279TIP3    H246033   3.518   0.139  11.093 -1.8173  0.7697  1.3667
 7280TIP3   OH246034   3.563   5.540  10.914 -0.2015  0.3158  0.2974
 7280TIP3    H146035   3.489   5.524  10.974 -1.3654  1.6529 -0.7267
 7280TIP3    H246036   3.522   5.560  10.830  1.2438  3.1253  0.1613
 7281TIP3   OH246037   2.974   3.674  12.671 -0.7551 -0.1170  0.3765
 7281TIP3    H146038   2.986   3.582  12.693 -1.0002  0.1265  1.5827
 7281TIP3    H246039   2.948   3.716  12.753  1.4480  1.4193  0.3811
 7282TIP3   OH246040   2.105   5.913  12.733  0.0878 -0.2336  0.1946
 7282TIP3    H146041   2.154   5.984  12.691 -0.2566  0.0213  0.2206
 7282TIP3    H246042   2.099   5.939  12.825 -1.9637  0.8390 -0.1648
 7283TIP3   OH246043   3.134   1.384  12.001  0.3407  0.1789  0.2219
 7283TIP3    H146044   3.061   1.358  12.058  0.3257  0.1384  0.1842
 7283TIP3    H246045   3.095   1.389  11.914  0.1515  1.1775  0.3590
 7284TIP3   OH246046   6.098   4.168  12.138 -1.0818  0.0131 -0.0173
 7284TIP3    H146047   6.052   4.085  12.151  1.2260 -1.4795 -0.8549
 7284TIP3    H246048   6.106   4.177  12.043  1.2210 -0.3529  0.0881
 7285TIP3   OH246049   4.521   3.406  10.863  0.1669 -0.4481  0.5720
 7285TIP3    H146050   4.580   3.330  10.862  1.4871  0.5227  1.3292
 7285TIP3    H246051   4.523   3.438  10.772 -0.0061 -1.0229  0.3617
 7286TIP3   OH246052   1.544   4.775  11.898 -0.3726 -0.3721  0.0915
 7286TIP3    H146053   1.636   4.778  11.870  0.3446 -1.1971  2.1434
 7286TIP3    H246054   1.547   4.800  11.991 -2.5243  1.7010 -0.2976
 7287TIP3   OH246055   1.725   2.807  11.626  0.0586 -0.1861  0.2110
 7287TIP3    H146056   1.814   2.779  11.646 -0.0534 -1.8198 -1.3392
 7287TIP3    H246057   1.729   2.839  11.536 -0.4470  2.1605  0.9599
 7288TIP3   OH246058   2.189   1.162  10.372  0.1737 -0.8349 -0.1216
 7288TIP3    H146059   2.201   1.176  10.466  0.5855 -3.5400  0.3114
 7288TIP3    H246060   2.276   1.139  10.341  0.0498  0.0873 -1.2305
 7289TIP3   OH246061   5.931   3.514  11.156  0.0858  0.0672 -0.1888
 7289TIP3    H146062   5.841   3.536  11.131  0.1470  0.4737 -0.0645
 7289TIP3    H246063   5.982   3.528  11.076  0.0244 -0.2462 -0.2821
 7290TIP3   OH246064   6.051   0.356  13.022 -0.1154 -0.3400  0.7909
 7290TIP3    H146065   5.979   0.305  13.059 -0.6159  0.0051  0.3181
 7290TIP3    H246066   6.010   0.438  12.994  0.4351 -0.1958  0.3828
 7291TIP3   OH246067   1.554   1.023  12.344  0.0095 -0.1525  0.7064
 7291TIP3    H146068   1.630   1.057  12.297 -1.2565  1.3440 -0.3796
 7291TIP3    H246069   1.564   1.055  12.433  0.3499  0.5756  0.4099
 7292TIP3   OH246070   3.782   4.887   9.967 -0.0548 -0.1883 -0.3296
 7292TIP3    H146071   3.844   4.816   9.949  1.1387  1.1151 -1.6373
 7292TIP3    H246072   3.831   4.950  10.020  0.7553  2.0688 -3.4434
 7293TIP3   OH246073   4.682   1.046  11.589 -0.2674 -0.1857  0.0244
 7293TIP3    H146074   4.597   1.014  11.559 -1.2883  1.8893  0.5122
 7293TIP3    H246075   4.731   1.065  11.509 -0.4009 -1.0336 -0.2642
 7294TIP3   OH246076   0.555   2.719   9.871 -0.0815 -0.0857  0.3273
 7294TIP3    H146077   0.574   2.751   9.782  0.3880 -0.0007  0.4543
 7294TIP3    H246078   0.532   2.797   9.920 -1.0910 -0.2234  0.1028
 7295TIP3   OH246079   5.265   0.021  12.789 -0.3885  0.0782  0.0685
 7295TIP3    H146080   5.261  -0.073  12.808 -1.7038  0.2522  0.8314
 7295TIP3    H246081   5.173   0.048  12.785 -0.0407  1.1592 -1.0938
 7296TIP3   OH246082   1.466   4.297  10.994  0.6613  0.2399 -0.1973
 7296TIP3    H146083   1.515   4.312  10.913 -1.6276 -0.3453 -1.7944
 7296TIP3    H246084   1.430   4.209  10.983  1.5233 -0.4790  2.1894
 7297TIP3   OH246085   0.086   2.748  11.031 -0.0142  0.7523 -0.3094
 7297TIP3    H146086   0.150   2.677  11.021 -0.2620  0.5159 -0.2487
 7297TIP3    H246087   0.014   2.724  10.973 -1.4107 -0.5834  1.8228
 7298TIP3   OH246088   0.772   6.195   9.722 -0.2026 -0.5597  0.1494
 7298TIP3    H146089   0.711   6.222   9.791 -0.2846 -0.6639  0.1183
 7298TIP3    H246090   0.793   6.277   9.676  0.1295 -0.4376  0.5166
 7299TIP3   OH246091   0.126   0.394  11.113 -0.2300  0.1482 -0.5288
 7299TIP3    H146092   0.184   0.467  11.090 -0.0083  0.6229  1.3810
 7299TIP3    H246093   0.171   0.316  11.082  0.7410  0.6388 -0.3769
 7300TIP3   OH246094   5.599   3.704  12.016 -0.2942  0.0985  0.3419
 7300TIP3    H146095   5.599   3.643  11.943 -1.1505 -0.3223  0.6827
 7300TIP3    H246096   5.510   3.737  12.020  0.7690  3.8217 -1.8240
 7301TIP3   OH246097   4.720   5.134  12.696  0.4440  0.3592  0.1827
 7301TIP3    H146098   4.777   5.073  12.648 -1.1093 -0.0481 -1.2537
 7301TIP3    H246099   4.777   5.206  12.722  1.9661 -0.8754  0.3829
 7302TIP3   OH246100   4.586   4.030  10.599  0.0591  0.4930 -0.6722
 7302TIP3    H146101   4.503   4.000  10.636  0.4307  0.3882  0.1029
 7302TIP3    H246102   4.591   3.988  10.513 -0.3003 -0.1780 -0.3747
 7303TIP3   OH246103   2.826   1.529   9.175 -0.5891  0.1229 -0.0966
 7303TIP3    H146104   2.808   1.593   9.244  0.3596  1.8906 -1.3896
 7303TIP3    H246105   2.757   1.544   9.110 -0.3169 -0.0886 -0.4415
 7304TIP3   OH246106   0.510   3.118  10.417 -0.4268  0.4161  0.4090
 7304TIP3    H146107   0.538   3.209  10.416 -2.1195  1.0541  2.6300
 7304TIP3    H246108   0.488   3.101  10.509 -1.6416 -1.7565 -0.2231
 7305TIP3   OH246109   2.458   6.262  12.353  0.5360 -0.6860  0.8297
 7305TIP3    H146110   2.474   6.316  12.431  1.3235  0.7962 -0.3223
 7305TIP3    H246111   2.500   6.309  12.282 -1.1605 -1.4022 -0.7271
 7306TIP3   OH246112   2.192   3.697  11.740 -0.6398 -0.0171  0.4200
 7306TIP3    H146113   2.166   3.723  11.829  1.8006 -0.9510  1.4958
 7306TIP3    H246114   2.180   3.776  11.687 -1.2433  0.8403  1.7840
 7307TIP3   OH246115   3.826   2.254  11.501 -0.2058 -0.2033  0.1250
 7307TIP3    H146116   3.738   2.222  11.517 -0.3342 -1.1887 -2.2693
 7307TIP3    H246117   3.871   2.183  11.457  1.3127  0.8613 -0.1457
 7308TIP3   OH246118   5.494   2.853  10.302  0.0233  0.0833 -0.1904
 7308TIP3    H146119   5.517   2.932  10.351  0.9017 -0.6266  0.5708
 7308TIP3    H246120   5.574   2.830  10.255 -0.0006 -0.7792  0.1899
 7309TIP3   OH246121   4.525   1.680  10.797 -0.6779  0.1106 -0.1859
 7309TIP3    H146122   4.459   1.718  10.854  0.3246 -0.6115  1.5698
 7309TIP3    H246123   4.503   1.587  10.793  0.3119 -0.1794  0.5986
 7310TIP3   OH246124   3.643   6.619  12.243  0.4531  0.8490  0.4030
 7310TIP3    H146125   3.684   6.701  12.271  1.2751  0.1566  1.3014
 7310TIP3    H246126   3.559   6.617  12.290 -0.9239  2.4950 -1.7987
 7311TIP3   OH246127   1.544   4.775  10.120  0.2038 -0.2087 -0.1728
 7311TIP3    H146128   1.567   4.834  10.191  1.5394 -0.1247 -0.6451
 7311TIP3    H246129   1.473   4.820  10.073  1.8241  1.5336 -1.0961
 7312TIP3   OH246130   4.327   5.313  11.715 -0.2790 -0.7402  0.2407
 7312TIP3    H146131   4.238   5.341  11.736 -0.7101  0.8199 -3.0269
 7312TIP3    H246132   4.383   5.363  11.774 -1.3763  2.6674 -1.3717
 7313TIP3   OH246133   6.361   5.786  10.944  0.1124  0.2060 -0.0772
 7313TIP3    H146134   6.389   5.862  10.893 -1.2474  1.0141  0.3337
 7313TIP3    H246135   6.283   5.816  10.991  1.1438 -0.5687  2.2807
 7314TIP3   OH246136   5.883   3.052  13.059  0.0197 -0.1378 -0.1424
 7314TIP3    H146137   5.843   3.126  13.013 -0.8013  1.6560  3.1661
 7314TIP3    H246138   5.886   3.079  13.151 -1.4292 -4.6364  1.5181
 7315TIP3   OH246139   4.290   4.053  10.507 -0.3959 -0.3966 -0.0724
 7315TIP3    H146140   4.238   4.062  10.428 -0.9192 -0.7030  0.2304
 7315TIP3    H246141   4.310   3.960  10.513  0.0928 -0.2975 -0.1269
 7316TIP3   OH246142   1.300   4.878  10.881  0.2086 -0.3092  0.3784
 7316TIP3    H146143   1.246   4.941  10.927 -0.0690  0.3211 -0.7724
 7316TIP3    H246144   1.285   4.896  10.788  1.0412 -1.2825  0.0292
 7317TIP3   OH246145   5.390   3.172  12.122  0.2183 -0.5037  0.1287
 7317TIP3    H146146   5.330   3.140  12.189 -0.8837  1.2773  0.0580
 7317TIP3    H246147   5.392   3.102  12.056 -0.2102 -1.4346  1.0796
 7318TIP3   OH246148   4.252   2.620  11.966 -0.2187 -0.0070 -0.3306
 7318TIP3    H146149   4.255   2.630  11.871  1.2519  3.2574 -0.0813
 7318TIP3    H246150   4.234   2.708  11.998  3.0138 -0.2054  2.5156
 7319TIP3   OH246151   3.240   0.262  11.100 -0.0342  0.3482 -0.2322
 7319TIP3    H146152   3.204   0.198  11.162 -0.1416  1.7573  1.2420
 7319TIP3    H246153   3.275   0.332  11.156 -1.2986  2.3292 -1.7843
 7320TIP3   OH246154   5.253   1.437  13.021 -0.2297 -0.3980 -0.5009
 7320TIP3    H146155   5.309   1.364  12.995  0.4870  0.1034 -0.3940
 7320TIP3    H246156   5.299   1.515  12.990 -0.3731  0.0805  0.4376
 7321TIP3   OH246157   3.444   6.487  11.524  0.5094 -0.3609 -0.1861
 7321TIP3    H146158   3.459   6.407  11.574  2.9328 -1.2170 -2.0795
 7321TIP3    H246159   3.528   6.533  11.525 -1.2259  3.2940  2.4090
 7322TIP3   OH246160   1.052   4.034  12.322 -0.2073 -0.1207 -0.6125
 7322TIP3    H146161   0.958   4.052  12.312  0.0020 -0.0392 -3.2634
 7322TIP3    H246162   1.092   4.078  12.247  1.5451 -2.8182 -1.4073
 7323TIP3   OH246163   5.272   3.527  11.151  0.1584  0.0429  0.0723
 7323TIP3    H146164   5.198   3.467  11.160  0.9306 -0.8152  0.8746
 7323TIP3    H246165   5.294   3.526  11.058  0.1137 -0.8538  0.0702
 7324TIP3   OH246166   0.115   0.673  10.252 -0.1952  0.3122  0.5376
 7324TIP3    H146167   0.193   0.632  10.216 -0.4128 -0.7741  1.2245
 7324TIP3    H246168   0.065   0.702  10.176 -1.1238 -2.8009 -0.2039
 7325TIP3   OH246169   6.628   6.225  10.111 -0.1616  0.0664 -0.1967
 7325TIP3    H146170   6.556   6.212  10.173 -1.0806  0.0225 -1.2294
 7325TIP3    H246171   6.602   6.302  10.060  0.8688  0.4736 -0.1367
 7326TIP3   OH246172   3.786   1.613   9.434  0.0674  0.2243  0.4666
 7326TIP3    H146173   3.849   1.634   9.504  2.2918  1.6426 -1.7759
 7326TIP3    H246174   3.720   1.682   9.441 -0.2995 -0.2322  1.7587
 7327TIP3   OH246175   2.971   4.587   9.538 -0.3424 -0.0519 -0.1406
 7327TIP3    H146176   2.906   4.523   9.567 -0.8458 -0.4747 -2.0171
 7327TIP3    H246177   3.047   4.570   9.593 -0.9378 -1.3570  0.3283
 7328TIP3   OH246178   1.490   5.532   9.856 -0.4018  0.1403  0.1080
 7328TIP3    H146179   1.409   5.527   9.805  0.6481 -0.0986 -1.6342
 7328TIP3    H246180   1.489   5.453   9.910 -0.7733 -0.4740 -0.7779
 7329TIP3   OH246181   3.957   4.799  10.522 -0.0252  0.1715 -0.3063
 7329TIP3    H146182   3.877   4.757  10.554 -0.1408  0.7485  0.1727
 7329TIP3    H246183   3.945   4.892  10.542  1.0711  0.1759  0.4005
 7330TIP3   OH246184   1.793   3.687  11.625  0.2177 -0.3270 -0.3720
 7330TIP3    H146185   1.782   3.683  11.530  0.0069  0.6772 -0.3953
 7330TIP3    H246186   1.854   3.759  11.640  0.5870 -0.7584  0.2347
 7331TIP3   OH246187   5.736   4.559  10.499  0.2660 -0.0444 -0.0686
 7331TIP3    H146188   5.760   4.567  10.592 -0.6893  1.4312  0.0792
 7331TIP3    H246189   5.813   4.589  10.451  0.5359 -0.2158  0.2507
 7332TIP3   OH246190   1.908   1.641  11.104  0.5826  0.0586  0.3564
 7332TIP3    H146191   1.864   1.696  11.169  0.3586  2.4334 -1.6731
 7332TIP3    H246192   2.000   1.644  11.129  0.6246  1.7080  0.0996
 7333TIP3   OH246193   5.059   6.639  11.812 -0.6835  0.1954 -0.5867
 7333TIP3    H146194   5.081   6.621  11.903 -0.8225 -1.0494 -0.7795
 7333TIP3    H246195   4.971   6.676  11.816 -0.0074  1.8680 -0.0991
 7334TIP3   OH246196   2.801   6.369  12.293  0.2422  0.3154 -0.1362
 7334TIP3    H146197   2.813   6.315  12.371 -2.5544 -0.0445  0.1762
 7334TIP3    H246198   2.887   6.407  12.276  1.1052 -0.0776  2.7541
 7335TIP3   OH246199   2.169   3.929  11.588 -0.0544  0.2891  0.1196
 7335TIP3    H146200   2.166   4.015  11.629 -1.2466 -0.3065  1.3712
 7335TIP3    H246201   2.193   3.946  11.497  1.0024  1.8093  0.6488
 7336TIP3   OH246202   0.390   3.565   9.996 -0.1474 -0.1195 -0.3934
 7336TIP3    H146203   0.301   3.558   9.962 -0.4624 -1.4055  0.6257
 7336TIP3    H246204   0.443   3.515   9.934 -0.7704 -2.7458  1.0068
 7337TIP3   OH246205   0.479   1.999  10.468 -0.0001 -0.6635  0.1629
 7337TIP3    H146206   0.519   2.085  10.458  0.1008 -0.7851 -0.5114
 7337TIP3    H246207   0.526   1.959  10.541 -1.3776  0.5982  1.8229
 7338TIP3   OH246208   0.159   4.103   9.850 -0.0288 -0.4525 -0.3119
 7338TIP3    H146209   0.216   4.029   9.871  1.1358 -0.5345 -3.3391
 7338TIP3    H246210   0.219   4.174   9.829 -1.1401  1.0957  1.4509
 7339TIP3   OH246211   6.462   3.664  11.651 -0.0643  0.0300  0.2242
 7339TIP3    H146212   6.482   3.594  11.713  2.9015  0.2969 -0.2853
 7339TIP3    H246213   6.486   3.744  11.698  0.4899  0.3687 -0.6128
 7340TIP3   OH246214   1.329   5.307   9.766 -0.2594  0.1153  0.4715
 7340TIP3    H146215   1.304   5.364   9.693  0.2557 -1.3407 -0.8990
 7340TIP3    H246216   1.391   5.245   9.728  0.4164 -0.3901  2.2868
 7341TIP3   OH246217   3.245   2.586  11.509 -0.2710 -0.2099 -0.2811
 7341TIP3    H146218   3.271   2.675  11.531  2.5652 -1.1079  0.3319
 7341TIP3    H246219   3.243   2.585  11.413 -0.2036  0.4544 -0.2943
 7342TIP3   OH246220   6.264   2.505  10.888 -0.3373  0.3805 -0.0017
 7342TIP3    H146221   6.172   2.521  10.865 -0.5634 -1.0598 -0.1801
 7342TIP3    H246222   6.264   2.419  10.930  0.7270  1.0318  1.4116
 7343TIP3   OH246223   2.366   5.249   9.621 -0.4180 -0.3990  0.3128
 7343TIP3    H146224   2.320   5.210   9.546 -2.0412  0.1220  0.9895
 7343TIP3    H246225   2.339   5.341   9.620 -0.9931 -0.5200  1.8817
 7344TIP3   OH246226   2.492   2.026  11.739  0.1543 -0.3094  0.4699
 7344TIP3    H146227   2.579   2.017  11.701 -0.7633  0.3927 -2.0076
 7344TIP3    H246228   2.439   1.960  11.693 -1.4141  1.8036 -0.9787
 7345TIP3   OH246229   5.821   1.164  12.780  0.3447 -0.5566 -0.0029
 7345TIP3    H146230   5.856   1.075  12.769  0.2006 -0.4083 -2.0358
 7345TIP3    H246231   5.736   1.162  12.736  0.8191  0.8501 -1.0305
 7346TIP3   OH246232   3.732   4.422  11.760 -0.4509  0.3024 -0.5821
 7346TIP3    H146233   3.645   4.390  11.734 -1.1165 -0.1997  1.9807
 7346TIP3    H246234   3.714   4.506  11.801  0.6440  1.4149 -2.2462
 7347TIP3   OH246235   6.528   3.487  11.866  0.1522  0.7296  0.3005
 7347TIP3    H146236   6.447   3.486  11.918  0.4320 -0.7475  0.7636
 7347TIP3    H246237   6.595   3.456  11.927  1.1792  2.3675  0.0527
 7348TIP3   OH246238   0.779   2.669  11.297  0.1354  0.3105  0.2214
 7348TIP3    H146239   0.758   2.717  11.377  0.6144 -0.1988  0.6652
 7348TIP3    H246240   0.847   2.720  11.255 -0.9082  1.1891 -0.4699
 7349TIP3   OH246241   0.906   4.871  10.147  0.0978 -0.1844  0.4990
 7349TIP3    H146242   0.853   4.846  10.223 -1.9023 -0.6977 -0.9844
 7349TIP3    H246243   0.843   4.906  10.084  1.8357  1.2163 -0.5559
 7350TIP3   OH246244   1.979   3.225  11.135 -1.0245 -0.0451  0.3607
 7350TIP3    H146245   2.016   3.291  11.195 -1.5548 -0.2815  0.9614
 7350TIP3    H246246   1.894   3.262  11.109 -0.7930  0.0584 -0.2577
 7351TIP3   OH246247   5.851   1.433  12.844  0.2018 -0.3243 -0.4268
 7351TIP3    H146248   5.839   1.340  12.826  0.1994 -0.3560 -0.2625
 7351TIP3    H246249   5.832   1.442  12.937  1.0566 -0.3117 -0.2470
 7352TIP3   OH246250   2.360   6.131   9.976 -0.4651 -0.5007  0.4799
 7352TIP3    H146251   2.444   6.175   9.961 -0.5074 -0.6670 -0.3263
 7352TIP3    H246252   2.344   6.084   9.894 -2.2749  1.0711 -0.1384
 7353TIP3   OH246253   6.389   4.479   9.377  0.3433  0.2442  0.7102
 7353TIP3    H146254   6.362   4.570   9.387 -0.6743  0.0144  0.1598
 7353TIP3    H246255   6.457   4.467   9.444  3.2315  2.4350 -1.5842
 7354TIP3   OH246256   1.508   6.514  13.704  0.2234 -0.1930 -0.0506
 7354TIP3    H146257   1.440   6.569  13.666  0.1842  0.6111  1.1605
 7354TIP3    H246258   1.586   6.570  13.706  0.6835 -0.7994 -0.5448
 7355TIP3   OH246259   6.676   3.591  13.107  0.1227  0.7955 -0.0674
 7355TIP3    H146260   6.650   3.666  13.161  0.5302  0.3553  0.7505
 7355TIP3    H246261   6.770   3.602  13.093  0.3958 -0.1119  0.9459
 7356TIP3   OH246262   3.599   3.999   9.807  0.0998 -0.0240 -0.1224
 7356TIP3    H146263   3.539   4.032   9.740 -1.9204 -1.8081  0.7032
 7356TIP3    H246264   3.677   4.053   9.798 -0.9289  1.2043 -2.4636
 7357TIP3   OH246265   1.746   1.597  11.551  0.3482 -0.0710 -0.1694
 7357TIP3    H146266   1.810   1.612  11.621  0.6670 -0.0379 -0.4651
 7357TIP3    H246267   1.734   1.502  11.550  0.1766 -0.0520  0.0784
 7358TIP3   OH246268   6.227   4.469  12.130 -0.1827 -0.6478  0.3245
 7358TIP3    H146269   6.150   4.509  12.170  0.0096 -0.4309  0.4840
 7358TIP3    H246270   6.193   4.417  12.057 -0.2188  3.1280 -2.6826
 7359TIP3   OH246271   2.553   1.306  10.308  0.2485  0.1913  0.1184
 7359TIP3    H146272   2.536   1.223  10.352  0.7792 -0.2431 -0.4785
 7359TIP3    H246273   2.645   1.324  10.324 -0.5354  2.4035  3.1159
 7360TIP3   OH246274   3.561   4.396  12.648  0.1364 -0.4906  0.0119
 7360TIP3    H146275   3.650   4.422  12.623  0.0923  0.7073  0.9994
 7360TIP3    H246276   3.573   4.320  12.705  0.4787 -0.7342 -0.3791
 7361TIP3   OH246277   3.660   0.429  11.915  0.5200  0.3264 -0.0401
 7361TIP3    H146278   3.747   0.399  11.888  1.7368  1.2004  2.5629
 7361TIP3    H246279   3.639   0.499  11.852  0.9449 -0.8996 -1.6238
 7362TIP3   OH246280   2.796   0.453  11.552  0.0644 -0.3815  0.6473
 7362TIP3    H146281   2.706   0.435  11.576 -0.1418 -1.4705 -0.8576
 7362TIP3    H246282   2.798   0.449  11.456  1.5894  0.1911  0.6132
 7363TIP3   OH246283   4.614   5.176  13.281  0.6846 -0.1293  0.1580
 7363TIP3    H146284   4.683   5.237  13.310  0.6900 -0.1293  0.1457
 7363TIP3    H246285   4.627   5.099  13.335  0.7362 -0.1548  0.1101
 7364TIP3   OH246286   0.982   0.634  12.297 -0.4304 -0.4689 -0.4940
 7364TIP3    H146287   1.057   0.657  12.241 -1.5599  1.7526 -1.1894
 7364TIP3    H246288   0.913   0.608  12.236 -1.9189  2.6729 -0.3550
 7365TIP3   OH246289   0.258   3.726  11.425  0.2241 -0.0730 -0.3180
 7365TIP3    H146290   0.231   3.814  11.452 -0.0870 -0.4934  0.8185
 7365TIP3    H246291   0.235   3.670  11.499 -1.2363 -1.4239 -1.7058
 7366TIP3   OH246292   3.177   1.908  11.821 -0.2008 -0.1412  0.1136
 7366TIP3    H146293   3.243   1.971  11.851 -0.7990  0.2622  0.6307
 7366TIP3    H246294   3.227   1.839  11.777  0.5944 -0.0326  0.8156
 7367TIP3   OH246295   3.216   4.734  11.443 -0.2847  0.0694 -0.1508
 7367TIP3    H146296   3.243   4.705  11.529  1.2921 -1.5831 -1.1397
 7367TIP3    H246297   3.272   4.686  11.382  0.3730  2.9513 -2.0538
 7368TIP3   OH246298   2.200   0.917  10.942 -0.1747 -0.4880 -0.1295
 7368TIP3    H146299   2.239   0.832  10.924  1.6517  0.1918  0.3967
 7368TIP3    H246300   2.259   0.980  10.899 -0.9183  0.5721  0.3582
 7369TIP3   OH246301   3.180   1.465  10.790 -0.0226 -0.2051 -0.2172
 7369TIP3    H146302   3.160   1.423  10.706 -0.0850 -1.3059  0.3284
 7369TIP3    H246303   3.142   1.553  10.782 -0.6825 -0.5456 -1.0659
 7370TIP3   OH246304   5.006   0.078  12.818  0.0341  0.2740 -0.4717
 7370TIP3    H146305   5.004   0.111  12.729  1.3318  2.5070  0.2593
 7370TIP3    H246306   4.938   0.126  12.864 -0.0073 -0.1823 -0.0452
 7371TIP3   OH246307   2.341   1.770  11.346 -0.5738 -0.3353 -0.5974
 7371TIP3    H146308   2.367   1.780  11.437 -0.0719 -1.2989 -0.6115
 7371TIP3    H246309   2.358   1.855  11.306 -0.5502  0.0133  0.1486
 7372TIP3   OH246310   3.110   1.428   9.867 -0.0630  0.1934  0.2846
 7372TIP3    H146311   3.093   1.449   9.959  1.5443  1.0338  0.4292
 7372TIP3    H246312   3.199   1.460   9.852 -0.2142 -0.1561 -1.5045
 7373TIP3   OH246313   5.689   3.242  10.039 -0.4957 -0.3577  0.2493
 7373TIP3    H146314   5.780   3.210  10.036 -0.8912 -1.4347 -1.4910
 7373TIP3    H246315   5.696   3.334  10.011  0.0523 -0.4488  0.0590
 7374TIP3   OH246316   6.253   1.236  10.842 -0.0999 -0.5128  0.3252
 7374TIP3    H146317   6.174   1.214  10.794 -1.1940  0.3482  1.6472
 7374TIP3    H246318   6.242   1.195  10.928  1.6351 -1.7172  0.0132
 7375TIP3   OH246319   3.490   1.070  10.243  0.1259  0.2692 -0.2682
 7375TIP3    H146320   3.396   1.054  10.256  0.3236 -0.9253 -0.2473
 7375TIP3    H246321   3.522   0.991  10.201  1.6024 -0.4181  1.9567
 7376TIP3   OH246322   3.249   1.935  10.514  0.4014  0.1332  0.5588
 7376TIP3    H146323   3.293   1.996  10.455 -2.0653  0.8959 -0.6634
 7376TIP3    H246324   3.210   1.991  10.581 -2.9028  0.2522 -1.2279
 7377TIP3   OH246325   4.873   4.933  12.549 -0.0364 -0.4315 -0.1947
 7377TIP3    H146326   4.954   4.917  12.598  1.6482  2.3699 -1.7680
 7377TIP3    H246327   4.858   4.851  12.501  1.7855 -1.1044  0.2794
 7378TIP3   OH246328   5.249   4.725  10.656 -0.0201 -0.2442 -0.0995
 7378TIP3    H146329   5.294   4.640  10.656  1.4157  0.4693 -1.0966
 7378TIP3    H246330   5.268   4.762  10.570  0.2425  1.5063  0.6681
 7379TIP3   OH246331   5.413   0.216  12.641 -0.1002  0.1162  0.0137
 7379TIP3    H146332   5.407   0.133  12.689  1.0214  0.8363  1.4485
 7379TIP3    H246333   5.357   0.276  12.690  0.3676  0.6292 -0.0732
 7380TIP3   OH246334   2.528   2.184  11.071 -0.7737 -0.0256  0.4536
 7380TIP3    H146335   2.449   2.187  11.017 -1.1508  1.3060  1.0533
 7380TIP3    H246336   2.562   2.273  11.071  0.1441 -0.3531  1.0745
 7381TIP3   OH246337   6.198   3.844  12.476  0.4390 -0.3315 -0.4721
 7381TIP3    H146338   6.210   3.818  12.568  0.4687 -1.1655 -0.6977
 7381TIP3    H246339   6.116   3.893  12.476  1.0939  0.7926  0.2055
 7382TIP3   OH246340   6.352   1.447  11.985  0.0322  0.5297 -0.4483
 7382TIP3    H146341   6.363   1.353  11.975 -0.0889  0.5627 -0.9185
 7382TIP3    H246342   6.440   1.483  11.973  0.3880  0.3550  1.3863
 7383TIP3   OH246343   4.793   5.871  10.510 -0.5120 -0.1721  0.0905
 7383TIP3    H146344   4.794   5.926  10.588 -1.9075  0.4448 -0.2799
 7383TIP3    H246345   4.715   5.900  10.462 -0.7358 -1.8321 -0.6008
 7384TIP3   OH246346   4.312   1.170  12.216 -0.2314  0.8152  0.3748
 7384TIP3    H146347   4.364   1.230  12.269  3.2993 -1.3420 -0.3266
 7384TIP3    H246348   4.287   1.100  12.276 -2.3835  1.7559  0.6686
 7385TIP3   OH246349   3.433   0.326  12.030 -0.0151 -0.2789 -0.0688
 7385TIP3    H146350   3.519   0.360  12.003  0.4223 -1.6180 -0.4401
 7385TIP3    H246351   3.414   0.257  11.966 -0.3668 -1.4716  1.2846
 7386TIP3   OH246352   3.806   2.702  12.448  0.7904 -0.0610 -0.0035
 7386TIP3    H146353   3.717   2.698  12.485  0.7279  2.6236  0.3159
 7386TIP3    H246354   3.861   2.661  12.515 -0.0631 -0.7704  0.2840
 7387TIP3   OH246355   1.130   6.156  11.907 -0.0676 -0.0260 -0.1066
 7387TIP3    H146356   1.091   6.218  11.845 -0.6793  0.1030  0.3942
 7387TIP3    H246357   1.056   6.107  11.941 -0.0435  1.2709  2.0126
 7388TIP3   OH246358   4.051   1.210  10.337  0.5149 -0.6660 -0.1558
 7388TIP3    H146359   4.043   1.115  10.352 -1.3753 -0.3950  0.8986
 7388TIP3    H246360   4.075   1.245  10.423 -1.0834  0.0077  0.0442
 7389TIP3   OH246361   4.240   0.231  13.124 -0.4514  0.5715 -0.0640
 7389TIP3    H146362   4.314   0.291  13.109 -0.4649  0.4127 -0.8492
 7389TIP3    H246363   4.276   0.163  13.181 -0.1131  0.7264 -0.0872
 7390TIP3   OH246364   1.832   2.629  11.259 -0.2553  0.2724  0.3336
 7390TIP3    H146365   1.751   2.678  11.242  0.4574  1.3065 -0.2253
 7390TIP3    H246366   1.871   2.671  11.335 -0.2004 -0.1776  0.5602
 7391TIP3   OH246367   1.985   4.531  12.375  0.6856  0.2943 -0.3755
 7391TIP3    H146368   2.058   4.546  12.435  1.7472 -1.2349 -1.2134
 7391TIP3    H246369   1.980   4.435  12.367 -1.3798  0.3464 -0.4008
 7392TIP3   OH246370   3.839   0.372  10.801  0.1176 -0.4564  0.1005
 7392TIP3    H146371   3.841   0.281  10.830 -0.5230 -0.4525  0.1650
 7392TIP3    H246372   3.766   0.377  10.739  2.1373 -0.7307 -2.4991
 7393TIP3   OH246373   1.984   1.949  11.665  0.5073  0.0944  0.4750
 7393TIP3    H146374   1.919   1.886  11.694 -0.7481  0.6079 -1.0497
 7393TIP3    H246375   2.008   1.998  11.743  0.7627 -1.5621  1.4877
 7394TIP3   OH246376   1.061   3.161  12.980 -0.0127  0.9293  0.3762
 7394TIP3    H146377   0.992   3.191  12.922  0.5343  2.0320  0.2688
 7394TIP3    H246378   1.140   3.205  12.948  0.6586  0.0342  0.7582
 7395TIP3   OH246379   0.870   5.359  12.302 -0.0948  0.0452  0.5298
 7395TIP3    H146380   0.783   5.332  12.329 -1.2469  0.7403 -2.1845
 7395TIP3    H246381   0.915   5.278  12.279 -0.4094 -0.2176  0.8448
 7396TIP3   OH246382   2.003   1.317  10.970 -0.0889 -0.0711 -0.2797
 7396TIP3    H146383   1.975   1.384  11.032 -0.9187 -0.9374  0.3114
 7396TIP3    H246384   1.971   1.235  11.007  0.0648 -0.6939 -1.4675
 7397TIP3   OH246385   5.360   5.918  10.461  0.4817  0.1514 -0.1987
 7397TIP3    H146386   5.284   5.869  10.491  1.7638 -2.0755 -0.3988
 7397TIP3    H246387   5.377   5.885  10.372  0.9816  1.4905 -0.6351
 7398TIP3   OH246388   4.939   6.322  11.067  0.6497 -0.5712 -0.2818
 7398TIP3    H146389   4.860   6.303  11.118  0.3110 -1.1811 -1.0040
 7398TIP3    H246390   5.011   6.299  11.125  0.3080  0.4218  0.5494
 7399TIP3   OH246391   1.249   1.044  10.998  0.1231  0.5744 -0.1577
 7399TIP3    H146392   1.325   0.991  11.021 -0.1685  0.2841  0.1568
 7399TIP3    H246393   1.285   1.120  10.952  0.4167 -0.9368 -2.5818
 7400TIP3   OH246394   2.781   5.403  11.963 -0.0629 -0.1007  0.6767
 7400TIP3    H146395   2.796   5.470  11.896  1.7592 -1.3144 -0.2204
 7400TIP3    H246396   2.687   5.388  11.962 -0.2389  0.9513 -0.5912
 7401TIP3   OH246397   0.202   3.890  11.653 -0.7799  0.2868  0.6303
 7401TIP3    H146398   0.277   3.869  11.708 -1.6146  0.8613  2.0533
 7401TIP3    H246399   0.132   3.833  11.686 -1.5741  1.3872  0.8907
 7402TIP3   OH246400   6.526   4.731   9.845 -0.0819  0.4749 -0.5560
 7402TIP3    H146401   6.545   4.796   9.778 -0.5344  0.2535 -0.9060
 7402TIP3    H246402   6.609   4.686   9.860  0.1893  1.0027 -0.4476
 7403TIP3   OH246403   2.988   5.153  11.155 -0.1754 -0.1195 -0.2661
 7403TIP3    H146404   3.014   5.076  11.104  1.0515 -0.4785  0.8189
 7403TIP3    H246405   2.925   5.199  11.100 -0.1171 -1.3328 -1.3966
 7404TIP3   OH246406   2.432   2.244  10.114  0.3805 -0.0827  0.3122
 7404TIP3    H146407   2.461   2.202  10.195 -1.2924 -1.3246  0.3225
 7404TIP3    H246408   2.504   2.302  10.090  0.7506  0.6191  2.8672
 7405TIP3   OH246409   3.865   5.786  10.745 -0.2285 -0.1668 -0.0058
 7405TIP3    H146410   3.940   5.731  10.721 -1.1774 -1.4929 -0.0622
 7405TIP3    H246411   3.822   5.805  10.662 -0.6626 -0.4893  0.1413
 7406TIP3   OH246412   1.057   0.412  11.018  0.0469  0.3094  0.7637
 7406TIP3    H146413   1.028   0.448  10.934 -0.8831 -3.1867 -0.5944
 7406TIP3    H246414   1.143   0.373  10.999  0.0451 -0.0887  1.5484
 7407TIP3   OH246415   4.721   1.150  11.836  0.2696  0.4809 -0.0691
 7407TIP3    H146416   4.713   1.118  11.746 -0.9205  0.4446  0.0364
 7407TIP3    H246417   4.655   1.101  11.885  1.3092  0.0630  0.9652
 7408TIP3   OH246418   3.699   5.961  12.492 -0.0362 -0.3334 -0.6568
 7408TIP3    H146419   3.740   5.895  12.436  0.0761 -0.6965 -0.1464
 7408TIP3    H246420   3.705   5.926  12.580  0.3890  0.5380 -0.3217
 7409TIP3   OH246421   5.450   2.145  10.350  0.4691 -0.4260 -0.1326
 7409TIP3    H146422   5.411   2.116  10.432  1.6296  0.6918  0.8535
 7409TIP3    H246423   5.388   2.209  10.315 -0.1283 -1.0584 -0.2753
 7410TIP3   OH246424   2.868   5.946  12.114  0.7488  0.2173  0.6530
 7410TIP3    H146425   2.893   5.921  12.203  0.8500 -0.6390  0.3899
 7410TIP3    H246426   2.918   5.887  12.058 -2.4837 -2.2620  0.0883
 7411TIP3   OH246427   3.144   5.492  12.406  0.6948 -0.6999 -0.4125
 7411TIP3    H146428   3.199   5.438  12.463  0.2334  0.0739  0.8235
 7411TIP3    H246429   3.069   5.516  12.461  0.4152  0.3994 -1.2256
 7412TIP3   OH246430   4.168   5.109   9.424  0.0706 -0.0322 -0.2248
 7412TIP3    H146431   4.232   5.078   9.360  1.0073 -0.1330  0.7285
 7412TIP3    H246432   4.202   5.194   9.454  0.6764 -0.8443  1.5112
 7413TIP3   OH246433   0.257   2.268  12.317 -0.3329 -0.4908  0.0084
 7413TIP3    H146434   0.317   2.305  12.382 -0.8313 -1.1043  0.8288
 7413TIP3    H246435   0.171   2.277  12.357 -0.5507 -1.7459 -0.1662
 7414TIP3   OH246436   4.696   3.569   9.975  0.3491 -0.2147  0.3993
 7414TIP3    H146437   4.788   3.589   9.956  0.2022 -0.7950 -1.0734
 7414TIP3    H246438   4.653   3.572   9.889 -1.2129  1.0317  1.1780
 7415TIP3   OH246439   2.677   4.848  12.360 -0.0770  0.3249  0.0650
 7415TIP3    H146440   2.772   4.845  12.362  0.0587 -3.6735 -1.8492
 7415TIP3    H246441   2.649   4.777  12.418 -1.5737 -1.3385 -2.4592
 7416TIP3   OH246442   5.868   5.111  10.448 -1.1115 -0.3408 -0.4936
 7416TIP3    H146443   5.943   5.171  10.441 -1.3423  0.4754  2.4890
 7416TIP3    H246444   5.907   5.027  10.475 -1.1578 -0.1507  0.1951
 7417TIP3   OH246445   3.385   5.116  12.421  0.4890  0.3538  0.6519
 7417TIP3    H146446   3.384   5.030  12.462 -0.4056  0.3390  0.6157
 7417TIP3    H246447   3.346   5.102  12.335  1.5089  0.5627  0.1327
 7418TIP3   OH246448   5.420   1.127  10.478  0.3001  0.5638  0.2386
 7418TIP3    H146449   5.482   1.132  10.551  1.2447  2.2289 -0.6282
 7418TIP3    H246450   5.453   1.056  10.423 -0.8082 -1.1908  1.6977
 7419TIP3   OH246451   1.250   5.836   9.557  0.5770  0.1648  0.3525
 7419TIP3    H146452   1.193   5.851   9.481  0.9620  0.5275  0.1278
 7419TIP3    H246453   1.290   5.922   9.574  0.4811  0.0932  0.9785
 7420TIP3   OH246454   0.191   0.057  10.621  0.4814 -0.6935  0.4359
 7420TIP3    H146455   0.156   0.121  10.558  1.5973 -0.4887  0.0130
 7420TIP3    H246456   0.116   0.036  10.676 -0.9189 -1.8949 -1.7669
 7421TIP3   OH246457   4.901   1.059   9.377  0.3530 -0.2269  0.1033
 7421TIP3    H146458   4.816   1.045   9.418  0.0968  0.2281 -0.2679
 7421TIP3    H246459   4.891   1.023   9.288  0.3135  0.4897 -0.1895
 7422TIP3   OH246460   0.420   2.285  10.088  0.7302 -0.2323  0.1203
 7422TIP3    H146461   0.345   2.228  10.104 -0.0849  0.7899  0.0824
 7422TIP3    H246462   0.411   2.355  10.152  2.7797 -1.0847  1.4746
 7423TIP3   OH246463   5.620   3.265  11.821  0.3916  0.6492 -0.3540
 7423TIP3    H146464   5.641   3.307  11.738 -2.0812  0.8323 -0.9855
 7423TIP3    H246465   5.580   3.181  11.796 -1.5590  1.2568  0.5342
 7424TIP3   OH246466   1.661   1.681  12.875  0.2471 -0.6778 -0.9727
 7424TIP3    H146467   1.624   1.645  12.956 -2.5899 -0.3249 -1.9766
 7424TIP3    H246468   1.614   1.764  12.862  0.8819 -0.5553 -2.7978
 7425TIP3   OH246469   5.498   0.007  12.123  0.6225 -0.1201  0.0962
 7425TIP3    H146470   5.539   0.077  12.174  2.3494  0.2020 -1.6511
 7425TIP3    H246471   5.572  -0.043  12.088 -0.5542 -2.7140  1.0928
 7426TIP3   OH246472   2.206   5.450   9.470 -0.0260 -0.3669  0.7049
 7426TIP3    H146473   2.159   5.512   9.526  1.9200  2.7175 -0.8312
 7426TIP3    H246474   2.137   5.396   9.432 -1.6212 -0.7411  3.8334
 7427TIP3   OH246475   2.278   1.976  11.979  0.8316  0.1143 -0.3546
 7427TIP3    H146476   2.229   2.054  11.951 -0.3587 -0.2516  0.6016
 7427TIP3    H246477   2.331   1.952  11.903  0.9493  1.6347 -0.7928
 7428TIP3   OH246478   5.999   6.521  11.051  0.1364  0.5950  0.6430
 7428TIP3    H146479   5.910   6.552  11.033  0.3540  0.6966 -0.3440
 7428TIP3    H246480   5.987   6.444  11.107 -0.6362  0.0594 -0.2187
 7429TIP3   OH246481   0.950   3.950  11.645 -0.1356  0.2134 -0.2445
 7429TIP3    H146482   0.948   3.947  11.740 -0.8439  0.2803 -0.2487
 7429TIP3    H246483   1.042   3.965  11.623 -0.2076  2.0596  0.4840
 7430TIP3   OH246484   2.393   5.655   9.433  0.4829 -0.4655 -0.0752
 7430TIP3    H146485   2.311   5.700   9.452  1.1556  0.1095  1.6863
 7430TIP3    H246486   2.375   5.563   9.450  0.2997 -0.2887  0.7322
 7431TIP3   OH246487   5.185   5.132  10.186 -0.4583 -0.2272  0.2944
 7431TIP3    H146488   5.093   5.110  10.173 -0.8588 -0.3015  2.7640
 7431TIP3    H246489   5.190   5.226  10.168 -0.4060 -0.6792 -2.4247
 7432TIP3   OH246490   6.573   3.083   9.685  0.3860 -0.0427  0.9664
 7432TIP3    H146491   6.651   3.028   9.689 -0.2758 -1.1469 -0.6728
 7432TIP3    H246492   6.595   3.150   9.621 -0.3947 -1.0300 -0.3662
 7433TIP3   OH246493   4.793   4.207  12.130  0.0377 -0.4712  0.5516
 7433TIP3    H146494   4.747   4.222  12.213 -1.4874 -0.2092 -0.3033
 7433TIP3    H246495   4.724   4.209  12.064  1.2384 -0.5723 -0.7473
 7434TIP3   OH246496   3.197   5.717   9.512 -0.3761  0.0993 -0.5835
 7434TIP3    H146497   3.240   5.796   9.543 -0.0915  0.6041 -2.1527
 7434TIP3    H246498   3.110   5.720   9.551 -0.0311  0.6660  0.1623
 7435TIP3   OH246499   0.439   3.831  11.803 -0.0579 -0.1307  0.2221
 7435TIP3    H146500   0.421   3.804  11.893 -0.8087  2.5255  0.9571
 7435TIP3    H246501   0.469   3.751  11.759  1.2886 -1.3076  3.0508
 7436TIP3   OH246502   1.927   5.427   9.999  0.7756 -0.1023 -0.0966
 7436TIP3    H146503   2.008   5.394   9.959  0.5176 -1.1348  0.2022
 7436TIP3    H246504   1.880   5.470   9.927  1.4745  0.3031 -0.3207
 7437TIP3   OH246505   2.162   1.222  12.425  0.4313  0.1982  0.0008
 7437TIP3    H146506   2.104   1.192  12.494 -0.1428 -1.8021 -1.2408
 7437TIP3    H246507   2.127   1.307  12.398 -1.1018 -0.3483  0.1909
 7438TIP3   OH246508   5.976   3.984  12.500  0.1312  0.2690 -0.0763
 7438TIP3    H146509   6.014   4.068  12.472 -0.7568  0.4767 -0.6964
 7438TIP3    H246510   5.885   4.004  12.518 -0.1745 -0.6417 -0.5744
 7439TIP3   OH246511   4.807   0.930  13.161  0.2857 -0.0277  0.0297
 7439TIP3    H146512   4.829   0.907  13.251 -1.2488 -1.7084  0.0255
 7439TIP3    H246513   4.851   1.014  13.147  0.4390  0.3652  2.3807
 7440TIP3   OH246514   1.901   3.744   9.598 -0.4847  0.1648 -0.7955
 7440TIP3    H146515   1.982   3.775   9.559 -0.1204 -0.5901 -0.6583
 7440TIP3    H246516   1.842   3.820   9.595  0.3756  0.8563 -0.4458
 7441TIP3   OH246517   3.173   4.053  13.278 -0.0924  0.0861 -0.3298
 7441TIP3    H146518   3.085   4.025  13.250  0.1781  0.5139 -1.6930
 7441TIP3    H246519   3.200   3.985  13.340 -1.4809  0.0826  0.3205
 7442TIP3   OH246520   1.395   0.755   9.543  0.0564 -0.3070  0.4736
 7442TIP3    H146521   1.429   0.845   9.547  0.1184 -0.3698  2.8294
 7442TIP3    H246522   1.459   0.708   9.490  0.0222  1.0145 -0.8123
 7443TIP3   OH246523   0.592   6.605  12.377  0.0372  0.1750 -0.0267
 7443TIP3    H146524   0.654   6.663  12.334  0.8440 -1.4225 -1.1131
 7443TIP3    H246525   0.520   6.662  12.403  0.8380  1.6620 -0.9475
 7444TIP3   OH246526   0.216   0.523  11.677 -0.1889 -0.6790 -0.0228
 7444TIP3    H146527   0.215   0.618  11.670 -0.6946 -0.7006 -0.3250
 7444TIP3    H246528   0.229   0.493  11.587  0.4840 -0.8917  0.1399
 7445TIP3   OH246529   0.136   6.610  11.562  0.8076  0.3139 -0.2838
 7445TIP3    H146530   0.147   6.697  11.524  2.2917  0.3650  0.1790
 7445TIP3    H246531   0.051   6.613  11.606 -0.4964  0.5734 -2.6523
 7446TIP3   OH246532   3.123   6.106  11.634 -0.1514  0.7200  0.4614
 7446TIP3    H146533   3.037   6.146  11.645 -0.6213  0.0107 -0.4683
 7446TIP3    H246534   3.133   6.096  11.540 -1.2027 -3.6349  0.5814
 7447TIP3   OH246535   2.723   1.175  12.046  0.5013 -0.3610 -0.8554
 7447TIP3    H146536   2.628   1.184  12.040  0.3344 -1.1120  0.3850
 7447TIP3    H246537   2.754   1.191  11.956 -0.7219  0.5479 -1.1440
 7448TIP3   OH246538   4.377   5.001  10.898  0.0736  0.0745 -0.3761
 7448TIP3    H146539   4.379   5.073  10.835  1.6841  0.0712 -0.3659
 7448TIP3    H246540   4.468   4.992  10.927 -0.1123 -1.8994 -0.2874
 7449TIP3   OH246541   1.384   5.842  12.139  0.3717 -0.0882  0.6125
 7449TIP3    H146542   1.401   5.794  12.220  0.9340 -0.1422  0.4683
 7449TIP3    H246543   1.389   5.934  12.164 -1.7320 -0.0775  1.1012
 7450TIP3   OH246544   3.330   2.829  10.217 -0.6777 -0.5074  0.3642
 7450TIP3    H146545   3.331   2.882  10.297  0.2359  0.3523 -0.1850
 7450TIP3    H246546   3.402   2.864  10.164 -0.1148 -2.2503 -0.0772
 7451TIP3   OH246547   2.557   3.201  11.579 -0.4354  0.2718 -0.0141
 7451TIP3    H146548   2.631   3.141  11.584 -1.3829 -1.0170 -0.8461
 7451TIP3    H246549   2.597   3.284  11.551  0.5292 -0.8664 -2.3829
 7452TIP3   OH246550   0.270   4.767  11.569  0.1347  0.0320 -0.4950
 7452TIP3    H146551   0.354   4.722  11.580  0.7588  1.3580  0.2939
 7452TIP3    H246552   0.221   4.710  11.509  1.3088 -1.1276 -0.4045
 7453TIP3   OH246553   3.072   4.413  11.592  0.2439 -0.9627  0.5695
 7453TIP3    H146554   3.125   4.390  11.668 -0.1942  0.7036  1.4356
 7453TIP3    H246555   3.117   4.373  11.518  1.2160 -1.8109  1.5804
 7454TIP3   OH246556   5.993   2.577  11.643  0.4274 -0.3712  0.8144
 7454TIP3    H146557   6.044   2.558  11.722  0.1242 -1.0335  0.8659
 7454TIP3    H246558   6.041   2.647  11.599  0.7896 -0.2353  1.4087
 7455TIP3   OH246559   1.786   4.363  12.632  0.2476  0.2132  0.0582
 7455TIP3    H146560   1.809   4.439  12.578 -0.6003 -0.4364 -1.2828
 7455TIP3    H246561   1.710   4.391  12.683  0.1143  0.3583 -0.2183
 7456TIP3   OH246562   2.964   4.328  11.100 -0.0859  0.0283  0.3045
 7456TIP3    H146563   3.025   4.397  11.125  0.0534  0.0460 -0.0823
 7456TIP3    H246564   3.014   4.270  11.043 -0.3981 -0.0154  0.0695
 7457TIP3   OH246565   2.140   3.670  10.658 -0.1133 -0.0242  0.2322
 7457TIP3    H146566   2.061   3.680  10.712 -0.2505 -2.7339  0.6593
 7457TIP3    H246567   2.117   3.602  10.595  1.9881 -1.2200  0.6647
 7458TIP3   OH246568   3.978   3.494  10.906  0.3688 -0.3662 -0.1277
 7458TIP3    H146569   3.960   3.403  10.927  0.9498 -0.2726  0.8896
 7458TIP3    H246570   4.054   3.491  10.848  0.9734 -0.5225  0.6375
 7459TIP3   OH246571   3.578   4.373  12.361  0.0658  0.0040  0.5345
 7459TIP3    H146572   3.653   4.398  12.413  0.3284 -0.4835  0.4002
 7459TIP3    H246573   3.508   4.432  12.388  0.7731  1.1741 -0.0913
 7460TIP3   OH246574   6.131   2.313  12.926 -0.2798 -0.2877  0.4821
 7460TIP3    H146575   6.152   2.289  13.016 -1.2923 -0.2795  0.7344
 7460TIP3    H246576   6.205   2.280  12.875 -0.4399 -1.7164  1.1188
 7461TIP3   OH246577   5.767   3.622  12.635  0.2383  0.0316 -0.2442
 7461TIP3    H146578   5.812   3.538  12.650  0.3546 -0.1363 -1.4124
 7461TIP3    H246579   5.829   3.688  12.668  1.4019 -0.1954 -1.8436
 7462TIP3   OH246580   4.670   4.237  10.739  0.4245 -1.0836  0.2630
 7462TIP3    H146581   4.636   4.167  10.683  1.7277 -2.4263  1.0433
 7462TIP3    H246582   4.719   4.190  10.807  0.7124  0.5839  1.2457
 7463TIP3   OH246583   5.978   2.560  10.511  0.5671 -0.2220  0.1212
 7463TIP3    H146584   5.938   2.632  10.462  1.3278  0.7437  0.8919
 7463TIP3    H246585   5.972   2.586  10.602  0.4241 -1.3728  0.4652
 7464TIP3   OH246586   3.294   6.272  12.169 -0.2209  0.0764  0.2181
 7464TIP3    H146587   3.313   6.222  12.249 -0.4280 -0.4499 -0.0571
 7464TIP3    H246588   3.367   6.333  12.161 -1.0630  1.3729  1.7670
 7465TIP3   OH246589   6.566   6.688  11.647  0.2014  0.0095 -0.0763
 7465TIP3    H146590   6.549   6.718  11.737 -1.0782 -0.4075 -0.1472
 7465TIP3    H246591   6.483   6.703  11.601  0.4097 -1.0254 -0.8317
 7466TIP3   OH246592   6.514   2.597  10.789 -0.5389 -0.4626  0.2648
 7466TIP3    H146593   6.431   2.555  10.811 -0.7836 -0.6819 -1.0217
 7466TIP3    H246594   6.572   2.573  10.862 -1.6176 -0.1956  1.2454
 7467TIP3   OH246595   6.614   4.646  10.140 -0.3998 -0.1240 -0.2513
 7467TIP3    H146596   6.640   4.600  10.220 -2.1330 -1.0661 -0.1982
 7467TIP3    H246597   6.575   4.579  10.084 -2.0146  1.0563 -0.6149
 7468TIP3   OH246598   0.196   3.322  10.443 -0.2890 -0.0915 -0.2102
 7468TIP3    H146599   0.226   3.321  10.351 -0.2818  1.6731 -0.2668
 7468TIP3    H246600   0.172   3.231  10.461 -0.2233 -0.4985 -1.9376
 7469TIP3   OH246601   6.539   0.109  11.929  0.0711  0.4501 -0.2032
 7469TIP3    H146602   6.498   0.157  12.001 -0.0823 -1.5299  1.1178
 7469TIP3    H246603   6.629   0.095  11.959  0.3848  0.7483 -0.9959
 7470TIP3   OH246604   3.360   1.970   9.908  0.4064  0.2559 -0.0488
 7470TIP3    H146605   3.330   1.954   9.998 -1.7342  3.8122  0.0700
 7470TIP3    H246606   3.280   1.989   9.859  1.6940  0.4328 -2.2265
 7471TIP3   OH246607   3.950   2.652  12.020 -0.1937 -0.3656  0.5262
 7471TIP3    H146608   3.964   2.747  12.018 -2.9139  0.1878  2.8251
 7471TIP3    H246609   3.909   2.632  11.936 -0.4629  0.6483  0.4080
 7472TIP3   OH246610   2.106   0.646  10.429 -0.4460 -0.0952  0.1877
 7472TIP3    H146611   2.043   0.690  10.372 -0.5573 -1.1656 -0.5372
 7472TIP3    H246612   2.171   0.714  10.448  0.2010  0.0228 -2.1182
 7473TIP3   OH246613   5.540   5.385  12.342  0.1035 -0.1024 -0.2696
 7473TIP3    H146614   5.594   5.413  12.267 -1.2530  1.2870 -0.7807
 7473TIP3    H246615   5.472   5.331  12.304 -1.5996  1.9825 -0.3610
 7474TIP3   OH246616   1.188   3.816  10.947  0.1898  0.3663  0.6249
 7474TIP3    H146617   1.232   3.731  10.944 -1.4280 -0.5300  0.7298
 7474TIP3    H246618   1.144   3.816  11.033 -0.2536  1.0646  0.4046
 7475TIP3   OH246619   5.804   5.520  10.244 -0.0319  0.5232 -0.3671
 7475TIP3    H146620   5.816   5.431  10.209 -0.4046  0.8194 -1.2650
 7475TIP3    H246621   5.892   5.545  10.275 -0.0106 -0.3099  0.2867
 7476TIP3   OH246622   3.294   5.375  12.146  0.3986  0.3997  0.4245
 7476TIP3    H146623   3.206   5.384  12.183  0.6616  0.1436  1.1301
 7476TIP3    H246624   3.352   5.379  12.222  0.9380 -0.3621  0.0655
 7477TIP3   OH246625   1.565   2.572  12.203 -0.2467  0.5609 -0.5502
 7477TIP3    H146626   1.538   2.480  12.205 -1.5390  0.9301  0.6804
 7477TIP3    H246627   1.489   2.618  12.168  0.6529  1.1097 -1.8540
 7478TIP3   OH246628   2.816   5.721  10.703 -0.0544 -0.2312 -1.2858
 7478TIP3    H146629   2.750   5.762  10.758  0.7664 -2.2525  1.4048
 7478TIP3    H246630   2.888   5.785  10.701 -0.0546 -0.1502  0.1427
 7479TIP3   OH246631   0.737   2.366  20.823  0.1373 -0.5626  0.2137
 7479TIP3    H146632   0.751   2.417  20.903  0.8880 -0.5753  0.0889
 7479TIP3    H246633   0.752   2.428  20.752 -0.6615 -0.5153  0.0702
 7480TIP3   OH246634   0.938   4.738   9.825  0.5746  0.2889  0.9127
 7480TIP3    H146635   1.014   4.689   9.854  0.4644  0.3904  1.3878
 7480TIP3    H246636   0.944   4.739   9.730  1.5495  0.9043  0.9740
 7481TIP3   OH246637   3.431   5.424  11.848 -0.7038 -0.2194 -0.4476
 7481TIP3    H146638   3.501   5.396  11.789 -2.8703 -1.1032 -2.7469
 7481TIP3    H246639   3.397   5.505  11.809 -1.7845 -0.4769 -0.0713
 7482TIP3   OH246640   6.597   0.287  13.110  0.0037  0.2265 -0.0426
 7482TIP3    H146641   6.515   0.250  13.141 -0.0125 -0.5253 -0.9479
 7482TIP3    H246642   6.657   0.279  13.185 -0.2376 -0.8964  0.0491
 7483TIP3   OH246643   3.328   4.806   9.834 -0.4156 -0.4217 -0.3858
 7483TIP3    H146644   3.406   4.792   9.888 -0.4430 -0.5144 -0.3715
 7483TIP3    H246645   3.361   4.807   9.745 -0.3312 -0.0019 -0.3553
 7484TIP3   OH246646   3.153   2.607   9.410  0.3328 -0.3188  0.4980
 7484TIP3    H146647   3.103   2.686   9.389  0.3228 -0.2143  0.9062
 7484TIP3    H246648   3.094   2.535   9.386  1.0377 -0.2650 -1.6621
 7485TIP3   OH246649   0.262   0.556  10.046  0.0433  0.2667  0.0084
 7485TIP3    H146650   0.246   0.519   9.959 -1.8847 -1.4100  1.0069
 7485TIP3    H246651   0.357   0.570  10.048  0.7833 -3.5034 -0.9302
 7486TIP3   OH246652   3.201   4.437  10.375 -0.1985  0.1017  0.5803
 7486TIP3    H146653   3.139   4.504  10.404 -0.3255 -0.2610  1.1536
 7486TIP3    H246654   3.188   4.364  10.435  0.0459 -0.3863  0.0508
 7487TIP3   OH246655   0.226   0.867   9.994 -0.0643 -0.2832 -0.3590
 7487TIP3    H146656   0.287   0.826   9.933 -0.0949 -0.2712 -0.3978
 7487TIP3    H246657   0.155   0.804  10.003  0.9819 -1.2987  1.3912
 7488TIP3   OH246658   2.937   0.985  10.709  0.4304 -0.2169 -0.0613
 7488TIP3    H146659   3.032   0.981  10.708  0.4273 -1.0764 -1.8845
 7488TIP3    H246660   2.916   1.074  10.682  0.6758  0.5970  2.2703
 7489TIP3   OH246661   2.599   1.241  11.266 -0.4054 -0.1813 -0.1996
 7489TIP3    H146662   2.524   1.185  11.244 -0.3255 -0.2447 -0.3176
 7489TIP3    H246663   2.561   1.326  11.287 -0.4307  0.1365 -1.4491
 7490TIP3   OH246664   0.095   2.868  12.020 -0.3057  0.2285 -0.0487
 7490TIP3    H146665   0.026   2.934  12.020  0.7948  1.4061  0.2609
 7490TIP3    H246666   0.159   2.899  11.957  0.2765 -0.5053  0.1586
 7491TIP3   OH246667   3.980   5.329   9.554  0.3394  0.1212 -0.2703
 7491TIP3    H146668   4.069   5.345   9.586  0.6969 -0.3541 -1.0028
 7491TIP3    H246669   3.967   5.234   9.564 -1.1521  0.5169  2.4928
 7492TIP3   OH246670   0.276   4.197  10.165 -0.0177 -0.2147 -0.3200
 7492TIP3    H146671   0.326   4.202  10.083 -0.5708 -0.9955 -0.7059
 7492TIP3    H246672   0.207   4.134  10.148 -1.7083  1.4926 -0.0834
 7493TIP3   OH246673   6.064   4.241  12.389 -0.1092 -0.6046 -0.4185
 7493TIP3    H146674   6.096   4.230  12.299  0.5871  0.3680 -0.3052
 7493TIP3    H246675   6.136   4.213  12.444 -0.7042 -1.6543 -0.1394
 7494TIP3   OH246676   5.954   6.296  11.660 -0.4697  0.2206  0.0799
 7494TIP3    H146677   6.029   6.355  11.655  0.3872 -0.7279  1.0197
 7494TIP3    H246678   5.885   6.340  11.611  0.2827  1.7587  0.3314
 7495TIP3   OH246679   4.093   1.592  10.022 -0.6613 -0.1723  0.0977
 7495TIP3    H146680   4.137   1.581   9.938  3.5525  1.6621  1.7624
 7495TIP3    H246681   4.072   1.686  10.026  0.3563  0.0343  1.4883
 7496TIP3   OH246682   4.013   1.655  10.554 -0.3152 -0.1985  0.7529
 7496TIP3    H146683   4.052   1.595  10.490  1.8878  1.4450  0.4512
 7496TIP3    H246684   3.941   1.697  10.507  0.5176  0.1124 -0.2816
 7497TIP3   OH246685   1.074   5.803   9.976 -0.0733 -0.3273 -0.0799
 7497TIP3    H146686   1.066   5.891   9.939 -0.0789  0.2726  1.2733
 7497TIP3    H246687   1.020   5.805  10.055  0.2879 -1.4015  0.2160
 7498TIP3   OH246688   5.603   2.712  11.693 -0.1314 -0.2952 -0.0790
 7498TIP3    H146689   5.678   2.756  11.734 -0.1970 -0.1629 -0.1023
 7498TIP3    H246690   5.641   2.634  11.652 -0.0249 -0.2917  0.0134
 7499TIP3   OH246691   2.904   3.981  12.944 -0.4287  0.0703  0.4580
 7499TIP3    H146692   2.994   4.009  12.958 -0.3393  0.3482 -0.5788
 7499TIP3    H246693   2.851   4.047  12.989 -0.1612  0.8857 -0.4027
 7500TIP3   OH246694   1.885   0.217  11.949  0.7923 -0.7846  0.8808
 7500TIP3    H146695   1.792   0.211  11.970 -0.1469  0.4900 -2.2439
 7500TIP3    H246696   1.907   0.130  11.914  0.7245 -1.0315  1.4509
 7501TIP3   OH246697   6.017   0.788  11.686  0.0655 -0.6904  0.1950
 7501TIP3    H146698   6.076   0.713  11.690  0.3628 -0.4598  0.1904
 7501TIP3    H246699   6.064   0.852  11.633  1.3964  0.8687  3.0420
 7502TIP3   OH246700   4.601   6.087   9.788 -0.1023  0.2887 -0.2000
 7502TIP3    H146701   4.651   6.022   9.738 -1.2647  0.7669 -2.0629
 7502TIP3    H246702   4.540   6.124   9.725 -3.2823 -0.6699  2.0529
 7503TIP3   OH246703   5.404   4.750  11.079 -0.2175  0.0506  0.5690
 7503TIP3    H146704   5.422   4.719  10.990  0.8790  0.8642  0.4825
 7503TIP3    H246705   5.467   4.821  11.092 -0.0419 -0.3711  2.1794
 7504TIP3   OH246706   1.480   2.972   9.659  0.2701 -0.0739 -0.2514
 7504TIP3    H146707   1.513   2.901   9.715 -1.3260  0.5054  1.5221
 7504TIP3    H246708   1.447   2.928   9.581 -0.0596 -1.2270  0.5179
 7505TIP3   OH246709   2.278   5.821  13.480  0.1042 -0.3876  0.2755
 7505TIP3    H146710   2.212   5.788  13.541 -0.2382 -0.6564 -0.2335
 7505TIP3    H246711   2.230   5.880  13.422  0.2952 -0.6207 -0.1271
 7506TIP3   OH246712   5.246   5.207  11.107  0.7050  0.1054  0.0486
 7506TIP3    H146713   5.275   5.214  11.198 -0.6127 -1.2674  0.6115
 7506TIP3    H246714   5.172   5.268  11.100  2.3114  2.0634 -0.8261
 7507TIP3   OH246715   6.484   3.494  10.777  0.1820  0.2114 -0.0724
 7507TIP3    H146716   6.404   3.466  10.732  1.1912 -1.6932 -0.7718
 7507TIP3    H246717   6.495   3.585  10.750 -1.3942  0.3148 -0.4848
 7508TIP3   OH246718   4.204   5.530  11.247  0.1894 -0.0011  0.4952
 7508TIP3    H146719   4.263   5.521  11.322  0.5272  1.2135  0.3981
 7508TIP3    H246720   4.150   5.606  11.269  0.1690  0.2532 -0.4136
 7509TIP3   OH246721   4.375   1.198   9.759  0.0175  0.1408  0.3985
 7509TIP3    H146722   4.311   1.231   9.822  1.3049  1.2464  1.1735
 7509TIP3    H246723   4.353   1.242   9.677  1.1522  2.3521  1.2050
 7510TIP3   OH246724   0.727   0.300  12.061  0.3869  0.4014  0.4289
 7510TIP3    H146725   0.714   0.216  12.105 -0.1014 -0.0990 -0.6244
 7510TIP3    H246726   0.639   0.339  12.059  0.1407 -0.1581 -1.1824
 7511TIP3   OH246727   0.235   3.032  10.560 -0.7288  0.2433 -1.1320
 7511TIP3    H146728   0.299   3.070  10.620 -1.3977  0.5635 -0.6109
 7511TIP3    H246729   0.164   3.002  10.617 -0.7364 -0.7297 -1.6406
 7512TIP3   OH246730   5.342   3.782   9.747 -0.4495  0.1885  0.0602
 7512TIP3    H146731   5.342   3.789   9.843  1.5304 -1.3899  0.2377
 7512TIP3    H246732   5.365   3.869   9.716 -0.2540  0.4981  1.0429
 7513TIP3   OH246733   4.887   2.048  10.117 -0.0836  0.4065  0.1048
 7513TIP3    H146734   4.899   2.041  10.022 -0.6072  2.8690 -0.2163
 7513TIP3    H246735   4.844   1.966  10.142  0.3746 -0.4413 -1.7095
 7514TIP3   OH246736   6.626   0.646  10.769 -0.3536 -0.0715  0.1093
 7514TIP3    H146737   6.695   0.708  10.795  0.3010 -0.2989 -0.9923
 7514TIP3    H246738   6.635   0.640  10.674 -2.4226  0.4829 -0.1720
 7515TIP3   OH246739   3.322   4.866  13.568 -0.1189 -0.1119  0.4240
 7515TIP3    H146740   3.257   4.934  13.587 -0.3188 -0.4994  1.1499
 7515TIP3    H246741   3.271   4.785  13.562 -0.0369 -0.0753 -1.5337
 7516TIP3   OH246742   1.677   1.043   9.590  0.1961 -0.7720 -0.1522
 7516TIP3    H146743   1.691   1.106   9.520 -0.1451 -1.9547 -1.3234
 7516TIP3    H246744   1.754   0.986   9.586  0.8065 -0.1084  1.2920
 7517TIP3   OH246745   0.004   5.995  10.862 -0.5018  0.0248 -0.6388
 7517TIP3    H146746   0.068   5.935  10.901 -1.7574 -0.8401  0.2246
 7517TIP3    H246747   0.056   6.062  10.819  0.9718 -0.4165  0.3672
 7518TIP3   OH246748   1.493   5.371  10.997 -0.6943  0.3640 -0.2627
 7518TIP3    H146749   1.503   5.344  10.905  1.1937 -0.7966  0.2366
 7518TIP3    H246750   1.464   5.291  11.042  1.2010  0.1194  0.5988
 7519TIP3   OH246751   5.724   6.550  12.264 -0.4702  0.8041 -0.4766
 7519TIP3    H146752   5.677   6.468  12.281  1.5101 -0.3155 -0.0257
 7519TIP3    H246753   5.688   6.612  12.327 -0.0290 -0.5496  1.1915
 7520TIP3   OH246754   4.943   4.519  11.461 -0.3713 -0.0532 -0.0833
 7520TIP3    H146755   4.907   4.490  11.546 -0.1039 -0.0857  0.0198
 7520TIP3    H246756   5.034   4.487  11.462 -0.9372 -1.8759 -1.2402
 7521TIP3   OH246757   3.490   2.925  11.465  0.7554  0.2936  0.1255
 7521TIP3    H146758   3.538   2.981  11.404  1.3516  2.2299  2.2378
 7521TIP3    H246759   3.431   2.874  11.409  0.9729  2.2268 -2.0427
 7522TIP3   OH246760   6.047   1.048  12.595  0.3048  0.0942  0.2541
 7522TIP3    H146761   6.029   1.028  12.687 -0.0681  0.2774  0.2254
 7522TIP3    H246762   6.071   0.964  12.556  0.2479 -0.0240  0.4725
 7523TIP3   OH246763   3.004   5.242  10.825 -0.2709 -0.7031 -0.1032
 7523TIP3    H146764   3.059   5.313  10.789 -1.6089 -0.9061 -2.8116
 7523TIP3    H246765   2.917   5.281  10.833 -0.6505 -1.5713  0.0298
 7524TIP3   OH246766   1.927   5.755  12.380 -0.5831 -0.0137  0.0727
 7524TIP3    H146767   1.836   5.758  12.351 -0.6956 -0.9409  0.2966
 7524TIP3    H246768   1.960   5.845  12.367 -0.7646 -0.2510 -2.3920
 7525TIP3   OH246769   3.381   1.968  10.899  0.6786  0.9173  0.0831
 7525TIP3    H146770   3.333   1.900  10.852  0.7292  0.5900  0.5021
 7525TIP3    H246771   3.387   2.041  10.837 -2.5510  1.9899  0.8296
 7526TIP3   OH246772   3.917   0.889  11.587 -0.4333 -0.7243 -0.1663
 7526TIP3    H146773   4.001   0.910  11.630  0.3882  0.0950 -2.0732
 7526TIP3    H246774   3.882   0.817  11.639  1.0242 -0.5081  1.2219
 7527TIP3   OH246775   0.831   3.845   9.534  0.3592 -0.2365  0.3529
 7527TIP3    H146776   0.768   3.917   9.528  0.4978  0.4099  4.2769
 7527TIP3    H246777   0.916   3.888   9.541  0.6699 -0.8942  0.6652
 7528TIP3   OH246778   3.521   3.989  12.308 -0.1474  0.3549 -0.0470
 7528TIP3    H146779   3.526   3.932  12.232  1.5119 -2.2741  1.8641
 7528TIP3    H246780   3.428   3.995  12.328 -0.3619 -2.0606 -0.1152
 7529TIP3   OH246781   2.659   3.257  12.343 -0.4136 -0.1821 -0.3710
 7529TIP3    H146782   2.635   3.251  12.250 -0.4384 -0.3578 -0.3530
 7529TIP3    H246783   2.622   3.341  12.371 -0.6756 -0.2716 -0.4438
 7530TIP3   OH246784   3.915   6.086   9.862  0.1016 -0.3581 -0.2391
 7530TIP3    H146785   3.851   6.033   9.815  0.7098  1.0356 -2.8039
 7530TIP3    H246786   3.865   6.130   9.930 -1.3052 -0.6671 -1.0438
 7531TIP3   OH246787   6.619   5.851  11.272 -0.1447  0.2571  0.4559
 7531TIP3    H146788   6.646   5.894  11.353 -1.0758 -0.2709  1.0658
 7531TIP3    H246789   6.698   5.807  11.241  0.2415  0.5242  1.0421
 7532TIP3   OH246790   4.256   0.025   9.222  0.0491  0.8153  0.2758
 7532TIP3    H146791   4.204  -0.037   9.274  0.3700  0.6415  0.3939
 7532TIP3    H246792   4.271   0.098   9.282  0.4030  0.6233  0.4218
 7533TIP3   OH246793   3.027   2.540  10.708  0.4706  0.2538 -0.0914
 7533TIP3    H146794   2.973   2.461  10.708 -0.4065  0.8216  0.9015
 7533TIP3    H246795   2.968   2.610  10.738  1.5593  1.0416  0.2961
 7534TIP3   OH246796   4.908   4.963  11.314 -0.3090 -0.1578  0.5124
 7534TIP3    H146797   4.991   4.928  11.349 -0.6600 -0.0526  1.4754
 7534TIP3    H246798   4.853   4.886  11.302  0.1760 -0.3180 -0.8686
 7535TIP3   OH246799   4.404   0.762  11.092 -0.2069  0.1589 -0.1531
 7535TIP3    H146800   4.413   0.672  11.059  0.8499 -0.0353  0.5948
 7535TIP3    H246801   4.320   0.763  11.138  0.1799 -0.7411  0.6248
 7536TIP3   OH246802   6.540   5.921  12.060 -0.2842 -0.4453  0.6224
 7536TIP3    H146803   6.583   5.911  12.145 -0.0195  0.0407  0.5452
 7536TIP3    H246804   6.490   6.002  12.068  0.0509 -0.1924  0.1820
 7537TIP3   OH246805   4.605   0.147  12.104 -0.3665  0.4885 -0.3524
 7537TIP3    H146806   4.567   0.080  12.162 -1.0736 -0.4961 -1.8889
 7537TIP3    H246807   4.699   0.141  12.120 -0.3334 -1.4198 -0.9397
 7538TIP3   OH246808   6.445   1.211  11.886 -0.2979  1.0935 -0.1193
 7538TIP3    H146809   6.392   1.203  11.807 -0.6289  1.1926  0.0913
 7538TIP3    H246810   6.519   1.265  11.860 -0.5302  1.3272 -0.3038
 7539TIP3   OH246811   5.273   6.406  11.462  0.4610  0.4569 -0.5975
 7539TIP3    H146812   5.324   6.487  11.462  1.0638  0.0893  0.2143
 7539TIP3    H246813   5.204   6.421  11.526  0.6961  0.2642 -0.2937
 7540TIP3   OH246814   5.731   3.927  10.962 -0.0818 -0.9159  0.1383
 7540TIP3    H146815   5.744   4.019  10.983 -0.2075 -1.1880  1.5119
 7540TIP3    H246816   5.657   3.899  11.017 -0.5573 -1.6488 -0.8337
 7541TIP3   OH246817   1.954   6.261  11.229  0.2928 -0.3065  0.1411
 7541TIP3    H146818   1.876   6.211  11.204  0.0651  0.2376 -0.2554
 7541TIP3    H246819   1.963   6.328  11.161  1.0931 -0.3467  0.1963
 7542TIP3   OH246820   3.313   3.893  10.550  0.0171 -0.6182  0.6047
 7542TIP3    H146821   3.314   3.818  10.490 -1.1305  0.3303 -0.6450
 7542TIP3    H246822   3.230   3.884  10.597  0.8382 -1.2725  1.9975
 7543TIP3   OH246823   0.267   6.620  13.529 -0.4175 -0.2383 -0.1551
 7543TIP3    H146824   0.237   6.579  13.448  1.7323 -1.8720 -0.2199
 7543TIP3    H246825   0.339   6.564  13.559 -0.3451  1.0003  2.2455
 7544TIP3   OH246826   3.118   5.871  11.984 -0.1832  0.3456 -0.2891
 7544TIP3    H146827   3.131   5.791  12.035 -0.9022  0.2089 -0.3083
 7544TIP3    H246828   3.102   5.840  11.895  1.1908  0.5882 -0.6366
 7545TIP3   OH246829   0.787   0.801  12.815 -0.1361  0.1060  0.2191
 7545TIP3    H146830   0.819   0.718  12.850  0.2844  0.0709 -0.2417
 7545TIP3    H246831   0.804   0.864  12.885 -2.3666 -0.5275  1.4511
 7546TIP3   OH246832   4.689   2.975  12.020 -0.7116  0.2917 -0.2139
 7546TIP3    H146833   4.653   3.055  11.981 -2.3216 -0.1580  0.3042
 7546TIP3    H246834   4.784   2.991  12.023 -1.0647  2.5042  0.5971
 7547TIP3   OH246835   3.366   2.512  10.846  0.0192 -0.4570 -0.5547
 7547TIP3    H146836   3.387   2.419  10.846  1.6191 -0.1147 -0.4392
 7547TIP3    H246837   3.345   2.532  10.755  0.5813 -0.7329 -0.7487
 7548TIP3   OH246838   5.915   0.839   9.903 -0.5083 -0.4480  0.0677
 7548TIP3    H146839   5.960   0.907   9.952  0.2410 -0.2235 -0.9027
 7548TIP3    H246840   5.947   0.757   9.940 -1.1362 -0.2909  0.9928
 7549TIP3   OH246841   4.333   1.875  12.281  0.1219 -0.0459  0.4962
 7549TIP3    H146842   4.341   1.800  12.340  1.7625  1.0794  1.8322
 7549TIP3    H246843   4.287   1.941  12.333 -0.0852  0.3293 -0.1575
 7550TIP3   OH246844   1.017   1.616  12.162  0.2751  0.1921 -0.0428
 7550TIP3    H146845   0.996   1.577  12.078 -1.7849 -0.1491  0.5762
 7550TIP3    H246846   1.065   1.548  12.210  0.4295 -0.0296 -0.5127
 7551TIP3   OH246847   6.046   5.775  11.241 -0.5716  0.0827 -0.1096
 7551TIP3    H146848   6.078   5.826  11.315  0.5828 -1.3269  0.4100
 7551TIP3    H246849   6.101   5.803  11.167 -0.9613  0.6630 -0.1892
 7552TIP3   OH246850   5.869   5.066   9.694 -0.5537 -0.0434  0.4427
 7552TIP3    H146851   5.957   5.090   9.722 -1.2765  0.6372  2.2474
 7552TIP3    H246852   5.826   5.034   9.773 -1.9739 -0.2789 -0.3849
 7553TIP3   OH246853   2.970   2.656  11.563  0.1072  0.1567 -0.2065
 7553TIP3    H146854   2.953   2.706  11.484 -1.9351 -2.1148 -1.3276
 7553TIP3    H246855   3.060   2.625  11.553 -0.8977 -2.3227 -3.1054
 7554TIP3   OH246856   4.836   4.678  11.272  0.3074  0.0817  0.3780
 7554TIP3    H146857   4.861   4.616  11.339  1.6400 -0.1901 -0.3340
 7554TIP3    H246858   4.913   4.687  11.216 -1.1948 -0.9091 -2.0557
 7555TIP3   OH246859   5.741   5.264   9.276  0.2733 -0.4569 -0.1190
 7555TIP3    H146860   5.666   5.267   9.216  0.6261  0.0903 -0.5536
 7555TIP3    H246861   5.768   5.356   9.283  0.2043 -0.5085  0.9366
 7556TIP3   OH246862   4.650   4.767   9.678 -0.2264 -0.2177  0.7403
 7556TIP3    H146863   4.568   4.798   9.639 -1.2429 -1.3910  1.8336
 7556TIP3    H246864   4.704   4.846   9.687 -0.2784  0.2390 -2.1291
 7557TIP3   OH246865   4.664   5.262  11.683 -0.0251  0.1856  0.0424
 7557TIP3    H146866   4.667   5.215  11.599 -0.4577  1.6303 -0.8215
 7557TIP3    H246867   4.733   5.328  11.675 -0.8140  1.0645  0.3658
 7558TIP3   OH246868   0.187   0.725  12.322  0.2324  0.4298 -0.2931
 7558TIP3    H146869   0.116   0.736  12.258  0.5164 -1.6821 -1.0508
 7558TIP3    H246870   0.191   0.808  12.368 -2.1530  0.9128 -0.8337
 7559TIP3   OH246871   0.422   2.893  12.486  0.0589  0.0190  0.2083
 7559TIP3    H146872   0.371   2.819  12.453  0.0839 -0.1066  0.4494
 7559TIP3    H246873   0.488   2.853  12.543  1.4934  0.0263 -1.3695
 7560TIP3   OH246874   0.569   3.187  11.008 -0.0915  0.3249 -0.0817
 7560TIP3    H146875   0.502   3.187  11.076 -0.0787 -2.3216  0.0319
 7560TIP3    H246876   0.533   3.243  10.939 -1.9043 -0.0954  0.4570
 7561TIP3   OH246877   1.185   0.136  12.744 -0.9110  0.0985  0.4562
 7561TIP3    H146878   1.275   0.103  12.749 -1.7511 -3.3231 -2.6038
 7561TIP3    H246879   1.195   0.231  12.749  3.0436 -0.0451 -0.7798
 7562TIP3   OH246880   0.976   4.350  13.093 -0.1907  0.7299 -0.0700
 7562TIP3    H146881   0.976   4.436  13.133  1.9458  0.9408 -0.4011
 7562TIP3    H246882   0.917   4.358  13.018  0.6798  2.2170 -0.6441
 7563TIP3   OH246883   1.989   6.269  10.811  0.1126  0.4181 -0.3705
 7563TIP3    H146884   1.987   6.335  10.741  0.3256 -0.0207 -0.7994
 7563TIP3    H246885   1.901   6.230  10.808  0.2221  0.1865 -0.6052
 7564TIP3   OH246886   3.303   3.583   9.943 -0.0218 -0.4793  0.0197
 7564TIP3    H146887   3.352   3.616  10.018  0.4423 -1.7355  0.2868
 7564TIP3    H246888   3.371   3.558   9.880 -0.3974  0.2171 -0.6803
 7565TIP3   OH246889   0.880   1.272  11.533 -0.5080  0.0621  0.5276
 7565TIP3    H146890   0.925   1.203  11.582 -1.7156 -2.1789 -1.3043
 7565TIP3    H246891   0.947   1.307  11.474 -0.5776 -1.8137 -0.7409
 7566TIP3   OH246892   3.892   2.366  12.732  0.1451 -0.2337  0.4663
 7566TIP3    H146893   3.841   2.365  12.651  0.5121  0.6480  0.2162
 7566TIP3    H246894   3.914   2.274  12.747  2.0684 -0.2093 -1.7000
 7567TIP3   OH246895   3.879   1.485  12.311 -0.6401  0.0657 -0.0758
 7567TIP3    H146896   3.907   1.408  12.262  2.3995  2.5916 -2.7446
 7567TIP3    H246897   3.914   1.471  12.399 -2.8661 -2.8280  0.5233
 7568TIP3   OH246898   4.574   3.649  11.988  0.2446  0.2945 -0.0357
 7568TIP3    H146899   4.562   3.555  11.995 -0.8364  0.4587  0.6446
 7568TIP3    H246900   4.652   3.668  12.041  0.3314 -0.1864  0.0088
 7569TIP3   OH246901   6.240   6.239  12.398 -0.0221 -0.4166 -0.1027
 7569TIP3    H146902   6.312   6.301  12.394 -1.3783  1.2613  0.2739
 7569TIP3    H246903   6.193   6.250  12.315 -1.0227  0.0454  0.4981
 7570TIP3   OH246904   2.086   0.238  10.878 -0.1854  0.1149 -0.1066
 7570TIP3    H146905   2.007   0.283  10.848  0.3288  0.5191 -0.8858
 7570TIP3    H246906   2.137   0.223  10.798  0.2616 -0.6699  0.3132
 7571TIP3   OH246907   2.731   4.261  11.241 -0.3771  0.4271  0.2091
 7571TIP3    H146908   2.822   4.290  11.242  0.0161 -0.7107 -0.5756
 7571TIP3    H246909   2.724   4.206  11.163 -1.4411 -0.4339  0.8761
 7572TIP3   OH246910   3.949   0.737   9.898 -0.7357  0.2877  0.3193
 7572TIP3    H146911   3.922   0.806   9.958 -1.2723 -0.4106  0.9045
 7572TIP3    H246912   3.935   0.656   9.947 -1.7685 -0.3328 -0.9530
 7573TIP3   OH246913   0.437   3.082  11.678 -0.3166  0.5289  0.0705
 7573TIP3    H146914   0.456   3.008  11.620  1.7765  0.0141  1.3087
 7573TIP3    H246915   0.482   3.156  11.639 -1.1100  0.8093 -0.3350
 7574TIP3   OH246916   2.141   6.252  11.431 -0.0716  0.1612 -0.7305
 7574TIP3    H146917   2.101   6.201  11.501 -0.0816  0.3996 -0.5631
 7574TIP3    H246918   2.084   6.239  11.355  0.6654 -1.2087 -1.0826
 7575TIP3   OH246919   5.926   3.878  10.342 -0.5040 -0.3696 -0.1786
 7575TIP3    H146920   5.975   3.901  10.264 -0.3427  0.5562  0.1832
 7575TIP3    H246921   5.914   3.961  10.389 -2.7364 -0.4778 -0.4284
 7576TIP3   OH246922   5.886   0.059   9.732 -0.2807  0.3687  0.0526
 7576TIP3    H146923   5.976   0.029   9.748 -1.1609 -1.7125  1.4613
 7576TIP3    H246924   5.850  -0.006   9.672 -0.8473  1.2665 -0.6030
 7577TIP3   OH246925   1.462   0.823  12.187  0.1708  0.4853 -0.2528
 7577TIP3    H146926   1.540   0.767  12.194 -0.0248  0.3537  1.1437
 7577TIP3    H246927   1.481   0.898  12.242 -0.7398  0.3916  0.2109
 7578TIP3   OH246928   4.282   6.296  10.421 -0.4333  1.1680 -0.4100
 7578TIP3    H146929   4.339   6.281  10.345  0.0217 -0.1631  0.1573
 7578TIP3    H246930   4.339   6.338  10.485  0.1325 -0.6407  0.3548
 7579TIP3   OH246931   6.119   3.311  10.200 -0.8149 -0.3737 -0.1657
 7579TIP3    H146932   6.038   3.305  10.251 -0.7016 -0.7990 -0.0344
 7579TIP3    H246933   6.121   3.402  10.169 -1.2393 -0.3057 -0.0009
 7580TIP3   OH246934   4.302   0.686  10.196  0.0588 -0.3167 -0.0256
 7580TIP3    H146935   4.347   0.722  10.273 -1.6621  4.0994 -0.7958
 7580TIP3    H246936   4.365   0.697  10.125 -0.0118  0.0476 -0.0346
 7581TIP3   OH246937   1.439   1.529   9.887  0.0629 -0.1450  0.8135
 7581TIP3    H146938   1.492   1.534   9.966 -0.2297  0.0670  0.9981
 7581TIP3    H246939   1.366   1.589   9.902  0.5183  0.6453 -0.0083
 7582TIP3   OH246940   5.770   4.998  11.789 -0.0983 -0.2009  0.5787
 7582TIP3    H146941   5.770   5.080  11.739 -2.6196  0.6122  1.7437
 7582TIP3    H246942   5.791   4.931  11.725  0.6026  1.2010 -0.7189
 7583TIP3   OH246943   5.561   3.836  11.180 -0.7512  0.3688 -0.7203
 7583TIP3    H146944   5.493   3.770  11.170 -0.3949  0.0668 -1.1642
 7583TIP3    H246945   5.513   3.917  11.198 -1.1478 -0.3078  1.5896
 7584TIP3   OH246946   2.950   3.571  11.959  0.2553 -0.3206 -0.1382
 7584TIP3    H146947   2.870   3.623  11.958  0.0008 -0.7046 -1.3667
 7584TIP3    H246948   3.018   3.633  11.933  0.1907 -0.2395 -0.1155
 7585TIP3   OH246949   5.610   0.410  12.235  0.1139 -0.3279  0.3976
 7585TIP3    H146950   5.646   0.487  12.280  0.0569  0.0095 -0.1357
 7585TIP3    H246951   5.665   0.338  12.265  1.9640  0.3324 -1.2108
 7586TIP3   OH246952   0.325   1.648  12.549  0.5391  0.0595  0.2400
 7586TIP3    H146953   0.347   1.705  12.623  1.1626 -0.9451  0.8634
 7586TIP3    H246954   0.233   1.624  12.562  0.4815  0.3550  0.3684
 7587TIP3   OH246955   0.698   0.011  11.102  0.4060 -0.6092 -0.1381
 7587TIP3    H146956   0.753   0.068  11.049 -1.6308  1.0249 -0.6260
 7587TIP3    H246957   0.751  -0.009  11.179  1.9334  0.2989 -0.9142
 7588TIP3   OH246958   4.752   5.053   9.794  0.4828  0.3438  0.1712
 7588TIP3    H146959   4.762   5.138   9.836  0.3807  0.4988 -0.1128
 7588TIP3    H246960   4.827   5.002   9.825 -0.3913 -0.0626  1.7403
 7589TIP3   OH246961   1.062   0.858  13.033  0.2041  0.2573  0.1301
 7589TIP3    H146962   0.970   0.866  13.058  0.3687  0.5409  0.6537
 7589TIP3    H246963   1.071   0.913  12.956  0.3199  1.6243  1.0900
 7590TIP3   OH246964   0.513   3.361  12.126 -0.3199 -0.3794  0.5718
 7590TIP3    H146965   0.569   3.423  12.079  0.0788 -0.3895  1.0402
 7590TIP3    H246966   0.572   3.309  12.178 -0.3921 -2.5864 -1.3757
 7591TIP3   OH246967   0.303   5.578  10.869 -0.3216 -0.3507 -0.0186
 7591TIP3    H146968   0.281   5.576  10.776 -1.8408  0.9873  0.2763
 7591TIP3    H246969   0.382   5.524  10.876 -0.2081 -0.5225 -2.0620
 7592TIP3   OH246970   6.124   2.495   9.881  0.2926 -0.2889  0.4262
 7592TIP3    H146971   6.089   2.554   9.947  0.4658 -0.3324  0.5581
 7592TIP3    H246972   6.101   2.407   9.912 -2.5144 -0.2395 -1.1899
 7593TIP3   OH246973   0.085   1.874  12.403 -0.1680 -0.5002 -0.3566
 7593TIP3    H146974   0.091   1.790  12.449  2.1034 -0.3139 -0.1876
 7593TIP3    H246975   0.064   1.937  12.472 -0.8248 -0.7698 -0.3015
 7594TIP3   OH246976   4.297   5.059  11.190 -0.2390 -0.1120 -0.3641
 7594TIP3    H146977   4.345   5.043  11.109 -0.8414 -1.9852 -0.4108
 7594TIP3    H246978   4.364   5.052  11.259  0.0667  0.2847 -0.6182
 7595TIP3   OH246979   2.904   4.181  10.060 -0.0305  0.4566  0.0373
 7595TIP3    H146980   2.882   4.211  10.149  0.8848  0.3071  0.3240
 7595TIP3    H246981   2.993   4.213  10.046 -0.2055  0.5615 -0.8756
 7596TIP3   OH246982   5.368   2.453  11.598 -0.2701  0.2425 -0.0146
 7596TIP3    H146983   5.362   2.517  11.527 -0.1917  0.3758  0.0990
 7596TIP3    H246984   5.456   2.418  11.592 -0.0853  0.6293  0.3371
 7597TIP3   OH246985   3.640   6.215  12.620 -0.8520  0.4192 -0.3645
 7597TIP3    H146986   3.679   6.133  12.590  2.6068  2.1215 -0.9568
 7597TIP3    H246987   3.597   6.192  12.703  0.2892 -1.9333 -0.3469
 7598TIP3   OH246988   4.839   0.599  10.066 -0.5979 -0.2933 -0.0222
 7598TIP3    H146989   4.932   0.587  10.045 -0.5535 -0.0470  0.0336
 7598TIP3    H246990   4.793   0.553   9.996 -0.4555  0.5549 -0.6844
 7599TIP3   OH246991   2.789   2.187   9.571  0.0218 -0.2062 -0.3385
 7599TIP3    H146992   2.716   2.134   9.540 -1.4967  1.1086  0.8269
 7599TIP3    H246993   2.759   2.222   9.655  1.3941  1.5856 -0.5362
 7600TIP3   OH246994   6.237   3.471   9.744 -0.5088  0.3458 -0.1120
 7600TIP3    H146995   6.268   3.381   9.752  1.0686  0.8083 -0.6536
 7600TIP3    H246996   6.228   3.501   9.835 -1.0253 -0.3221  0.0711
 7601TIP3   OH246997   3.948   6.250  10.595 -0.1496 -0.1073 -0.5265
 7601TIP3    H146998   3.947   6.302  10.514 -0.0774  0.9936  0.1551
 7601TIP3    H246999   4.020   6.188  10.583 -0.4271 -0.2576 -1.4845
 7602TIP3   OH247000   2.801   4.703  12.037  0.2993  0.1960  0.0339
 7602TIP3    H147001   2.710   4.690  12.063  0.9783  0.2565  2.7130
 7602TIP3    H247002   2.807   4.797  12.019 -0.3395  0.0520 -1.0103
 7603TIP3   OH247003   2.199   0.359  12.511  0.0393 -0.1842 -0.3125
 7603TIP3    H147004   2.239   0.277  12.539 -0.2729  0.2591  1.6248
 7603TIP3    H247005   2.138   0.381  12.582  0.0858  1.6758 -0.7871
 7604TIP3   OH247006   3.862   5.070  10.166 -0.5320 -0.2122 -0.7971
 7604TIP3    H147007   3.875   5.097  10.257  2.2523  1.8220 -1.6471
 7604TIP3    H247008   3.796   5.130  10.132 -1.5647 -0.9645 -0.1866
 7605TIP3   OH247009   6.503   5.078  10.840 -0.3553  0.3133 -0.7579
 7605TIP3    H147010   6.429   5.138  10.841 -0.2016  0.5535  1.9299
 7605TIP3    H247011   6.466   4.992  10.859 -0.0766  0.2184 -0.6312
 7606TIP3   OH247012   2.233   0.711  10.108 -0.3625 -0.0749  0.2505
 7606TIP3    H147013   2.267   0.771  10.041  1.8979 -1.0948  0.4007
 7606TIP3    H247014   2.160   0.758  10.148  1.5590  2.7799  0.6685
 7607TIP3   OH247015   2.283   5.259  11.254  0.1998  0.5491  0.0362
 7607TIP3    H147016   2.198   5.296  11.227  0.3390 -0.3455 -1.8009
 7607TIP3    H247017   2.261   5.199  11.325 -0.7376  0.2662 -0.4652
 7608TIP3   OH247018   5.506   2.345  12.143  0.4422  0.0187  0.3681
 7608TIP3    H147019   5.496   2.307  12.055  2.8550  1.3260 -0.5986
 7608TIP3    H247020   5.478   2.276  12.203  0.0718 -1.4473 -1.3943
 7609TIP3   OH247021   3.997   3.468  10.152 -0.3139 -0.0852  0.0589
 7609TIP3    H147022   4.060   3.538  10.136 -0.6631  0.0315 -0.8428
 7609TIP3    H247023   4.018   3.401  10.087  0.1724 -0.9390  1.0601
 7610TIP3   OH247024   0.217   2.996  13.619  0.2445  0.6026  0.1844
 7610TIP3    H147025   0.138   3.012  13.671  0.2080  0.5433  0.1466
 7610TIP3    H247026   0.185   2.969  13.533  0.3035  0.3305  0.2437
 7611TIP3   OH247027   5.276   0.892   9.629 -0.9486  0.3582 -0.2268
 7611TIP3    H147028   5.264   0.984   9.609 -1.1855  0.9275  2.2047
 7611TIP3    H247029   5.210   0.873   9.696 -1.3560 -1.7712 -1.1276
 7612TIP3   OH247030   1.178   4.330  11.863 -0.2326  0.1389  0.4087
 7612TIP3    H147031   1.262   4.304  11.825 -0.6481  0.0448 -0.4726
 7612TIP3    H247032   1.112   4.292  11.805 -0.8881  0.4744  0.9100
 7613TIP3   OH247033   3.646   4.148  10.137  0.3058  0.3072  0.7170
 7613TIP3    H147034   3.688   4.198  10.207  0.9057 -0.3401  0.8366
 7613TIP3    H247035   3.589   4.211  10.094 -1.1400  0.4021  2.6331
 7614TIP3   OH247036   0.363   0.102  12.384  0.2541  0.6687  0.3948
 7614TIP3    H147037   0.349   0.173  12.446 -1.1382  1.1346 -0.3998
 7614TIP3    H247038   0.289   0.108  12.323  1.0016 -0.4230 -0.6816
 7615TIP3   OH247039   1.306   4.068  10.931 -0.0337  0.1895  0.0139
 7615TIP3    H147040   1.227   4.119  10.914 -0.8487 -1.4497 -1.3904
 7615TIP3    H247041   1.276   3.978  10.937  1.6832 -0.4354 -0.1795
 7616TIP3   OH247042   6.361   0.283  10.608  0.1561  0.3048  0.1267
 7616TIP3    H147043   6.289   0.226  10.633  1.0926 -0.4435  1.2135
 7616TIP3    H247044   6.420   0.283  10.684  1.5139  0.5514 -0.8824
 7617TIP3   OH247045   2.686   0.364  10.478 -0.3546  0.3065 -0.2255
 7617TIP3    H147046   2.683   0.270  10.492  2.6148  0.1468  0.0394
 7617TIP3    H247047   2.683   0.401  10.566 -2.8726  0.6257 -0.3708
 7618TIP3   OH247048   0.469   0.430  12.042 -0.6839 -0.2121 -0.5962
 7618TIP3    H147049   0.397   0.460  12.097  1.7024  1.0563  2.0671
 7618TIP3    H247050   0.477   0.498  11.975 -0.7875  0.6261  0.2214
 7619TIP3   OH247051   1.898   0.557   9.747  0.7847  0.3470  0.2997
 7619TIP3    H147052   1.969   0.496   9.766  1.0530  0.8668  0.9835
 7619TIP3    H247053   1.898   0.619   9.820 -0.0644  0.6371  0.0748
 7620TIP3   OH247054   5.547   5.322   9.485 -0.2995  0.0608  0.1319
 7620TIP3    H147055   5.471   5.274   9.452 -0.1445  0.3719 -0.6970
 7620TIP3    H247056   5.616   5.306   9.421  0.1113  0.3954  0.4859
 7621TIP3   OH247057   1.656   4.317  12.338 -0.0809 -0.2752  0.3653
 7621TIP3    H147058   1.669   4.333  12.431 -2.4783 -1.0573  0.9045
 7621TIP3    H247059   1.616   4.397  12.304  0.0949 -0.2660  0.1744
 7622TIP3   OH247060   5.560   1.014  12.934  0.6951  0.1575  0.3459
 7622TIP3    H147061   5.646   1.043  12.963  1.0398  0.1237 -0.6158
 7622TIP3    H247062   5.556   0.922  12.960  0.9531  0.1526  0.3684
 7623TIP3   OH247063   1.397   4.273   9.695  0.3512 -0.1076 -0.1887
 7623TIP3    H147064   1.342   4.207   9.737  1.2016 -0.6529  0.1003
 7623TIP3    H247065   1.485   4.253   9.725  0.9359 -0.2202 -1.8583
 7624TIP3   OH247066   4.532   5.448   9.917 -0.1876 -0.6271  0.5569
 7624TIP3    H147067   4.470   5.439   9.845 -0.0065 -0.6671  0.4057
 7624TIP3    H247068   4.510   5.533   9.957  1.1188  0.4390 -0.8859
 7625TIP3   OH247069   3.139   5.982  10.485  0.4844  0.7363  0.1644
 7625TIP3    H147070   3.132   6.021  10.398 -0.6200 -1.3586 -0.7684
 7625TIP3    H247071   3.226   6.008  10.516  1.5142  0.3533 -2.1867
 7626TIP3   OH247072   5.121   3.510  10.450  0.2608 -0.5896  0.0290
 7626TIP3    H147073   5.025   3.500  10.446  0.0160  1.8330 -2.0613
 7626TIP3    H247074   5.135   3.594  10.494  1.3773 -0.2558 -0.9327
 7627TIP3   OH247075   2.889   3.360  11.675  0.5341 -0.5489  0.2227
 7627TIP3    H147076   2.894   3.333  11.584 -0.2277  0.3094 -0.0911
 7627TIP3    H247077   2.887   3.456  11.672  3.7645 -0.3260  1.3213
 7628TIP3   OH247078   1.545   0.557  11.667  0.2427 -0.2358  0.6863
 7628TIP3    H147079   1.512   0.474  11.702 -2.2885  0.5298  0.3685
 7628TIP3    H247080   1.553   0.542  11.573 -1.6796  0.2535  0.4075
 7629TIP3   OH247081   1.825   0.687  11.910 -0.2217 -0.2874  0.1343
 7629TIP3    H147082   1.734   0.675  11.880 -0.2246 -0.2175  0.1162
 7629TIP3    H247083   1.821   0.759  11.972 -0.3724 -1.0528  1.0322
 7630TIP3   OH247084   4.907   5.702  10.239 -0.0788  0.1075  0.5723
 7630TIP3    H147085   4.832   5.762  10.241  0.2943  0.7095 -1.3680
 7630TIP3    H247086   4.983   5.758  10.254  0.1560 -0.1087  0.2090
 7631TIP3   OH247087   0.874   6.278  11.693 -0.0464 -0.3149 -0.0625
 7631TIP3    H147088   0.901   6.189  11.669 -1.9036 -1.3805  1.4678
 7631TIP3    H247089   0.787   6.287  11.655 -0.5366  0.2280  1.1560
 7632TIP3   OH247090   3.935   3.667  11.433 -0.0960 -0.3848  0.1974
 7632TIP3    H147091   4.008   3.668  11.496  1.1808 -2.0987 -1.1588
 7632TIP3    H247092   3.968   3.616  11.359 -3.2258 -2.6918  0.1987
 7633TIP3   OH247093   2.609   5.089  12.635  0.0481  0.2671 -0.7325
 7633TIP3    H147094   2.550   5.034  12.584 -0.5509 -0.1695  0.4047
 7633TIP3    H247095   2.688   5.036  12.647 -1.2566 -1.2688  2.0737
 7634TIP3   OH247096   1.713   6.060   9.813 -0.3871  0.0352 -0.1217
 7634TIP3    H147097   1.754   5.995   9.869 -1.0625  0.7408  1.2249
 7634TIP3    H247098   1.621   6.034   9.808 -0.6703  0.8747  0.4506
 7635TIP3   OH247099   0.164   0.299  10.464 -0.8204  0.2557  0.2339
 7635TIP3    H147100   0.101   0.341  10.404  0.1359  0.5680 -0.5872
 7635TIP3    H247101   0.211   0.372  10.504 -1.6078  0.0583  1.5871
 7636TIP3   OH247102   5.143   2.173  11.303 -0.0204 -0.1901 -0.2203
 7636TIP3    H147103   5.062   2.127  11.322  0.0410 -0.7999 -1.3445
 7636TIP3    H247104   5.165   2.148  11.213  1.3367  0.0644  0.0098
 7637TIP3   OH247105   5.846   2.649   9.612  0.4706 -0.5952  0.6468
 7637TIP3    H147106   5.845   2.583   9.681  1.1885 -0.3367  0.9150
 7637TIP3    H247107   5.854   2.732   9.659  0.9234 -0.4173  0.2603
 7638TIP3   OH247108   3.609   3.907  10.763  0.0891 -0.2317  0.1190
 7638TIP3    H147109   3.661   3.860  10.828 -0.3545  1.7681  2.0482
 7638TIP3    H247110   3.530   3.855  10.753  1.3650 -2.0645 -1.0743
 7639TIP3   OH247111   5.713   4.329  11.987  0.2593 -0.2588  0.5763
 7639TIP3    H147112   5.770   4.332  12.064  0.6279 -0.0761  0.3013
 7639TIP3    H247113   5.725   4.414  11.945  0.0758 -0.3634  0.3067
 7640TIP3   OH247114   2.949   5.666  12.200 -0.7703  0.0918 -0.7777
 7640TIP3    H147115   2.959   5.571  12.208  1.2223  0.2849 -0.3042
 7640TIP3    H247116   2.947   5.697  12.291 -0.4421  0.5661 -0.9286
 7641TIP3   OH247117   5.047   5.943   9.769 -0.0955  0.2453  0.4991
 7641TIP3    H147118   5.032   5.951   9.863 -3.1045  1.4209  0.0392
 7641TIP3    H247119   5.039   6.033   9.736 -1.7275 -0.4325 -1.1249
 7642TIP3   OH247120   4.278   5.102  10.145  0.3953 -0.1163  0.2760
 7642TIP3    H147121   4.319   5.053  10.217 -0.3270  0.0713  0.8284
 7642TIP3    H247122   4.351   5.140  10.097  0.9838 -1.7502 -0.1866
 7643TIP3   OH247123   2.483   5.743  14.072 -0.4929 -0.1426 -0.0399
 7643TIP3    H147124   2.498   5.754  13.978 -2.3607 -1.0866 -0.4999
 7643TIP3    H247125   2.419   5.810  14.094  0.1939  0.2995  0.6543
 7644TIP3   OH247126   0.836   0.511  11.636  0.3873  0.1767  0.3531
 7644TIP3    H147127   0.852   0.545  11.724  1.2834 -1.4130  0.8457
 7644TIP3    H247128   0.770   0.443  11.647  1.5184 -1.0145  0.0506
 7645TIP3   OH247129   0.920   2.928   9.934  0.1838 -0.3700  0.0186
 7645TIP3    H147130   0.962   2.973   9.860 -0.7902 -1.2067 -1.0802
 7645TIP3    H247131   0.921   2.836   9.909  1.3219 -0.8987  1.8272
 7646TIP3   OH247132   2.950   4.458  12.453 -0.1880  0.1381 -0.2294
 7646TIP3    H147133   2.874   4.477  12.398  0.3949 -0.4359 -1.2693
 7646TIP3    H247134   3.017   4.519  12.423 -0.0652  0.2919  0.3345
 7647TIP3   OH247135   4.712   3.514  11.162 -0.2967  1.4788  0.4003
 7647TIP3    H147136   4.660   3.441  11.130 -0.9401  1.4600  1.4261
 7647TIP3    H247137   4.736   3.564  11.084  0.5439 -0.0652 -0.3726
 7648TIP3   OH247138   2.001   2.659  10.375  0.0770  0.4083 -0.2817
 7648TIP3    H147139   1.928   2.605  10.404  0.5349 -0.9835 -1.5654
 7648TIP3    H247140   1.972   2.698  10.292 -0.7970  3.4185  1.3012
 7649TIP3   OH247141   4.242   0.427  11.937  0.0627 -0.0137  0.7855
 7649TIP3    H147142   4.203   0.345  11.908 -0.4746  0.6140 -0.3493
 7649TIP3    H247143   4.171   0.474  11.981  0.4136 -0.2135  1.5870
 7650TIP3   OH247144   3.763   1.798  10.575  0.2399  0.2720  0.8603
 7650TIP3    H147145   3.711   1.722  10.548  0.2517  0.3717  0.5490
 7650TIP3    H247146   3.700   1.870  10.580  0.7632  1.1634 -2.6150
 7651TIP3   OH247147   4.243   3.146  12.826 -0.2391 -0.2625  0.0983
 7651TIP3    H147148   4.253   3.051  12.834  0.1674 -0.2757 -0.5256
 7651TIP3    H247149   4.150   3.159  12.808  0.0753 -0.7073 -2.0335
 7652TIP3   OH247150   2.569   4.890  10.675 -0.3652 -0.1075 -0.0409
 7652TIP3    H147151   2.498   4.832  10.704  0.5425 -0.6409  1.1739
 7652TIP3    H247152   2.524   4.963  10.632 -1.7801  0.5485  2.3879
 7653TIP3   OH247153   2.021   0.390  12.735  0.6387  0.2183 -0.5654
 7653TIP3    H147154   1.969   0.457  12.781 -0.3965 -0.4031 -0.7840
 7653TIP3    H247155   2.091   0.368  12.795  1.0149  1.5236 -0.5033
 7654TIP3   OH247156   4.829   4.822  10.247 -0.3723 -0.2641  0.4702
 7654TIP3    H147157   4.861   4.751  10.191  2.3881  0.6274  0.7486
 7654TIP3    H247158   4.839   4.789  10.336  1.3745  0.5484  0.6227
 7655TIP3   OH247159   4.075   6.120  11.836 -0.2672  0.4001  0.2919
 7655TIP3    H147160   4.056   6.117  11.742 -2.7704 -2.1601  0.7617
 7655TIP3    H247161   3.998   6.161  11.875 -0.4756 -1.0015  1.4249
 7656TIP3   OH247162   4.350   6.307  12.219 -0.3099 -0.3811 -0.1290
 7656TIP3    H147163   4.343   6.369  12.146 -0.1821 -0.5228 -0.2616
 7656TIP3    H247164   4.278   6.245  12.205 -1.4966  0.7069  0.9360
 7657TIP3   OH247165   5.537   1.825  10.510  0.1905  0.5602  0.1878
 7657TIP3    H147166   5.535   1.746  10.564  1.3492  0.6429  0.3777
 7657TIP3    H247167   5.481   1.887  10.556 -2.3122 -0.7265 -0.9539
 7658TIP3   OH247168   4.678   4.154  11.380  0.2918 -0.1128 -0.0785
 7658TIP3    H147169   4.668   4.159  11.285 -0.2299 -1.0441 -0.0783
 7658TIP3    H247170   4.631   4.075  11.405  1.5013 -0.5814  0.8025
 7659TIP3   OH247171   3.442   1.190  11.288  0.2571  0.9185  0.0692
 7659TIP3    H147172   3.457   1.158  11.377 -2.4455 -1.6325 -0.2085
 7659TIP3    H247173   3.397   1.274  11.300 -0.6618  0.3071  1.1913
 7660TIP3   OH247174   6.649   0.363  12.647  0.5852  0.2307  0.0731
 7660TIP3    H147175   6.638   0.398  12.735  1.0108  2.7063 -0.7584
 7660TIP3    H247176   6.735   0.395  12.619  0.5184 -0.6321 -1.1738
 7661TIP3   OH247177   0.186   3.332  10.742  0.4807  0.0323 -0.2843
 7661TIP3    H147178   0.094   3.342  10.719  0.3218  1.5035  0.8161
 7661TIP3    H247179   0.235   3.365  10.667  0.0810  0.2787 -0.4342
 7662TIP3   OH247180   6.120   2.873  11.229  0.5744  0.3650  0.1509
 7662TIP3    H147181   6.161   2.790  11.253  0.8896  0.4655 -0.0316
 7662TIP3    H247182   6.193   2.936  11.225  0.3437  0.6431  0.2581
 7663TIP3   OH247183   2.366   5.641  10.142  0.5457  0.0816  0.0710
 7663TIP3    H147184   2.368   5.727  10.101  0.4880  0.3887  0.7086
 7663TIP3    H247185   2.277   5.609  10.128  0.6321  0.0202 -0.3651
 7664TIP3   OH247186   1.278   3.972  11.962 -0.2191 -0.0482 -0.0028
 7664TIP3    H147187   1.369   3.955  11.937  0.0172  0.3198  0.5800
 7664TIP3    H247188   1.284   4.007  12.051 -1.0542 -1.8321  0.8270
 7665TIP3   OH247189   2.634   4.494   9.600  0.4960  0.6716 -0.0131
 7665TIP3    H147190   2.629   4.571   9.656 -1.7005 -0.9822  2.2989
 7665TIP3    H247191   2.719   4.455   9.622  0.7806  1.4082  0.2373
 7666TIP3   OH247192   0.483   0.389  10.998  0.6994 -0.4566  0.3970
 7666TIP3    H147193   0.480   0.334  10.920 -1.0360 -2.3786  1.7185
 7666TIP3    H247194   0.568   0.371  11.037  0.8822 -0.7949 -0.1419
 7667TIP3   OH247195   1.071   1.061  12.818  0.0562  0.0864 -0.1205
 7667TIP3    H147196   1.004   1.080  12.753  1.9398  1.0706 -1.9113
 7667TIP3    H247197   1.126   1.140  12.819  0.8494 -0.4344  1.7202
 7668TIP3   OH247198   3.483   0.214   9.878 -0.4826  0.6906  0.3826
 7668TIP3    H147199   3.433   0.272   9.936 -0.5790  0.6794  0.3112
 7668TIP3    H247200   3.498   0.267   9.799  0.9164  1.2379  0.9747
 7669TIP3   OH247201   4.476   2.539  12.335 -0.2748 -0.4522 -0.0154
 7669TIP3    H147202   4.485   2.447  12.360 -0.3409 -0.4146  0.1421
 7669TIP3    H247203   4.392   2.567  12.371 -0.8651 -0.6905 -1.1705
 7670TIP3   OH247204   6.522   1.179  13.164 -0.0504  0.1366 -0.0478
 7670TIP3    H147205   6.495   1.103  13.112 -1.0810  0.6289 -0.2339
 7670TIP3    H247206   6.618   1.173  13.165 -0.0903 -0.8773 -0.4906
 7671TIP3   OH247207   3.753   5.162  12.654  0.9047  0.0734 -0.6808
 7671TIP3    H147208   3.669   5.149  12.698  1.6072 -0.4144  0.5507
 7671TIP3    H247209   3.749   5.107  12.576  0.4058 -0.5904 -0.1886
 7672TIP3   OH247210   2.961   0.844  10.278  0.0382  0.5815 -0.0590
 7672TIP3    H147211   2.910   0.858  10.199  0.7486 -0.6883 -0.7850
 7672TIP3    H247212   2.942   0.920  10.333  0.0932  1.8813 -1.7465
 7673TIP3   OH247213   2.402   0.663  10.637 -0.2086 -0.1787  0.3221
 7673TIP3    H147214   2.489   0.664  10.677 -0.3322  2.4567  0.7232
 7673TIP3    H247215   2.413   0.613  10.556  0.9176 -2.4301  1.7437
 7674TIP3   OH247216   0.882   3.190  12.051 -0.3083  0.3830  0.5126
 7674TIP3    H147217   0.793   3.167  12.078 -1.1819  2.6271 -0.2127
 7674TIP3    H247218   0.938   3.133  12.103 -2.1701 -1.5088  0.5698
 7675TIP3   OH247219   5.431   1.760  12.042 -0.0873  0.4514  0.7805
 7675TIP3    H147220   5.470   1.728  12.123  0.0715 -1.4981 -0.0122
 7675TIP3    H247221   5.392   1.682  12.002 -0.0495  1.3393 -1.0689
 7676TIP3   OH247222   2.550   6.213  11.053  0.1828  0.3822 -0.3766
 7676TIP3    H147223   2.638   6.249  11.068 -0.2497  1.3599 -0.1018
 7676TIP3    H247224   2.523   6.251  10.969 -0.1915  0.5155 -0.1954
 7677TIP3   OH247225   5.266   2.645  11.383 -0.1188  0.5457  0.4229
 7677TIP3    H147226   5.195   2.581  11.382  1.7235 -1.7028 -2.4099
 7677TIP3    H247227   5.226   2.725  11.350 -1.2359 -0.9566 -2.2304
 7678TIP3   OH247228   0.500   5.297  11.710 -0.7070  0.2047 -0.1678
 7678TIP3    H147229   0.538   5.375  11.670 -2.0040  1.0934  0.2467
 7678TIP3    H247230   0.575   5.248  11.744  0.0834  1.8898  0.6525
 7679TIP3   OH247231   0.871   2.435  11.876 -0.0574 -0.0281  0.0236
 7679TIP3    H147232   0.843   2.362  11.932  1.2273 -0.4816  0.1012
 7679TIP3    H247233   0.822   2.510  11.909  0.4228 -0.3464  1.5637
 7680TIP3   OH247234   5.798   3.476  11.666  0.1506  0.1164 -0.2169
 7680TIP3    H147235   5.853   3.466  11.743 -0.4168  2.8345  0.6255
 7680TIP3    H247236   5.832   3.553  11.621 -2.3588  1.3627 -0.1392
 7681TIP3   OH247237   3.730   5.857  10.493  0.2922 -0.2497 -0.6600
 7681TIP3    H147238   3.665   5.927  10.499 -1.0980 -1.5150 -0.4706
 7681TIP3    H247239   3.787   5.884  10.421 -1.9883 -0.3093 -2.6252
 7682TIP3   OH247240   0.031   4.072  10.171 -0.7877 -0.3584  0.0353
 7682TIP3    H147241  -0.017   4.099  10.249 -0.6493 -1.3398  0.4774
 7682TIP3    H247242  -0.027   4.092  10.098 -0.8529  0.7112  0.3766
 7683TIP3   OH247243   0.118   1.042  12.043  0.3561  0.3110 -0.2221
 7683TIP3    H147244   0.184   1.045  12.112  0.7987 -0.6124 -0.5813
 7683TIP3    H247245   0.158   1.090  11.970  0.1455  0.7450 -0.0571
 7684TIP3   OH247246   2.460   3.960  10.339 -0.4684 -0.4202 -0.1513
 7684TIP3    H147247   2.402   3.943  10.265  0.5011 -0.0191 -1.0213
 7684TIP3    H247248   2.442   3.888  10.400  0.0184 -1.7931 -1.5686
 7685TIP3   OH247249   5.473   2.845  12.154  0.1955 -0.4791 -0.8598
 7685TIP3    H147250   5.477   2.749  12.163 -2.0233 -0.6427 -1.1917
 7685TIP3    H247251   5.384   2.868  12.179  1.3119  1.8179  1.4099
 7686TIP3   OH247252   1.374   4.528   9.791  0.1570  0.2112 -0.0241
 7686TIP3    H147253   1.384   4.433   9.797  3.0262  0.5061  1.6464
 7686TIP3    H247254   1.385   4.547   9.698 -0.6959 -1.0667 -0.4197
 7687TIP3   OH247255   3.595   2.243  11.748 -0.0502 -0.1071 -0.1968
 7687TIP3    H147256   3.686   2.214  11.750  0.2157  0.5529 -1.9198
 7687TIP3    H247257   3.597   2.333  11.779 -0.1104 -0.0658 -0.3111
 7688TIP3   OH247258   2.702   4.585  11.205 -0.2873 -0.4228  0.3233
 7688TIP3    H147259   2.640   4.525  11.247  0.4113 -1.3747  0.0504
 7688TIP3    H247260   2.779   4.583  11.263  0.2534 -0.8572 -0.3853
 7689TIP3   OH247261   6.170   0.121  10.744  0.8098 -0.6104  0.3217
 7689TIP3    H147262   6.135   0.065  10.674  1.0636  1.2572 -1.3787
 7689TIP3    H247263   6.092   0.157  10.787  0.6397 -0.4177 -0.1406
 7690TIP3   OH247264   3.764   1.975  12.203 -0.0819 -0.3627 -0.1829
 7690TIP3    H147265   3.853   1.959  12.171 -0.1321 -0.6801 -0.1682
 7690TIP3    H247266   3.771   1.964  12.298 -0.0139  0.1991 -0.1189
 7691TIP3   OH247267   0.341   1.313  10.300 -0.2971  0.4168  0.6428
 7691TIP3    H147268   0.348   1.224  10.265  0.8383  0.6347  0.2732
 7691TIP3    H247269   0.350   1.302  10.395 -2.0839 -0.0411  0.7927
 7692TIP3   OH247270   1.317   6.559  10.823 -0.2060  0.0917  0.3014
 7692TIP3    H147271   1.271   6.552  10.739  0.1297  1.3313 -0.0023
 7692TIP3    H247272   1.385   6.492  10.818  0.8806  1.2217 -1.1462
 7693TIP3   OH247273   5.835   0.268  18.752 -0.4590 -0.1304  0.2974
 7693TIP3    H147274   5.825   0.362  18.772 -0.3552  0.5999 -2.6088
 7693TIP3    H247275   5.798   0.224  18.828 -0.9806  2.2619  1.5572
 7694TIP3   OH247276   3.435   4.135  10.481  0.2812 -1.1463  0.4609
 7694TIP3    H147277   3.411   4.155  10.391 -2.1813  1.2863  1.4859
 7694TIP3    H247278   3.377   4.064  10.507 -0.2764 -0.6534  0.5968
 7695TIP3   OH247279   3.993   4.186  10.791  0.0141 -0.0783 -0.0455
 7695TIP3    H147280   4.001   4.225  10.704 -1.1617  2.0599  0.7474
 7695TIP3    H247281   3.899   4.171  10.803  0.1062  0.1196  1.0432
 7696TIP3   OH247282   6.517   0.404  12.319 -0.1775  0.0770  0.1707
 7696TIP3    H147283   6.525   0.456  12.399 -0.9832 -0.4566  0.6071
 7696TIP3    H247284   6.500   0.469  12.250  1.0826  0.5949  0.3108
 7697TIP3   OH247285   0.511   2.899  11.491  0.4786  0.2835  0.5622
 7697TIP3    H147286   0.521   2.920  11.398 -0.9331 -0.6302  0.1772
 7697TIP3    H247287   0.517   2.804  11.496  0.3568  0.3068  1.3857
 7698TIP3   OH247288   0.378   0.166  12.092  0.2406  0.7775  0.2110
 7698TIP3    H147289   0.386   0.258  12.070 -0.2285  0.5049 -1.2228
 7698TIP3    H247290   0.465   0.129  12.077  0.2804  0.8771  0.2015
 7699TIP3   OH247291   0.859   5.560  12.102  0.0127  0.1166 -0.1520
 7699TIP3    H147292   0.905   5.496  12.156 -0.5491  1.0126  1.4547
 7699TIP3    H247293   0.786   5.511  12.063 -0.8109 -0.0962  1.5999
 7700TIP3   OH247294   3.978   0.447   9.550  0.4577  0.3774  0.1246
 7700TIP3    H147295   3.989   0.411   9.638  1.5041  1.2487  0.3770
 7700TIP3    H247296   4.039   0.521   9.547 -1.4566  1.9995 -0.4395
 7701TIP3   OH247297   0.865   2.958   9.600  0.8467 -0.3275  0.0752
 7701TIP3    H147298   0.944   2.956   9.654  0.3568 -0.1661  0.8032
 7701TIP3    H247299   0.864   3.046   9.563  0.6202 -0.0840  0.6529
 7702TIP3   OH247300   3.926   4.686  11.660 -0.1946  0.2004 -0.7085
 7702TIP3    H147301   3.902   4.595  11.647  2.4051 -0.8247  0.8456
 7702TIP3    H247302   4.017   4.692  11.629  1.0919  1.1522  2.7156
 7703TIP3   OH247303   5.729   4.870  10.823  0.2362  0.1753 -0.2313
 7703TIP3    H147304   5.655   4.897  10.768  0.4785 -0.1834 -0.7386
 7703TIP3    H247305   5.791   4.942  10.817  0.7416 -0.3413 -1.3221
 7704TIP3   OH247306   3.747   1.716   9.831  0.6651 -0.5224 -0.5137
 7704TIP3    H147307   3.784   1.675   9.753 -2.8181 -3.1831 -1.0303
 7704TIP3    H247308   3.660   1.746   9.803  0.4167  1.1082  1.6941
 7705TIP3   OH247309   4.890   5.723  10.801 -0.0835  0.2729 -0.0221
 7705TIP3    H147310   4.857   5.812  10.790  1.4128  1.3103  2.7644
 7705TIP3    H247311   4.940   5.726  10.883  0.3708 -3.0501 -0.0321
 7706TIP3   OH247312   5.415   0.558  12.503 -0.1870  0.2543 -0.3111
 7706TIP3    H147313   5.339   0.514  12.540  0.6401 -0.5213  0.5146
 7706TIP3    H247314   5.487   0.497  12.515  0.4536  0.6910 -1.6987
 7707TIP3   OH247315   5.026   2.897  10.683  0.4737  0.1854  0.4758
 7707TIP3    H147316   5.066   2.847  10.612 -3.8273 -2.6192 -0.3022
 7707TIP3    H247317   5.014   2.833  10.754 -1.9490  0.9378  0.8417
 7708TIP3   OH247318   0.519   1.150  11.251  0.6455 -0.8516 -0.6168
 7708TIP3    H147319   0.591   1.213  11.247  0.0641 -0.2538 -3.0229
 7708TIP3    H247320   0.542   1.082  11.187  0.2002 -1.9558  0.3502
 7709TIP3   OH247321   5.927   1.824   9.867  0.2213 -0.0171 -0.2398
 7709TIP3    H147322   6.022   1.839   9.868  0.1278  0.6521  1.0129
 7709TIP3    H247323   5.895   1.868   9.946 -1.0272 -0.9457 -0.1926
 7710TIP3   OH247324   0.350   1.830  11.279 -0.1722  0.0609  0.2055
 7710TIP3    H147325   0.341   1.827  11.374 -0.5057 -1.1604  0.1594
 7710TIP3    H247326   0.405   1.754  11.258  0.9241  1.0043 -0.4865
 7711TIP3   OH247327   5.612   0.943  13.235 -0.1326 -0.0953 -0.2316
 7711TIP3    H147328   5.670   0.992  13.176  2.0269  0.1566  1.9548
 7711TIP3    H247329   5.563   0.885  13.177  0.9723  1.0056 -2.3925
 7712TIP3   OH247330   4.339   3.617  11.248 -0.3006 -0.1052  0.0227
 7712TIP3    H147331   4.393   3.663  11.184  1.3753  0.0279  1.4538
 7712TIP3    H247332   4.396   3.607  11.324 -2.2620 -0.0995  1.5655
 7713TIP3   OH247333   6.560   6.201  13.007  0.1058  0.3502  0.2867
 7713TIP3    H147334   6.621   6.207  13.081  0.8141  0.9940 -0.3383
 7713TIP3    H247335   6.608   6.152  12.940 -0.3081  0.3087  0.0160
 7714TIP3   OH247336   0.518   2.595  11.919  0.3885 -0.3996 -0.4809
 7714TIP3    H147337   0.536   2.506  11.890 -0.4249 -1.3556  1.7245
 7714TIP3    H247338   0.433   2.617  11.881  0.9238 -0.2342 -1.6350
 7715TIP3   OH247339   0.164   6.470  11.831  0.5705  0.1122 -0.2148
 7715TIP3    H147340   0.094   6.416  11.867 -0.1315  0.3170 -1.2378
 7715TIP3    H247341   0.197   6.420  11.757  0.9958  0.3746 -0.2093
 7716TIP3   OH247342   4.673   1.776   9.849  0.5670  0.0409 -0.0905
 7716TIP3    H147343   4.765   1.754   9.855  0.7772  0.8147 -0.3614
 7716TIP3    H247344   4.637   1.712   9.787  0.8288 -0.5114  0.3202
 7717TIP3   OH247345   2.387   0.440  10.465  0.2432  0.8342  0.1479
 7717TIP3    H147346   2.417   0.415  10.553  0.4286 -0.0818 -0.1647
 7717TIP3    H247347   2.462   0.423  10.409 -0.4427 -0.2969 -0.4555
 7718TIP3   OH247348   2.065   2.032  10.955 -0.7488  0.5714 -0.2614
 7718TIP3    H147349   2.073   2.034  11.050 -1.0369  1.1684 -0.2421
 7718TIP3    H247350   1.979   2.071  10.937  0.1965  2.5457 -0.8457
 7719TIP3   OH247351   3.475   5.164  12.769  0.1190  0.1662 -0.1806
 7719TIP3    H147352   3.410   5.103  12.734 -0.8344  0.1141  1.5714
 7719TIP3    H247353   3.435   5.200  12.848  1.0152  2.4377 -0.6676
 7720TIP3   OH247354   6.096   0.223  11.195  0.3018 -0.1101 -0.3772
 7720TIP3    H147355   6.094   0.265  11.281  0.0619  1.0826 -0.9396
 7720TIP3    H247356   6.169   0.161  11.200 -1.1167 -1.7384  1.4174
 7721TIP3   OH247357   0.822   2.921  11.480  0.2102 -0.1310 -0.0829
 7721TIP3    H147358   0.744   2.969  11.454 -0.1826  0.4765  1.9900
 7721TIP3    H247359   0.894   2.981  11.461 -0.0484  0.2477  0.1167
 7722TIP3   OH247360   3.112   6.674  12.358  0.0184  0.2502  0.2637
 7722TIP3    H147361   3.121   6.663  12.452 -0.3670  1.0087  0.3940
 7722TIP3    H247362   3.041   6.737  12.347  0.5787  0.7790 -0.5116
 7723TIP3   OH247363   5.788   5.406  13.241 -0.0044 -0.0184  0.2215
 7723TIP3    H147364   5.720   5.462  13.278  0.3579 -0.0466  0.9475
 7723TIP3    H247365   5.821   5.455  13.166 -0.2242  0.3885  0.3892
 7724TIP3   OH247366   3.506   1.527  11.282 -0.3149 -0.5930 -0.0539
 7724TIP3    H147367   3.509   1.621  11.262 -1.1454 -0.7362 -0.9535
 7724TIP3    H247368   3.522   1.522  11.376  2.2383  0.2407 -0.3598
 7725TIP3   OH247369   4.496   5.967  12.935  0.1443 -0.5363  0.5541
 7725TIP3    H147370   4.421   6.013  12.973  0.1593 -0.1796  0.1654
 7725TIP3    H247371   4.570   6.025  12.950  0.3647 -0.9310  1.0182
 7726TIP3   OH247372   1.831   0.325  11.680 -0.0707 -0.5542 -0.3573
 7726TIP3    H147373   1.894   0.312  11.752 -2.1595  0.1599  1.7345
 7726TIP3    H247374   1.853   0.410  11.644  0.9168 -0.8514 -0.5031
 7727TIP3   OH247375   5.077   0.605   9.707  0.1416  0.3072  0.6623
 7727TIP3    H147376   5.156   0.578   9.753  0.8575  0.9713 -0.1281
 7727TIP3    H247377   5.054   0.529   9.652  0.3774  0.2036  0.7056
 7728TIP3   OH247378   3.077   3.631  11.403 -0.5124 -0.0591 -0.3173
 7728TIP3    H147379   3.025   3.701  11.443  0.0546 -0.4519  1.1758
 7728TIP3    H247380   3.019   3.593  11.337 -1.5517  0.5141  0.2406
 7729TIP3   OH247381   0.156   2.891  11.738 -0.5464 -0.2944 -0.1231
 7729TIP3    H147382   0.115   2.812  11.702 -0.2268 -1.0533  1.1369
 7729TIP3    H247383   0.166   2.949  11.662 -1.6459 -1.0786 -0.9000
 7730TIP3   OH247384   3.947   1.661   9.653 -0.6156 -0.9925 -0.4638
 7730TIP3    H147385   4.027   1.612   9.634  0.3722  0.2657  0.2789
 7730TIP3    H247386   3.977   1.738   9.700 -2.3331 -0.7649  0.3397
 7731TIP3   OH247387   5.738   4.418  10.933  0.1827  0.1062 -0.3363
 7731TIP3    H147388   5.750   4.465  10.850  0.0168  0.2771 -0.2657
 7731TIP3    H247389   5.822   4.426  10.977 -0.2054  1.4476  0.2334
 7732TIP3   OH247390   3.734   2.435  10.726  0.3320 -0.0787  0.8017
 7732TIP3    H147391   3.726   2.477  10.811 -0.3209  1.2440  0.1270
 7732TIP3    H247392   3.822   2.398  10.725  0.4851  0.2406  1.8891
 7733TIP3   OH247393   3.144   1.380  10.515 -0.2387 -0.0372 -0.7999
 7733TIP3    H147394   3.148   1.438  10.439 -0.2121 -0.6599 -1.2883
 7733TIP3    H247395   3.236   1.360  10.535 -0.1673  1.2997  0.3390
 7734TIP3   OH247396   1.084   5.392  12.100 -0.2229  0.3888 -0.2867
 7734TIP3    H147397   1.110   5.369  12.010  3.2573 -1.8185  1.0839
 7734TIP3    H247398   1.140   5.467  12.122 -0.0866  0.0683  0.4635
 7735TIP3   OH247399   6.021   4.581  10.490 -0.6397 -0.1166  0.4529
 7735TIP3    H147400   6.109   4.616  10.498 -1.1601  0.8591  2.5216
 7735TIP3    H247401   6.033   4.489  10.468  0.7906  0.6360 -2.4996
 7736TIP3   OH247402   5.829   5.132  10.935 -0.4055  0.3789  0.4419
 7736TIP3    H147403   5.905   5.190  10.931  1.1854 -1.6777 -1.8880
 7736TIP3    H247404   5.767   5.169  10.872  0.9139 -0.7205 -1.6116
 7737TIP3   OH247405   4.248   0.212  11.266 -0.1810  0.0386  0.0610
 7737TIP3    H147406   4.303   0.152  11.316 -1.1599  0.4606  1.7108
 7737TIP3    H247407   4.162   0.171  11.265 -0.2281  0.1224 -1.1721
 7738TIP3   OH247408   2.532   3.604  12.124 -0.1207  0.6458 -0.7081
 7738TIP3    H147409   2.521   3.509  12.114 -0.1884  0.7009 -1.1867
 7738TIP3    H247410   2.488   3.625  12.206 -1.0910  0.4301 -1.1642
 7739TIP3   OH247411   2.309   1.922   9.485 -0.4115  0.3135  0.9406
 7739TIP3    H147412   2.350   1.917   9.572  0.3528  0.6243  0.5995
 7739TIP3    H247413   2.305   1.831   9.455  1.9136  0.4252  0.1192
 7740TIP3   OH247414   3.620   4.309  10.557  0.4048 -0.1039 -0.1702
 7740TIP3    H147415   3.547   4.247  10.566  1.8537 -1.9023 -0.2370
 7740TIP3    H247416   3.623   4.330  10.464  0.3916 -0.5621 -0.2740
 7741TIP3   OH247417   4.440   4.310  10.196  0.2150  0.0916 -0.0963
 7741TIP3    H147418   4.500   4.244  10.230  1.1198  0.8110 -0.2888
 7741TIP3    H247419   4.471   4.393  10.232 -1.2737  0.3643  0.6457
 7742TIP3   OH247420   2.883   6.670  11.155  0.4429  0.3630 -0.2224
 7742TIP3    H147421   2.796   6.703  11.176  0.9576  0.8061  1.3324
 7742TIP3    H247422   2.867   6.599  11.092 -0.9125  1.3769 -1.0655
 7743TIP3   OH247423   4.208   5.570  12.440  0.5203 -0.5871  0.0801
 7743TIP3    H147424   4.249   5.655  12.458 -0.8491  0.0231  0.4453
 7743TIP3    H247425   4.195   5.531  12.526 -1.0417 -0.0848  0.0956
 7744TIP3   OH247426   0.103   5.534  12.315  0.1428 -0.2603 -0.3053
 7744TIP3    H147427   0.187   5.579  12.324  0.7872 -1.1005 -1.7449
 7744TIP3    H247428   0.124   5.441  12.325 -1.0108 -0.3517  1.6380
 7745TIP3   OH247429   2.167   1.769  10.939  0.5685 -0.3215  0.0253
 7745TIP3    H147430   2.144   1.740  10.850 -0.4738 -0.5079  0.3436
 7745TIP3    H247431   2.138   1.860  10.943  0.6950 -0.2863  0.1491
 7746TIP3   OH247432   3.218   5.067  12.199  0.4850 -0.8201 -0.3056
 7746TIP3    H147433   3.211   4.978  12.165  0.3139 -0.5977 -0.8565
 7746TIP3    H247434   3.135   5.081  12.246  0.1770 -0.6736 -0.8881
 7747TIP3   OH247435   4.508   1.211  11.336  0.3912  0.5030 -0.3092
 7747TIP3    H147436   4.454   1.134  11.324  0.9383  0.2626 -1.3134
 7747TIP3    H247437   4.588   1.193  11.287 -0.3539  2.5874 -2.4911
 7748TIP3   OH247438   2.262   3.560  12.575 -0.0640  0.3284 -0.2168
 7748TIP3    H147439   2.242   3.512  12.655  2.2244  0.1231  0.3024
 7748TIP3    H247440   2.295   3.645  12.606 -0.7246  0.8908 -1.0125
 7749TIP3   OH247441   5.142   1.473  12.629 -0.4400  0.0482 -0.2657
 7749TIP3    H147442   5.081   1.499  12.699 -1.5594  1.1704 -1.6021
 7749TIP3    H247443   5.217   1.532  12.640 -0.3804 -0.1199  0.2803
 7750TIP3   OH247444   0.129   5.072   9.538  0.5219 -0.7788  0.1342
 7750TIP3    H147445   0.111   5.034   9.624 -1.1324 -0.2332  0.0613
 7750TIP3    H247446   0.054   5.128   9.520  1.4784  0.1662 -1.0958
 7751TIP3   OH247447   2.778   3.328  11.922  0.2804 -0.0570  0.1000
 7751TIP3    H147448   2.815   3.314  11.835 -0.5811 -0.2797 -0.2452
 7751TIP3    H247449   2.832   3.396  11.961  0.2528  0.5414 -0.8780
 7752TIP3   OH247450   0.165   3.600  11.030 -0.1242  0.0300 -0.1218
 7752TIP3    H147451   0.242   3.596  11.088  0.0554 -0.5360 -0.3937
 7752TIP3    H247452   0.192   3.554  10.951 -0.8967 -0.5651 -0.0505
 7753TIP3   OH247453   4.360   5.962  10.582  0.4485 -0.2227  0.0587
 7753TIP3    H147454   4.398   6.033  10.634  1.2669  0.8124 -1.8232
 7753TIP3    H247455   4.401   5.882  10.615  0.6567  0.3550  1.2272
 7754TIP3   OH247456   6.525   0.630  11.334 -0.0731 -0.3729 -1.0343
 7754TIP3    H147457   6.587   0.558  11.325  2.1794  1.4360 -1.0759
 7754TIP3    H247458   6.559   0.682  11.407 -2.5460 -0.1806  0.0629
 7755TIP3   OH247459   1.637   5.383  11.262 -0.4044 -0.0344 -0.7847
 7755TIP3    H147460   1.570   5.403  11.197 -1.0998  1.2038  0.2654
 7755TIP3    H247461   1.589   5.340  11.333  0.4799 -2.1909 -1.4033
 7756TIP3   OH247462   6.631   0.302   9.634 -0.1903 -0.0905 -0.0764
 7756TIP3    H147463   6.546   0.288   9.591 -0.0347 -0.2082 -0.3451
 7756TIP3    H247464   6.690   0.239   9.593 -0.1522 -0.5432  0.6572
 7757TIP3   OH247465   0.856   6.665  11.324 -0.0534 -0.6503  0.7772
 7757TIP3    H147466   0.809   6.599  11.375  1.1821 -1.5965  0.7107
 7757TIP3    H247467   0.920   6.701  11.386 -0.1515 -0.1064  0.5655
 7758TIP3   OH247468   6.573   4.600  11.144  0.1602 -0.2887 -0.3005
 7758TIP3    H147469   6.502   4.552  11.185 -1.6757  1.0644 -1.7326
 7758TIP3    H247470   6.568   4.688  11.182  0.9169 -0.1114 -0.5876
 7759TIP3   OH247471   0.252   0.850  10.447 -0.5873  0.1605  0.1168
 7759TIP3    H147472   0.188   0.920  10.462 -0.4841  1.0445 -2.8292
 7759TIP3    H247473   0.212   0.796  10.379  1.4027  0.2737 -1.2277
 7760TIP3   OH247474   1.674   5.216  12.181  0.4938  0.0073 -0.2488
 7760TIP3    H147475   1.721   5.243  12.103  2.0169 -0.7048  0.3650
 7760TIP3    H247476   1.654   5.297  12.227  0.6006  0.3666 -0.8363
 7761TIP3   OH247477   3.444   4.357   9.796 -0.7249  0.5633 -0.4191
 7761TIP3    H147478   3.474   4.434   9.748 -1.5207  0.5071 -1.0257
 7761TIP3    H247479   3.474   4.371   9.885  0.5206  0.8190 -0.8576
 7762TIP3   OH247480   1.745   3.850  10.994  0.0085  0.3522 -0.3178
 7762TIP3    H147481   1.781   3.931  10.958  0.7067 -0.3838 -1.3092
 7762TIP3    H247482   1.660   3.876  11.031  0.9482  1.8528  0.8967
 7763TIP3   OH247483   5.733   3.665   9.654 -0.4130 -0.1386 -0.0964
 7763TIP3    H147484   5.744   3.719   9.576  0.4105 -0.4072 -0.1818
 7763TIP3    H247485   5.656   3.700   9.698  0.0836  1.0682 -0.1676
 7764TIP3   OH247486   5.090   4.726  11.112  0.2221  0.4424 -0.3735
 7764TIP3    H147487   5.083   4.810  11.067  1.2143  0.3309 -0.7613
 7764TIP3    H247488   5.183   4.715  11.129  0.1326 -0.6734 -0.5074
 7765TIP3   OH247489   0.088   6.284  12.644  0.3225  0.1869 -0.0905
 7765TIP3    H147490   0.028   6.218  12.678 -0.3419  0.0458 -1.5082
 7765TIP3    H247491   0.133   6.318  12.723  0.7904 -2.0189  0.6585
 7766TIP3   OH247492   4.518   5.763  13.281 -0.2617  0.2046  0.1408
 7766TIP3    H147493   4.452   5.703  13.316  0.4885 -0.9162 -0.3021
 7766TIP3    H247494   4.538   5.821  13.354 -0.0379 -0.9513  1.0327
 7767TIP3   OH247495   4.208   3.619  10.398 -0.2574  0.1069  0.3172
 7767TIP3    H147496   4.255   3.563  10.336 -0.8615 -0.9992  0.8177
 7767TIP3    H247497   4.275   3.651  10.458  0.1004 -0.0751  0.0184
 7768TIP3   OH247498   0.584   4.241  10.316  0.1416 -0.0624  0.3057
 7768TIP3    H147499   0.581   4.256  10.410 -0.4135 -0.4227  0.3480
 7768TIP3    H247500   0.559   4.325  10.278 -0.5141 -0.1585  0.5021
 7769TIP3   OH247501   3.560   4.012  11.758  0.0055 -0.1733  0.2456
 7769TIP3    H147502   3.487   4.014  11.820 -1.2019  1.5129 -1.1121
 7769TIP3    H247503   3.638   4.021  11.812 -0.8355 -1.0358  1.6683
 7770TIP3   OH247504   6.519   6.156   9.630  0.2634 -0.1078 -0.3040
 7770TIP3    H147505   6.602   6.112   9.647  0.5190  1.0206  1.6279
 7770TIP3    H247506   6.464   6.134   9.704  0.1404  2.1161  0.3245
 7771TIP3   OH247507   1.721   3.514   9.680  0.3520  0.7058  0.5127
 7771TIP3    H147508   1.759   3.467   9.755 -0.9525  0.2371  0.8997
 7771TIP3    H247509   1.786   3.581   9.659  1.2374  0.1524  1.3687
 7772TIP3   OH247510   1.292   6.104   9.645  0.1784  0.0230  0.1255
 7772TIP3    H147511   1.373   6.154   9.633  0.3686 -0.2099  0.4346
 7772TIP3    H247512   1.225   6.171   9.659  0.4006  0.2003  0.3500
 7773TIP3   OH247513   3.785   4.594   9.546  0.7168 -0.1554 -0.3797
 7773TIP3    H147514   3.758   4.505   9.525  1.0829 -0.3300 -0.1332
 7773TIP3    H247515   3.716   4.650   9.512  1.5328 -0.3804 -2.5554
 7774TIP3   OH247516   3.063   5.191  11.470 -0.1897  0.0830 -0.0531
 7774TIP3    H147517   3.030   5.111  11.429 -1.0221  0.2601  0.2603
 7774TIP3    H247518   3.127   5.225  11.407 -1.4167  0.3318 -1.1933
 7775TIP3   OH247519   2.979   5.387  12.158 -0.2975 -0.4014 -0.3742
 7775TIP3    H147520   2.906   5.393  12.096 -0.8938 -1.6256  0.1691
 7775TIP3    H247521   2.958   5.310  12.212 -0.1381  0.9811  1.7786
 7776TIP3   OH247522   2.266   0.096  12.584 -0.5244 -0.4566 -0.2036
 7776TIP3    H147523   2.362   0.092  12.575 -0.5746  0.2349 -1.3165
 7776TIP3    H247524   2.238   0.005  12.581  0.1462 -0.7288  0.9897
 7777TIP3   OH247525   1.688   3.699  12.571 -0.3290  0.1696 -0.4835
 7777TIP3    H147526   1.682   3.603  12.564  0.6544  0.0272  0.3086
 7777TIP3    H247527   1.662   3.718  12.661  2.6093  0.2724  0.4485
 7778TIP3   OH247528   3.421   6.189   9.722  0.2467 -0.4542 -0.3554
 7778TIP3    H147529   3.384   6.266   9.679  0.2759 -0.6801 -0.7959
 7778TIP3    H247530   3.516   6.201   9.716  0.3569  1.0711  2.4512
 7779TIP3   OH247531   3.950   0.031  13.098 -0.3077 -0.1839 -0.7620
 7779TIP3    H147532   4.034  -0.013  13.088 -0.5917 -0.9515  0.0540
 7779TIP3    H247533   3.904  -0.021  13.164 -0.2821  1.8860  0.9885
 7780TIP3   OH247534   6.210   2.163  10.454  0.3438  0.6864 -0.4649
 7780TIP3    H147535   6.247   2.195  10.372  2.0198  0.6607  0.2417
 7780TIP3    H247536   6.210   2.067  10.445  2.3411  0.5735  0.2519
 7781TIP3   OH247537   0.269   3.289  12.003 -0.1441  0.0977 -0.1788
 7781TIP3    H147538   0.344   3.327  12.048  0.0471  0.3250 -0.6817
 7781TIP3    H247539   0.268   3.197  12.031  0.3260  0.0906 -0.1816
 7782TIP3   OH247540   3.335   2.256  11.628 -0.3964  0.1983 -0.5040
 7782TIP3    H147541   3.421   2.216  11.636 -0.9026 -0.6465  1.1807
 7782TIP3    H247542   3.289   2.200  11.565 -0.3233 -0.4928  0.0457
 7783TIP3   OH247543   4.065   6.389   9.938  0.2040  0.5704 -1.0011
 7783TIP3    H147544   4.120   6.368  10.014  0.2070  1.5328 -0.7267
 7783TIP3    H247545   4.101   6.337   9.867  0.4486 -0.0465 -0.4340
 7784TIP3   OH247546   0.463   6.102  11.370  0.0096 -0.2465  0.4648
 7784TIP3    H147547   0.533   6.158  11.403 -0.3191  1.1997 -1.1825
 7784TIP3    H247548   0.390   6.118  11.430  0.5707 -0.5424  1.2424
 7785TIP3   OH247549   6.176   5.890  11.907  0.3166  0.6638  0.1162
 7785TIP3    H147550   6.244   5.862  11.846 -0.8249 -0.1512 -0.8194
 7785TIP3    H247551   6.192   5.837  11.986 -1.1517 -2.0240 -1.2413
 7786TIP3   OH247552   4.845   0.167  12.254 -0.0036  0.2277  0.2583
 7786TIP3    H147553   4.808   0.087  12.292  1.3196 -0.6285 -0.2020
 7786TIP3    H247554   4.936   0.168  12.284 -0.2445  2.1327  1.1304
 7787TIP3   OH247555   6.376   0.247   9.580  0.2105 -0.2235 -0.0285
 7787TIP3    H147556   6.312   0.238   9.509  1.0305 -0.3078 -0.7708
 7787TIP3    H247557   6.367   0.167   9.631  0.4339 -0.7050 -0.7303
 7788TIP3   OH247558   2.078   0.199  10.373  0.0271 -0.0394  0.1061
 7788TIP3    H147559   2.097   0.275  10.318 -0.2912 -0.0234  0.0153
 7788TIP3    H247560   2.053   0.236  10.457 -2.1727  0.0646 -0.5308
 7789TIP3   OH247561   3.268   2.563  10.602  0.4583 -0.1668 -0.0975
 7789TIP3    H147562   3.175   2.575  10.624 -0.2160 -1.0308 -2.2577
 7789TIP3    H247563   3.273   2.581  10.508  2.8458  1.6306  0.2686
 7790TIP3   OH247564   1.336   4.607  10.221 -0.2623  0.2372 -0.0267
 7790TIP3    H147565   1.406   4.646  10.170  0.0103 -0.1066  0.0788
 7790TIP3    H247566   1.378   4.577  10.302 -0.7204  0.9373  0.4874
 7791TIP3   OH247567   2.646   0.048  12.728 -0.6273 -0.1457 -0.3543
 7791TIP3    H147568   2.612  -0.005  12.801  0.2139  1.0673  0.9520
 7791TIP3    H247569   2.625   0.138  12.752  0.1147  0.3155 -1.3875
 7792TIP3   OH247570   2.398   4.637  11.755  0.2282  0.4881 -0.0445
 7792TIP3    H147571   2.481   4.651  11.710  0.4355 -0.7210 -0.0630
 7792TIP3    H247572   2.357   4.565  11.707 -0.1387  0.0599  0.9048
 7793TIP3   OH247573   0.776   2.982  10.439  0.1528 -0.8737  0.0549
 7793TIP3    H147574   0.708   3.049  10.439 -0.0041 -1.0172  0.7374
 7793TIP3    H247575   0.787   2.958  10.347  0.1512  0.0223 -0.1865
 7794TIP3   OH247576   1.257   6.599  12.537  0.3921 -0.1298 -0.2938
 7794TIP3    H147577   1.239   6.549  12.617  0.7996  0.6700  0.3111
 7794TIP3    H247578   1.293   6.682  12.568  2.5045 -0.5820 -1.3611
 7795TIP3   OH247579   3.996   1.410  11.615 -0.0204 -0.6822  0.0472
 7795TIP3    H147580   3.941   1.446  11.685 -0.2333 -0.4854 -0.2176
 7795TIP3    H247581   3.949   1.332  11.585 -0.0388 -0.6431 -0.0252
 7796TIP3   OH247582   2.399   3.247  11.022  0.9792 -0.0309  0.1705
 7796TIP3    H147583   2.325   3.306  11.030  1.6600  0.8760  0.0047
 7796TIP3    H247584   2.461   3.294  10.966  2.1875 -0.2367  1.2860
 7797TIP3   OH247585   4.618   5.514  10.873 -0.9624 -0.3086  0.1546
 7797TIP3    H147586   4.615   5.443  10.809  0.2659  0.6424 -1.0172
 7797TIP3    H247587   4.709   5.518  10.900 -1.6087 -1.2683  2.6891
 7798TIP3   OH247588   0.094   2.370  10.027 -0.5801  0.0203  0.0444
 7798TIP3    H147589   0.125   2.316  10.100 -2.7753 -0.7295  0.5092
 7798TIP3    H247590   0.102   2.315   9.950  0.3402  0.2681 -0.0409
 7799TIP3   OH247591   2.270   4.623  12.170 -0.9848 -0.2275 -0.2281
 7799TIP3    H147592   2.308   4.552  12.117 -0.1061 -0.9090  1.2598
 7799TIP3    H247593   2.254   4.583  12.255 -1.2486  1.1638  0.3942
 7800TIP3   OH247594   3.585   1.144  11.545 -0.0885 -0.0853  0.2156
 7800TIP3    H147595   3.583   1.136  11.640  0.3695 -0.9699  0.1661
 7800TIP3    H247596   3.671   1.182  11.526 -0.6089  1.1052  0.2093
 7801TIP3   OH247597   1.213   3.972  11.614 -0.2493  0.3217  0.0898
 7801TIP3    H147598   1.254   4.052  11.579 -1.8599  1.8387  1.5296
 7801TIP3    H247599   1.279   3.935  11.673  1.2760 -0.5814 -2.0187
 7802TIP3   OH247600   2.402   5.878  11.053  0.6641  0.3391 -0.1627
 7802TIP3    H147601   2.413   5.967  11.086 -0.1758  0.5274 -0.3663
 7802TIP3    H247602   2.319   5.848  11.091  0.9734 -0.3807 -0.0391
 7803TIP3   OH247603   3.188   6.011   9.801 -0.2323  0.0930  0.3477
 7803TIP3    H147604   3.228   6.096   9.817 -0.4599  0.0412  1.3062
 7803TIP3    H247605   3.260   5.955   9.772 -0.0801  0.5996 -0.2845
 7804TIP3   OH247606   5.867   0.493  12.636  0.1258 -0.0782 -0.4036
 7804TIP3    H147607   5.914   0.409  12.643 -1.7036 -1.0781  0.6502
 7804TIP3    H247608   5.780   0.469  12.603 -1.1905  1.0723  1.9998
 7805TIP3   OH247609   5.631   6.080  12.906  0.0688  0.3515 -0.5276
 7805TIP3    H147610   5.573   6.041  12.840 -0.5117 -2.3781  1.4144
 7805TIP3    H247611   5.718   6.048  12.882 -0.0590 -0.1754 -0.3005
 7806TIP3   OH247612   5.619   1.133  12.556 -0.2173 -0.1155 -0.1438
 7806TIP3    H147613   5.581   1.046  12.540  0.1055 -0.3555  0.3529
 7806TIP3    H247614   5.672   1.150  12.479 -0.2609 -0.3725 -0.2334
 7807TIP3   OH247615   2.285   6.545  11.664 -0.2964  0.1455 -0.2395
 7807TIP3    H147616   2.238   6.475  11.709  1.4091 -1.5053 -0.8957
 7807TIP3    H247617   2.373   6.543  11.702 -0.3756  2.4140  0.1926
 7808TIP3   OH247618   3.168   1.962  12.570  0.4925  0.0021  0.7038
 7808TIP3    H147619   3.084   2.003  12.592  0.3069 -0.9042  1.7831
 7808TIP3    H247620   3.209   2.023  12.509 -0.1661  1.3578  1.5601
 7809TIP3   OH247621   1.130   1.918  10.670 -0.4198  0.1587  0.0955
 7809TIP3    H147622   1.160   1.878  10.751 -0.5953 -0.1384  0.0154
 7809TIP3    H247623   1.055   1.865  10.644 -0.4195  0.3091 -0.2120
 7810TIP3   OH247624   4.966   3.873  11.613  0.0436  0.2482  0.3945
 7810TIP3    H147625   4.928   3.828  11.688 -0.0413  1.4377  1.0836
 7810TIP3    H247626   5.029   3.810  11.577  0.6705 -0.0514  1.9271
 7811TIP3   OH247627   0.113   1.245  11.384 -0.6110 -0.0411  0.2328
 7811TIP3    H147628   0.094   1.192  11.462  2.3617 -1.0572  0.4010
 7811TIP3    H247629   0.118   1.182  11.312  1.2384  0.1737  0.1144
 7812TIP3   OH247630   1.484   3.973  11.524  0.4316 -1.1292 -0.5369
 7812TIP3    H147631   1.464   3.881  11.539  0.1025 -1.0894 -0.7213
 7812TIP3    H247632   1.557   3.992  11.583 -0.0376 -1.2907  0.0990
 7813TIP3   OH247633   0.230   5.406   9.795  0.1370  0.0105  0.0365
 7813TIP3    H147634   0.230   5.447   9.709  1.8964 -0.0274 -0.0244
 7813TIP3    H247635   0.271   5.320   9.781 -4.9391 -2.7817 -0.1988
 7814TIP3   OH247636   6.221   0.700  10.321  0.6517 -0.3092 -0.2984
 7814TIP3    H147637   6.285   0.699  10.393  2.1880 -0.9166 -1.6250
 7814TIP3    H247638   6.146   0.747  10.357  1.6863  0.0989  1.4470
 7815TIP3   OH247639   2.397   0.519  12.438 -0.2184 -0.2121  0.4478
 7815TIP3    H147640   2.322   0.471  12.472 -0.1482 -0.7719 -0.1717
 7815TIP3    H247641   2.462   0.517  12.509  0.0367 -1.6030  0.1945
 7816TIP3   OH247642   5.952   4.505  11.077  0.0108 -0.0146  0.4110
 7816TIP3    H147643   5.892   4.578  11.057 -0.8294 -0.8090 -0.0755
 7816TIP3    H247644   6.035   4.530  11.036  0.2352  1.4193  1.6696
 7817TIP3   OH247645   5.118   3.238  11.991  0.3331  0.4583 -0.5511
 7817TIP3    H147646   5.119   3.228  11.896  1.0324 -1.2651 -0.3986
 7817TIP3    H247647   5.209   3.228  12.018  0.0285 -0.0441  0.3696
 7818TIP3   OH247648   6.438   4.627  12.076  0.1393  0.1418 -0.1696
 7818TIP3    H147649   6.364   4.578  12.112 -0.3503 -0.1791 -1.5407
 7818TIP3    H247650   6.455   4.586  11.991  1.1577  0.9447 -0.3767
 7819TIP3   OH247651   4.254   1.714  11.339  0.2219  0.2830 -0.3286
 7819TIP3    H147652   4.192   1.696  11.410  0.3095  1.2433  0.0138
 7819TIP3    H247653   4.247   1.639  11.280 -2.6418  1.1835 -1.2752
 7820TIP3   OH247654   2.990   2.575   9.848 -0.2097 -0.3760  0.3005
 7820TIP3    H147655   3.040   2.656   9.837 -1.1574  0.6431  2.7963
 7820TIP3    H247656   2.964   2.550   9.759  0.7534  1.6188 -0.6000
 7821TIP3   OH247657   1.558   0.426  11.407  0.4130 -0.4387  0.3056
 7821TIP3    H147658   1.463   0.431  11.404  0.4874  0.9752 -0.1291
 7821TIP3    H247659   1.587   0.467  11.326  1.3970 -1.1865  0.2558
 7822TIP3   OH247660   0.313   3.006  10.973 -0.3657 -0.3373 -0.0705
 7822TIP3    H147661   0.307   2.970  11.061 -0.0361 -0.3118 -0.0402
 7822TIP3    H247662   0.400   2.982  10.942 -1.3807 -2.6981 -1.3957
 7823TIP3   OH247663   0.510   3.349  10.808  0.3129 -0.0334  0.6261
 7823TIP3    H147664   0.565   3.423  10.782  0.7194 -0.5446 -0.0104
 7823TIP3    H247665   0.424   3.368  10.769  0.5030 -0.0416  0.1917
 7824TIP3   OH247666   0.136   6.117  11.166 -0.4361  0.3518 -0.1809
 7824TIP3    H147667   0.216   6.070  11.143 -0.8935  0.1273 -1.3885
 7824TIP3    H247668   0.137   6.122  11.261  1.1499  0.5907 -0.1856
 7825TIP3   OH247669   4.377   0.095   8.998 -0.3284  0.4044 -0.0852
 7825TIP3    H147670   4.346   0.173   8.952  0.5352  0.7462 -0.1034
 7825TIP3    H247671   4.304   0.070   9.055 -1.5296 -0.1929 -1.8106
 7826TIP3   OH247672   1.310   0.393  10.912  0.6568  0.2517 -0.6548
 7826TIP3    H147673   1.361   0.359  10.986  0.3042  0.3419 -0.3679
 7826TIP3    H247674   1.370   0.452  10.866  0.1700  2.0811  0.9212
 7827TIP3   OH247675   5.178   5.604   9.609 -0.2113  0.0727  0.0634
 7827TIP3    H147676   5.210   5.693   9.620 -0.4381 -0.0699  2.3498
 7827TIP3    H247677   5.195   5.562   9.693 -0.4441 -1.9432 -0.8402
 7828TIP3   OH247678   3.355   5.512  11.089  0.2786  0.2075 -0.3301
 7828TIP3    H147679   3.366   5.417  11.082  1.8491  0.4524 -1.8890
 7828TIP3    H247680   3.391   5.534  11.174  0.7743 -0.4984 -0.3480
 7829TIP3   OH247681   2.493   0.155  11.780  0.4451  0.7055  0.0851
 7829TIP3    H147682   2.504   0.202  11.863 -0.9711  1.0181  0.1186
 7829TIP3    H247683   2.440   0.214  11.726 -0.6468 -0.4991 -0.1764
 7830TIP3   OH247684   2.664   3.764  10.518  0.0918  0.0949  0.2782
 7830TIP3    H147685   2.685   3.705  10.589 -0.7175 -0.5336  0.0085
 7830TIP3    H247686   2.570   3.752  10.503  0.3543 -0.2257 -1.2774
 7831TIP3   OH247687   0.993   5.965  12.562  0.2926  0.2626 -0.1224
 7831TIP3    H147688   1.085   5.967  12.590  0.5879  4.2499 -0.7609
 7831TIP3    H247689   0.945   6.002  12.636 -0.6012 -0.3146 -0.4009
 7832TIP3   OH247690   4.232   5.416  12.704  0.2603 -0.2235  0.4424
 7832TIP3    H147691   4.324   5.393  12.691  0.6612  0.5341  1.7885
 7832TIP3    H247692   4.192   5.337  12.740  1.1478  0.3993  2.9983
 7833TIP3   OH247693   3.730   3.471   9.867 -0.0137  0.3906  0.0380
 7833TIP3    H147694   3.733   3.431   9.780 -1.5368 -0.4012  0.3206
 7833TIP3    H247695   3.690   3.557   9.852  0.8141  0.7554 -0.1832
 7834TIP3   OH247696   4.713   4.989   9.303 -0.5545 -0.3620  0.0310
 7834TIP3    H147697   4.631   4.941   9.293 -1.2510  0.0489  2.9925
 7834TIP3    H247698   4.773   4.926   9.345 -0.3245  0.2492  0.6289
 7835TIP3   OH247699   0.360   6.013  11.036  0.8424  0.3601  0.0084
 7835TIP3    H147700   0.452   5.990  11.030  0.4659 -1.5161  0.7150
 7835TIP3    H247701   0.316   5.955  10.974  0.1127  1.1803 -0.2732
 7836TIP3   OH247702   2.529   2.357  12.177 -0.5057 -0.7346  0.0227
 7836TIP3    H147703   2.524   2.338  12.083 -1.6778  0.4613 -0.1811
 7836TIP3    H247704   2.438   2.350  12.207 -0.6045  1.7584  0.4573
 7837TIP3   OH247705   1.574   6.044  11.783 -0.7571 -0.0764 -0.0480
 7837TIP3    H147706   1.643   5.989  11.818 -1.7259 -0.7863  0.7984
 7837TIP3    H247707   1.606   6.134  11.795 -0.0225 -0.3890  0.3714
 7838TIP3   OH247708   3.061   2.547  11.002 -0.4312 -0.4589 -1.0170
 7838TIP3    H147709   3.051   2.642  11.012  0.7735 -0.2544 -1.6258
 7838TIP3    H247710   3.073   2.534  10.908 -0.2194 -1.1765 -0.8947
 7839TIP3   OH247711   4.718   1.928  12.645  0.4090  0.3318 -0.1405
 7839TIP3    H147712   4.738   2.018  12.619 -0.2643  1.3521  2.5380
 7839TIP3    H247713   4.774   1.911  12.721  1.3098 -1.9711 -1.2094
 7840TIP3   OH247714   1.888   5.536  10.441 -0.2793  0.1513  0.0514
 7840TIP3    H147715   1.971   5.574  10.468 -0.1997 -1.0915  1.6858
 7840TIP3    H247716   1.843   5.606  10.394  1.4405  1.0123 -0.3872
 7841TIP3   OH247717   2.451   6.458  10.517  0.1377  0.0403 -0.7707
 7841TIP3    H147718   2.426   6.391  10.454  0.2416 -0.4547 -0.2918
 7841TIP3    H247719   2.398   6.439  10.594  0.6057  0.1377 -0.4223
 7842TIP3   OH247720   3.019   2.812  11.083 -0.6001  0.5849  0.2121
 7842TIP3    H147721   2.963   2.772  11.150  0.4402 -0.7671  0.3195
 7842TIP3    H247722   3.047   2.895  11.122  1.3977 -0.9440  2.2870
 7843TIP3   OH247723   6.689   4.968  10.481  0.0492 -0.0579 -0.1792
 7843TIP3    H147724   6.637   4.986  10.559 -0.5024  2.2896 -1.0167
 7843TIP3    H247725   6.778   4.995  10.504  0.2117 -0.7902  0.0964
 7844TIP3   OH247726   1.845   4.787  12.235 -0.0864  0.4439 -0.1281
 7844TIP3    H147727   1.879   4.698  12.242  0.0790  0.5104 -0.0965
 7844TIP3    H247728   1.917   4.838  12.198 -0.0075  0.6723  0.3349
 7845TIP3   OH247729   1.765   5.170  10.033  0.1843  1.1399 -0.5544
 7845TIP3    H147730   1.778   5.264  10.025  0.8503  1.1025 -0.0335
 7845TIP3    H247731   1.716   5.159  10.114 -0.3034  1.0644 -0.8555
 7846TIP3   OH247732   3.961   0.101  10.357  0.1083 -0.2270 -0.0930
 7846TIP3    H147733   3.894   0.154  10.315 -0.6465 -0.7017  0.4613
 7846TIP3    H247734   4.029   0.163  10.383 -0.2769  0.3139 -0.3614
 7847TIP3   OH247735   4.291   5.912  10.152 -0.1630  0.9506 -0.7601
 7847TIP3    H147736   4.268   5.976  10.085 -1.6160 -0.9974 -2.2387
 7847TIP3    H247737   4.222   5.921  10.218  0.0524  1.3838 -0.5877
 7848TIP3   OH247738   3.135   5.394  11.233 -0.4740 -0.3602  0.2447
 7848TIP3    H147739   3.149   5.450  11.157 -1.2149 -0.8978 -0.3072
 7848TIP3    H247740   3.068   5.331  11.205 -0.9200 -0.4410  1.4011
 7849TIP3   OH247741   5.901   2.351  11.302  0.1086  0.6585  0.5640
 7849TIP3    H147742   5.949   2.297  11.365  0.1022  0.7848  0.6770
 7849TIP3    H247743   5.870   2.425  11.353 -1.1865  0.0070  0.7442
 7850TIP3   OH247744   6.567   5.135  11.332 -0.4899 -0.1067 -0.2292
 7850TIP3    H147745   6.576   5.228  11.311 -0.2516  0.0066  0.3496
 7850TIP3    H247746   6.473   5.123  11.346 -0.5528 -0.0115 -0.5448
 7851TIP3   OH247747   5.428   4.326   9.558  0.2037  0.0758 -0.1026
 7851TIP3    H147748   5.373   4.335   9.636  0.7056  0.1105  0.2521
 7851TIP3    H247749   5.426   4.232   9.539  0.0136  0.0780 -0.0977
 7852TIP3   OH247750   3.714   1.917  11.039  0.0204  0.2695  0.1184
 7852TIP3    H147751   3.688   1.829  11.011 -0.6444  0.1850  0.9515
 7852TIP3    H247752   3.808   1.911  11.055 -0.1858 -0.5957  1.1727
 7853TIP3   OH247753   5.915   3.676  12.328 -0.1971  0.2452  0.1277
 7853TIP3    H147754   5.941   3.631  12.409  1.3612  0.1310 -0.4089
 7853TIP3    H247755   5.822   3.693  12.339  0.1427  1.0205  2.3414
 7854TIP3   OH247756   1.892   4.793  11.089  0.4247  0.2881  0.2920
 7854TIP3    H147757   1.872   4.884  11.112 -1.2639  0.3965 -1.3716
 7854TIP3    H247758   1.974   4.798  11.040  0.8283  0.7813  1.0049
 7855TIP3   OH247759   5.384   5.589  12.117  0.9762  0.9750  0.1569
 7855TIP3    H147760   5.305   5.573  12.065  0.7877 -0.5355  0.8302
 7855TIP3    H247761   5.364   5.665  12.170 -0.7996 -0.4378  1.6549
 7856TIP3   OH247762   1.649   1.848  12.177 -0.2542  0.0897 -0.7053
 7856TIP3    H147763   1.593   1.792  12.231 -0.1236  0.8061  0.1935
 7856TIP3    H247764   1.738   1.818  12.195  0.0572  2.1141  1.7296
 7857TIP3   OH247765   6.117   2.564  10.178 -0.1571 -0.2907 -0.6279
 7857TIP3    H147766   6.103   2.658  10.190  0.2739 -0.2953 -0.0388
 7857TIP3    H247767   6.178   2.540  10.248 -1.0696 -1.2131 -0.1349
 7858TIP3   OH247768   1.922   3.755   9.913  0.1316 -0.4676 -0.0131
 7858TIP3    H147769   2.010   3.779   9.882 -0.8169  2.0899 -1.0350
 7858TIP3    H247770   1.870   3.748   9.833 -1.5032  2.3187  0.6789
 7859TIP3   OH247771   1.675   1.507  11.039  0.2000  0.0288 -0.4869
 7859TIP3    H147772   1.757   1.462  11.018  1.0620  0.4744  1.6833
 7859TIP3    H247773   1.698   1.600  11.041 -0.4248  0.1836 -0.0888
 7860TIP3   OH247774   4.732   4.780  10.859 -0.3327  0.6647  0.2482
 7860TIP3    H147775   4.717   4.841  10.787  0.6531  0.8675  0.2020
 7860TIP3    H247776   4.818   4.741  10.840 -1.4606 -1.6811 -0.4109
 7861TIP3   OH247777   4.929   3.743   9.971  0.3891 -0.1842  0.0337
 7861TIP3    H147778   5.006   3.741   9.915  0.4973 -0.3294  0.1860
 7861TIP3    H247779   4.964   3.731  10.060  0.3152  0.9229  0.2278
 7862TIP3   OH247780   1.977   4.512  11.153 -0.0628  0.0594 -0.1301
 7862TIP3    H147781   1.887   4.534  11.131  0.0570  0.8770  0.1496
 7862TIP3    H247782   2.025   4.594  11.143  0.7446 -0.4669 -0.7197
 7863TIP3   OH247783   3.046   1.488  12.542 -0.1347 -0.1512  0.1913
 7863TIP3    H147784   3.076   1.487  12.451  0.6813  0.9678  0.4259
 7863TIP3    H247785   3.018   1.579  12.557  1.9052  0.2954  1.7136
 7864TIP3   OH247786   0.915   3.586  11.058  0.2497  0.5252 -0.2619
 7864TIP3    H147787   0.970   3.656  11.094  0.9690 -0.3298  0.3629
 7864TIP3    H247788   0.826   3.621  11.060  0.2103  0.5049  2.5867
 7865TIP3   OH247789   4.573   4.821  12.988 -0.0447 -0.1633  0.9328
 7865TIP3    H147790   4.624   4.741  12.999 -0.5723 -0.4255  1.5389
 7865TIP3    H247791   4.482   4.795  13.004 -0.0019  1.0007  3.6405
 7866TIP3   OH247792   2.467   3.133  11.847 -0.1473 -0.7963 -0.2898
 7866TIP3    H147793   2.387   3.186  11.851  0.3954  0.0238 -0.1563
 7866TIP3    H247794   2.509   3.160  11.765  2.0875  1.8934  1.5580
 7867TIP3   OH247795   5.446   2.094  12.211  0.0907 -0.0249  0.0457
 7867TIP3    H147796   5.473   2.009  12.248  1.6567  0.1161 -0.6968
 7867TIP3    H247797   5.367   2.074  12.161 -0.4196 -0.7551  1.1023
 7868TIP3   OH247798   4.310   4.699  10.282  0.0787 -0.3634  0.3060
 7868TIP3    H147799   4.356   4.778  10.256  1.0929 -0.5760  1.3898
 7868TIP3    H247800   4.373   4.628  10.269 -0.4667 -0.8634  0.3159
 7869TIP3   OH247801   6.263   5.045  10.597  0.1129 -0.0331  0.1947
 7869TIP3    H147802   6.344   5.096  10.598 -0.6320  1.1931 -0.1896
 7869TIP3    H247803   6.279   4.975  10.534  0.6073  0.6735 -0.4820
 7870TIP3   OH247804   0.655   4.911   9.998  0.2507  0.1049  0.5043
 7870TIP3    H147805   0.685   4.997  10.024  1.3015 -0.5082  1.4089
 7870TIP3    H247806   0.577   4.895  10.052 -1.1694  1.2516 -1.0763
 7871TIP3   OH247807   0.530   4.075  11.655 -0.3219  0.3779  0.5047
 7871TIP3    H147808   0.624   4.070  11.675 -0.3761  0.7431  0.8557
 7871TIP3    H247809   0.494   3.994  11.691  0.1954 -0.8445 -1.5710
 7872TIP3   OH247810   3.456   3.648  10.163  0.1589 -0.0400 -0.6004
 7872TIP3    H147811   3.425   3.615  10.248  1.3555  0.1051 -0.0901
 7872TIP3    H247812   3.494   3.734  10.183  0.3038  0.0687 -1.3188
 7873TIP3   OH247813   2.005   0.154  11.458  0.1042 -0.1081  0.2414
 7873TIP3    H147814   2.052   0.140  11.540  1.0421 -1.4211 -0.4886
 7873TIP3    H247815   2.008   0.249  11.444  1.8534 -0.0840  0.6264
 7874TIP3   OH247816   1.561   3.334  11.865  0.0203  0.0973  0.2353
 7874TIP3    H147817   1.654   3.358  11.859  0.3507 -0.6302  2.0308
 7874TIP3    H247818   1.517   3.415  11.889  0.4411  0.0446  1.2013
 7875TIP3   OH247819   1.854   1.390  12.246 -0.3591  0.4830  0.0903
 7875TIP3    H147820   1.887   1.475  12.215 -1.4805  1.1474  0.6406
 7875TIP3    H247821   1.762   1.407  12.267 -0.7606 -1.0415 -0.3851
 7876TIP3   OH247822   1.046   1.074  11.655  0.2819  0.3116 -0.5165
 7876TIP3    H147823   1.073   0.995  11.608  0.6144  0.1072  0.0108
 7876TIP3    H247824   1.021   1.043  11.742  1.0681  0.8576 -0.0803
 7877TIP3   OH247825   6.459   2.240  12.323 -0.4760 -0.3733 -0.3272
 7877TIP3    H147826   6.486   2.287  12.245 -0.1116 -1.4085 -0.8452
 7877TIP3    H247827   6.375   2.279  12.347 -0.2423  0.4406 -0.8006
 7878TIP3   OH247828   0.742   0.135  12.317 -0.1508 -0.2191  0.0553
 7878TIP3    H147829   0.769   0.162  12.405 -0.7522  0.3687  0.0634
 7878TIP3    H247830   0.825   0.121  12.270  0.1797  0.6347  0.3615
 7879TIP3   OH247831   5.040   4.952  12.091 -0.2146 -0.4354 -0.1636
 7879TIP3    H147832   4.949   4.947  12.120  0.1668  0.7356  1.3590
 7879TIP3    H247833   5.036   5.005  12.011 -0.9298 -0.8499 -0.4076
 7880TIP3   OH247834   5.449   0.356  10.252  0.0981  0.0692  0.3415
 7880TIP3    H147835   5.372   0.304  10.274 -0.1703  0.4661  0.3488
 7880TIP3    H247836   5.445   0.431  10.312  0.4173  0.1615  0.2496
 7881TIP3   OH247837   3.448   5.143   9.943  0.2352  0.5808  0.2313
 7881TIP3    H147838   3.523   5.168   9.890 -0.5799  1.7679 -0.4075
 7881TIP3    H247839   3.372   5.163   9.888 -0.5911  0.6709  1.3668
 7882TIP3   OH247840   2.669   4.149  11.859 -0.1365 -0.2502 -0.4736
 7882TIP3    H147841   2.636   4.208  11.792  1.7559 -0.8054 -1.9924
 7882TIP3    H247842   2.592   4.123  11.909 -1.5557  0.4631 -2.1945
 7883TIP3   OH247843   0.334   3.264   9.893  0.1722  0.1252  0.0287
 7883TIP3    H147844   0.414   3.316   9.884  0.8743 -0.6843  1.1710
 7883TIP3    H247845   0.363   3.173   9.882 -0.4975 -0.2081  0.8585
 7884TIP3   OH247846   3.610   0.753  12.219  0.2826  0.8672 -0.9958
 7884TIP3    H147847   3.635   0.661  12.212  0.6780  0.9799 -1.1053
 7884TIP3    H247848   3.556   0.757  12.298  0.2480  0.5380 -1.0015
 7885TIP3   OH247849   6.546   0.223   9.905  0.0241 -0.1191  0.8303
 7885TIP3    H147850   6.556   0.257   9.816 -2.1580 -1.6036 -0.0631
 7885TIP3    H247851   6.608   0.150   9.910 -0.5766 -0.6915  0.1387
 7886TIP3   OH247852   2.357   3.178  10.007 -0.0780 -0.1062 -0.6199
 7886TIP3    H147853   2.429   3.217  10.056 -1.6494  2.3852 -0.1218
 7886TIP3    H247854   2.384   3.185   9.915  0.9831 -0.7458 -0.3796
 7887TIP3   OH247855   4.197   1.236  11.535 -0.1083 -0.6218  0.3118
 7887TIP3    H147856   4.126   1.297  11.558  0.2953  0.3302 -0.8404
 7887TIP3    H247857   4.269   1.261  11.593  0.3347  0.6021 -0.7248
 7888TIP3   OH247858   1.929   1.757  12.512  0.2723 -0.0284 -0.1564
 7888TIP3    H147859   2.023   1.744  12.520  0.2675 -0.7891 -1.1638
 7888TIP3    H247860   1.916   1.851  12.527  1.3007  0.2503 -0.9149
 7889TIP3   OH247861   4.892   5.458  10.826  0.8610 -0.1074 -0.1571
 7889TIP3    H147862   4.904   5.421  10.739 -0.2804 -0.5219 -0.1550
 7889TIP3    H247863   4.930   5.546  10.821  1.7774 -0.5294 -0.7485
 7890TIP3   OH247864   1.133   4.090  11.207 -0.0331  0.4959 -0.1059
 7890TIP3    H147865   1.105   4.142  11.282  2.0976  2.7343 -0.7420
 7890TIP3    H247866   1.201   4.033  11.242 -2.2225 -1.9504  0.5442
 7891TIP3   OH247867   6.131   6.331   9.746  0.0967  0.6578 -0.1765
 7891TIP3    H147868   6.182   6.340   9.826  0.7473 -0.3208 -0.4735
 7891TIP3    H247869   6.052   6.383   9.762  0.2506  0.5196  1.0653
 7892TIP3   OH247870   1.959   2.359  11.214 -0.2151 -0.3965  0.0135
 7892TIP3    H147871   1.902   2.357  11.137 -0.3138 -1.2533  0.0975
 7892TIP3    H247872   1.922   2.428  11.269 -0.6050 -0.3006 -0.3615
 7893TIP3   OH247873   0.186   1.558  11.909 -0.2608 -0.4504 -0.1795
 7893TIP3    H147874   0.230   1.483  11.869 -1.9363 -0.8359 -1.3785
 7893TIP3    H247875   0.250   1.629  11.902  0.4025 -1.1307 -1.3127
 7894TIP3   OH247876   4.908   0.085  13.254  0.5794 -0.1094 -0.2315
 7894TIP3    H147877   4.907   0.028  13.177 -0.2749  0.3022 -0.5354
 7894TIP3    H247878   4.844   0.154  13.234 -0.1629 -0.3758  1.1203
 7895TIP3   OH247879   2.659   0.727  10.732  0.0297  0.4875  0.0328
 7895TIP3    H147880   2.741   0.679  10.743 -0.6915 -0.7162  0.3502
 7895TIP3    H247881   2.667   0.802  10.791  0.6806  0.0884  0.4662
 7896TIP3   OH247882   2.687   0.375   9.508 -0.2818 -0.4892  0.7785
 7896TIP3    H147883   2.669   0.462   9.472  0.2418 -1.1936 -1.3449
 7896TIP3    H247884   2.782   0.364   9.497 -0.1015 -0.7785  2.3928
 7897TIP3   OH247885   1.625   6.617  12.542  0.4284 -0.0721 -0.1935
 7897TIP3    H147886   1.610   6.523  12.530 -3.1947  0.5595 -2.2195
 7897TIP3    H247887   1.667   6.645  12.461 -1.0126  0.4047 -0.8088
 7898TIP3   OH247888   4.191   4.859  10.686  0.5414 -0.1224 -0.1236
 7898TIP3    H147889   4.202   4.782  10.742 -0.7634  0.2032  0.6368
 7898TIP3    H247890   4.097   4.862  10.667  0.6017  1.1289 -0.3339
 7899TIP3   OH247891   4.245   4.476  11.639 -0.2482 -0.2155 -0.0840
 7899TIP3    H147892   4.337   4.460  11.617 -0.3995  0.4691 -1.2711
 7899TIP3    H247893   4.196   4.452  11.560 -1.0427 -0.0933  0.3597
 7900TIP3   OH247894   4.389   0.504  12.793  0.6530  0.4333  0.3791
 7900TIP3    H147895   4.336   0.428  12.770 -0.1685  0.7358  1.1958
 7900TIP3    H247896   4.470   0.467  12.828  0.9173 -0.0362 -0.6860
 7901TIP3   OH247897   3.362   4.163  10.814  0.1890  0.4413  0.1159
 7901TIP3    H147898   3.414   4.084  10.827  0.3879  0.7732  1.4669
 7901TIP3    H247899   3.372   4.183  10.721  1.1158 -0.4406  0.0098
 7902TIP3   OH247900   3.647   6.534   9.592 -0.4153 -0.3391  0.6867
 7902TIP3    H147901   3.676   6.579   9.671 -0.1997  0.8231 -0.0171
 7902TIP3    H247902   3.716   6.552   9.528 -2.0175  1.4323 -0.6614
 7903TIP3   OH247903   1.209   1.739   9.618 -0.0261  0.1259  0.3064
 7903TIP3    H147904   1.149   1.776   9.682 -0.1649 -1.4015  1.0881
 7903TIP3    H247905   1.173   1.653   9.598  1.1947 -0.2837 -0.1957
 7904TIP3   OH247906   0.501   2.334  11.815  0.7920 -0.3901  0.5768
 7904TIP3    H147907   0.434   2.338  11.748  0.6210 -0.4926  0.7417
 7904TIP3    H247908   0.583   2.318  11.767  0.8014  0.4032  0.3172
 7905TIP3   OH247909   0.432   6.460  12.700  0.5343  0.1001  0.1006
 7905TIP3    H147910   0.523   6.488  12.692  0.9118 -1.4641 -2.6947
 7905TIP3    H247911   0.381   6.537  12.677  1.3505  0.0642 -2.0795
 7906TIP3   OH247912   5.376   5.727  11.701  0.6514 -0.0181 -0.0169
 7906TIP3    H147913   5.320   5.684  11.637  1.2117 -0.8610  0.0411
 7906TIP3    H247914   5.345   5.817  11.703  0.1589 -0.1505 -0.9453
 7907TIP3   OH247915   1.048   3.836  19.401  0.8138 -0.2866 -0.4784
 7907TIP3    H147916   0.956   3.845  19.427  1.5707 -0.4194  2.6221
 7907TIP3    H247917   1.075   3.925  19.378  0.3406  0.0692  0.2809
 7908TIP3   OH247918   1.155   3.008  11.669  0.1631 -0.1648 -0.2051
 7908TIP3    H147919   1.080   2.949  11.674  0.4524 -0.5718 -0.5777
 7908TIP3    H247920   1.118   3.095  11.685 -0.2909 -0.4235  0.1990
 7909TIP3   OH247921   5.626   1.996  11.563  0.0518  0.3405  0.0477
 7909TIP3    H147922   5.567   1.932  11.601 -0.1809 -0.7014 -1.9413
 7909TIP3    H247923   5.709   1.983  11.609 -0.6411  0.2698  1.3027
 7910TIP3   OH247924   6.211   3.212   9.533  0.1141 -0.2388  0.0374
 7910TIP3    H147925   6.260   3.181   9.609  1.0149 -0.3493 -0.5734
 7910TIP3    H247926   6.216   3.140   9.470  2.4481  1.1275 -1.4922
 7911TIP3   OH247927   2.750   2.660   9.546 -0.0824  0.5158 -0.3191
 7911TIP3    H147928   2.782   2.706   9.468 -1.5844  2.5530  0.1827
 7911TIP3    H247929   2.761   2.723   9.618 -2.8661  0.4863  0.2762
 7912TIP3   OH247930   1.344   4.887   9.974 -0.0301 -0.0303  0.3896
 7912TIP3    H147931   1.328   4.946  10.047 -1.2368  1.9594 -1.3768
 7912TIP3    H247932   1.259   4.848   9.956  0.2420 -0.4519 -0.0067
 7913TIP3   OH247933   2.090   4.609  11.399 -0.2733  0.6112 -0.5917
 7913TIP3    H147934   2.147   4.651  11.335  0.1697  0.2393 -0.4449
 7913TIP3    H247935   2.037   4.547  11.349 -0.1304  0.5283 -0.6402
 7914TIP3   OH247936   1.512   3.767   9.667 -0.1670 -0.1814 -0.1190
 7914TIP3    H147937   1.550   3.825   9.734 -0.9841 -1.0891  1.1743
 7914TIP3    H247938   1.572   3.692   9.663 -0.6196 -0.5739  0.3062
 7915TIP3   OH247939   4.899   5.431   9.398 -0.2038 -0.0787 -0.4286
 7915TIP3    H147940   4.868   5.496   9.460  0.5239  0.4294 -0.5877
 7915TIP3    H247941   4.828   5.367   9.393 -1.1018  0.9045 -0.5732
 7916TIP3   OH247942   6.638   2.748  10.159  0.1785  0.3784 -0.2708
 7916TIP3    H147943   6.611   2.673  10.106  2.3440 -0.0359 -0.8726
 7916TIP3    H247944   6.606   2.728  10.247 -0.3236 -0.6548 -0.6684
 7917TIP3   OH247945   4.496   0.417  12.066 -0.0012  0.6656  0.1898
 7917TIP3    H147946   4.509   0.327  12.097  1.4139  0.7690 -0.0555
 7917TIP3    H247947   4.410   0.416  12.024 -0.0188 -0.5606  0.2320
 7918TIP3   OH247948   2.399   4.316  10.705 -0.3537  0.4089 -0.0239
 7918TIP3    H147949   2.397   4.289  10.613  0.0674 -0.5607  0.2433
 7918TIP3    H247950   2.404   4.412  10.701  1.0538  0.3295 -1.0317
 7919TIP3   OH247951   0.436   2.700  12.188 -0.0553  0.1604 -0.3094
 7919TIP3    H147952   0.501   2.667  12.251 -0.1833  0.0712 -0.2237
 7919TIP3    H247953   0.461   2.661  12.105 -1.1042 -1.4025  0.0590
 7920TIP3   OH247954   2.156   0.106  11.688  0.5995 -0.2845 -0.0222
 7920TIP3    H147955   2.202   0.025  11.664  2.3618  0.0002  2.0820
 7920TIP3    H247956   2.109   0.083  11.769 -0.9382  0.1555 -0.7546
 7921TIP3   OH247957   1.306   3.339  10.204 -0.2005 -0.0166 -0.3668
 7921TIP3    H147958   1.380   3.287  10.236 -0.7790 -0.5882  0.0673
 7921TIP3    H247959   1.242   3.336  10.276 -0.8399  0.0774 -0.9230
 7922TIP3   OH247960   4.915   4.281  11.256 -0.4816 -0.0832 -0.5016
 7922TIP3    H147961   4.929   4.343  11.327  0.1482  0.1708 -0.8438
 7922TIP3    H247962   4.907   4.195  11.299 -3.2711  0.4002  0.1731
 7923TIP3   OH247963   4.462   0.654  12.562 -0.3223  0.2729 -0.6570
 7923TIP3    H147964   4.428   0.588  12.622 -1.9211  0.8548 -0.8606
 7923TIP3    H247965   4.552   0.627  12.544 -0.5036 -1.0702  0.3296
 7924TIP3   OH247966   6.672   6.303  11.477  0.1620 -0.3025 -0.4430
 7924TIP3    H147967   6.598   6.248  11.504  0.4221 -1.3646 -1.7584
 7924TIP3    H247968   6.633   6.366  11.416  0.2653 -0.6652 -0.8949
 7925TIP3   OH247969   4.726   4.878  11.965  0.0324  0.2448 -0.0898
 7925TIP3    H147970   4.736   4.787  11.935 -0.5021 -0.3239  1.3411
 7925TIP3    H247971   4.632   4.889  11.978  0.0591  1.1414 -0.6212
 7926TIP3   OH247972   0.323   4.143  11.507 -0.3319 -0.5968 -0.0845
 7926TIP3    H147973   0.376   4.102  11.575  0.0524 -1.6497 -0.9793
 7926TIP3    H247974   0.318   4.077  11.437 -3.5328 -0.9006  0.2647
 7927TIP3   OH247975   5.963   1.381  11.101  0.1817  0.1516 -0.0404
 7927TIP3    H147976   5.988   1.324  11.173 -0.6450  0.6166  0.6446
 7927TIP3    H247977   5.913   1.325  11.041  1.6279 -0.4460 -0.7243
 7928TIP3   OH247978   3.703   2.951  12.038 -0.0166  0.2992 -0.3200
 7928TIP3    H147979   3.798   2.946  12.023 -0.2519  0.2650 -2.0405
 7928TIP3    H247980   3.692   3.032  12.089  1.0102 -0.2640  0.8526
 7929TIP3   OH247981   5.148   4.041  12.500 -0.4005 -0.0742  0.2380
 7929TIP3    H147982   5.147   3.947  12.520  1.5317 -0.7569 -2.3630
 7929TIP3    H247983   5.058   4.060  12.472 -0.4028 -1.6263 -0.9546
 7930TIP3   OH247984   4.805   0.466  10.744 -0.7464 -0.0724  0.0287
 7930TIP3    H147985   4.732   0.423  10.701 -0.1193  0.2390 -1.4208
 7930TIP3    H247986   4.830   0.537  10.684 -0.9762  1.5641  1.7559
 7931TIP3   OH247987   4.322   5.503  10.541 -0.1748 -0.1933  0.3386
 7931TIP3    H147988   4.402   5.458  10.514  0.9422  1.8052  0.1304
 7931TIP3    H247989   4.256   5.476  10.477  0.8452 -0.3963 -0.6597
 7932TIP3   OH247990   2.109   1.085  11.243 -0.3020  0.5385  0.1675
 7932TIP3    H147991   2.061   1.065  11.162 -0.6058 -1.4449  0.7721
 7932TIP3    H247992   2.043   1.126  11.300  0.3464  3.6542 -1.1239
 7933TIP3   OH247993   2.890   2.949  12.852 -0.4825  0.0216  0.6798
 7933TIP3    H147994   2.981   2.921  12.864 -0.2718 -0.2613 -1.2735
 7933TIP3    H247995   2.838   2.871  12.870 -0.3014 -0.0077  1.0940
 7934TIP3   OH247996   5.667   0.943   9.939  0.1749 -0.0454  0.4425
 7934TIP3    H147997   5.752   0.899   9.946 -0.0600 -0.2149  2.8719
 7934TIP3    H247998   5.638   0.924   9.849  3.1182  0.9033 -0.8190
 7935TIP3   OH247999   2.510   3.798  11.195 -0.5403  0.4088  0.2851
 7935TIP3    H148000   2.582   3.750  11.156 -0.8154 -0.4583  0.8182
 7935TIP3    H248001   2.432   3.746  11.175 -0.8850  0.8014  0.5774
 7936TIP3   OH248002   2.831   1.323  10.320 -0.1427  0.3072 -0.1969
 7936TIP3    H148003   2.840   1.286  10.232 -0.5147 -0.2439 -0.0140
 7936TIP3    H248004   2.867   1.256  10.378  0.1715  0.6995  0.0672
 7937TIP3   OH248005   2.220   0.258  12.236  0.6655  0.0465 -0.5510
 7937TIP3    H148006   2.169   0.286  12.312 -0.5861 -0.9602 -0.9788
 7937TIP3    H248007   2.243   0.339  12.191  2.3907  0.7554  1.4363
 7938TIP3   OH248008   3.002   0.035  12.062 -0.3607 -0.5472  0.2378
 7938TIP3    H148009   2.974  -0.056  12.047  0.2792 -1.0056  1.6793
 7938TIP3    H248010   3.006   0.073  11.974 -4.2317 -0.7809 -0.1954
 7939TIP3   OH248011   6.441   1.205  10.101  0.0836  0.1658 -0.1125
 7939TIP3    H148012   6.461   1.173  10.013 -0.5128  1.1038 -0.6076
 7939TIP3    H248013   6.492   1.286  10.109  0.2243  0.0247  0.4570
 7940TIP3   OH248014   5.951   3.626   9.891  0.6217 -0.0357 -0.3256
 7940TIP3    H148015   5.930   3.663   9.805  0.7664 -0.9783 -0.7744
 7940TIP3    H248016   5.886   3.664   9.950  0.0800  0.0663 -0.9826
 7941TIP3   OH248017   0.056   5.595  12.790 -0.0841 -0.4188  0.5086
 7941TIP3    H148018   0.079   5.561  12.876  0.6540  1.5926  1.1723
 7941TIP3    H248019  -0.035   5.625  12.798  0.0587 -0.0216  0.6732
 7942TIP3   OH248020   6.532   4.519  12.354 -0.3046  0.7896  0.1224
 7942TIP3    H148021   6.462   4.559  12.302 -0.9675 -0.6725 -0.1676
 7942TIP3    H248022   6.604   4.507  12.292 -0.8770 -0.3966 -0.3379
 7943TIP3   OH248023   2.394   1.091  11.156  0.2905  0.4478  0.5276
 7943TIP3    H148024   2.307   1.057  11.176  1.4837 -1.9500  2.0385
 7943TIP3    H248025   2.421   1.044  11.077  0.7657  0.0565  0.9115
 7944TIP3   OH248026   2.291   3.354  11.914  0.4035  0.6293  0.0204
 7944TIP3    H148027   2.286   3.411  11.990 -0.4240  1.9923 -1.0060
 7944TIP3    H248028   2.292   3.414  11.839 -1.8921 -0.6916 -1.1670
 7945TIP3   OH248029   0.754   5.803  12.568  0.6899  0.2296  0.7281
 7945TIP3    H148030   0.737   5.846  12.652  0.5905  1.2023  0.2289
 7945TIP3    H248031   0.801   5.869  12.517 -1.6476  0.7131 -0.9646
 7946TIP3   OH248032   5.282   2.112  11.724  0.2625 -0.6792  0.5162
 7946TIP3    H148033   5.243   2.031  11.691  0.0690 -0.6000  0.5490
 7946TIP3    H248034   5.336   2.144  11.651 -3.1298  1.5265 -1.3017
 7947TIP3   OH248035   4.231   0.427  10.041  0.0421  1.0498 -0.1343
 7947TIP3    H148036   4.226   0.489  10.114  1.7889  0.5110  0.4903
 7947TIP3    H248037   4.310   0.452   9.994 -1.0475  1.3785 -1.8842
 7948TIP3   OH248038   3.249   6.548  11.791 -0.2348 -0.3566 -0.3052
 7948TIP3    H148039   3.159   6.526  11.817 -0.4285  0.6522 -0.0509
 7948TIP3    H248040   3.299   6.468  11.806 -1.1457 -1.0207 -0.7262
 7949TIP3   OH248041   0.588   5.089  11.524  0.0296  0.0725 -0.2542
 7949TIP3    H148042   0.508   5.061  11.480  0.1229 -1.3818  0.4383
 7949TIP3    H248043   0.557   5.144  11.596 -0.2223  0.9676 -1.0259
 7950TIP3   OH248044   3.781   1.112   9.827 -0.0740 -0.3860  0.1208
 7950TIP3    H148045   3.841   1.143   9.896  0.4426 -0.0627 -0.4610
 7950TIP3    H248046   3.795   1.173   9.755 -1.6703  0.1468  0.2396
 7951TIP3   OH248047   4.676   6.407   9.536 -0.2073  0.1056  0.5059
 7951TIP3    H148048   4.766   6.393   9.504 -0.5354 -0.9837 -0.0105
 7951TIP3    H248049   4.669   6.501   9.546  0.8071  0.2629 -0.0344
 7952TIP3   OH248050   0.047   1.050  11.182 -0.2730 -0.0411 -0.3920
 7952TIP3    H148051  -0.043   1.078  11.200 -0.0271 -0.1069  1.1376
 7952TIP3    H248052   0.038   0.968  11.134 -1.1162 -1.6948  2.3830
 7953TIP3   OH248053   3.911   4.383   9.944 -0.4260  0.1369 -0.1952
 7953TIP3    H148054   3.868   4.297   9.937 -1.3515  0.3302  2.0532
 7953TIP3    H248055   3.987   4.366  10.000  0.6736  0.3979 -1.5774
 7954TIP3   OH248056   2.919   4.456  10.520 -0.1816  0.5243 -0.1933
 7954TIP3    H148057   3.002   4.460  10.566  0.2997  0.8738 -1.0644
 7954TIP3    H248058   2.884   4.545  10.524 -1.0872  0.1409  1.1575
 7955TIP3   OH248059   4.528   2.830  12.191  0.4286 -0.3338 -0.2462
 7955TIP3    H148060   4.599   2.856  12.132  1.3161 -0.6194  0.6603
 7955TIP3    H248061   4.533   2.892  12.264  0.3152 -0.8768  0.2373
 7956TIP3   OH248062   2.812   4.967  12.081 -0.0731  0.8925  0.6530
 7956TIP3    H148063   2.836   5.018  12.003  0.5274  0.5231  0.5946
 7956TIP3    H248064   2.856   5.011  12.153  0.8932  0.1611  0.5323
 7957TIP3   OH248065   1.419   5.206  12.059  0.1739 -0.0026 -0.2635
 7957TIP3    H148066   1.403   5.112  12.049 -0.3642  0.0315  0.2337
 7957TIP3    H248067   1.491   5.211  12.122 -0.0032 -0.0743 -0.0547
 7958TIP3   OH248068   1.070   1.235  11.328 -0.6685  0.3985  0.1676
 7958TIP3    H148069   1.147   1.208  11.379  0.6245 -0.8987 -2.2819
 7958TIP3    H248070   1.101   1.308  11.274 -1.2286  0.0829 -0.5991
 7959TIP3   OH248071   6.112   0.674  13.200  0.1401  0.0192  0.0225
 7959TIP3    H148072   6.018   0.682  13.218  0.5136  0.3955  2.0811
 7959TIP3    H248073   6.138   0.761  13.170 -0.3536 -0.4022 -1.7383
 7960TIP3   OH248074   1.106   3.064   9.732 -0.3881 -0.3977 -0.0369
 7960TIP3    H148075   1.153   3.143   9.759  1.3610 -1.1101 -0.8671
 7960TIP3    H248076   1.173   2.998   9.722 -1.7370 -1.8115 -0.1130
 7961TIP3   OH248077   0.108   0.884  10.835 -0.7928 -0.6915 -0.3054
 7961TIP3    H148078   0.136   0.899  10.925  0.2733 -1.5593 -0.4776
 7961TIP3    H248079   0.146   0.957  10.786  0.4284 -1.3572 -0.3835
 7962TIP3   OH248080   3.874   2.694  11.439  0.1190  0.0166  0.2777
 7962TIP3    H148081   3.959   2.661  11.470 -0.1542 -0.3101  0.7013
 7962TIP3    H248082   3.827   2.716  11.519  0.5083  2.0352 -0.0139
 7963TIP3   OH248083   4.461   6.469  12.002  0.4022 -0.0949  0.6253
 7963TIP3    H148084   4.550   6.477  12.037  0.3338 -0.4065  0.8707
 7963TIP3    H248085   4.474   6.439  11.912  0.5095 -1.3778  1.0476
 7964TIP3   OH248086   6.681   3.051  10.112 -0.3534 -0.4444  0.1414
 7964TIP3    H148087   6.667   2.958  10.096 -1.2375 -0.1874 -0.6545
 7964TIP3    H248088   6.747   3.054  10.181  0.8447 -1.6555 -0.8826
 7965TIP3   OH248089   5.860   5.560  13.026 -0.0927  0.3699  0.4264
 7965TIP3    H148090   5.853   5.625  12.956  0.5329  1.5762  1.4511
 7965TIP3    H248091   5.937   5.508  13.003  0.7395  1.4376  0.7445
 7966TIP3   OH248092   3.726   0.152  12.425 -0.3205 -0.1606 -0.3708
 7966TIP3    H148093   3.804   0.100  12.444 -0.9498 -1.0482 -0.0839
 7966TIP3    H248094   3.741   0.236  12.466  0.5451 -0.2747 -0.4509
 7967TIP3   OH248095   2.163   3.571   9.719  0.3715  0.3244  0.6120
 7967TIP3    H148096   2.117   3.533   9.794 -1.2082 -0.0694 -0.4853
 7967TIP3    H248097   2.111   3.649   9.696  1.0609  0.6687  0.1843
 7968TIP3   OH248098   6.524   1.767  11.812  0.0045 -0.0860 -0.2646
 7968TIP3    H148099   6.560   1.694  11.864  2.6175  1.4664  0.3132
 7968TIP3    H248100   6.540   1.741  11.721  0.7627 -0.3238 -0.0745
 7969TIP3   OH248101   3.605   6.248  11.035 -0.0017  0.4164  0.2101
 7969TIP3    H148102   3.691   6.259  11.075  0.4130 -1.5798 -0.0360
 7969TIP3    H248103   3.623   6.215  10.947 -1.0056 -0.7615  0.4163
 7970TIP3   OH248104   5.444   1.616  12.279 -0.4597  0.0631  0.2533
 7970TIP3    H148105   5.380   1.548  12.259  0.1548  0.1731 -2.4493
 7970TIP3    H248106   5.392   1.687  12.318 -1.8606 -0.1873 -1.0687
 7971TIP3   OH248107   3.122   4.974   9.896  0.0750  0.0298 -0.1631
 7971TIP3    H148108   3.187   4.904   9.890  1.1448  1.1105 -1.6346
 7971TIP3    H248109   3.103   4.998   9.805  0.0567  1.9266  0.2971
 7972TIP3   OH248110   2.490   3.629  10.837  0.0257 -0.0338  0.1364
 7972TIP3    H148111   2.494   3.593  10.748  1.6899  2.6324 -0.9708
 7972TIP3    H248112   2.562   3.586  10.883 -2.5665 -3.6487  1.2847
 7973TIP3   OH248113   0.999   6.485  10.266 -0.3783 -0.5211 -0.1995
 7973TIP3    H148114   0.915   6.510  10.303 -1.4560 -2.2163 -1.3801
 7973TIP3    H248115   1.019   6.400  10.306  0.9384 -0.0418  0.2506
 7974TIP3   OH248116   2.914   4.818  12.559  0.3727  0.2058 -0.1458
 7974TIP3    H148117   2.933   4.892  12.616 -3.1669  1.4560 -0.3408
 7974TIP3    H248118   2.852   4.764  12.609  1.4741 -1.6941 -0.7306
 7975TIP3   OH248119   0.985   5.086   9.632  0.1738  0.2144 -0.1576
 7975TIP3    H148120   0.916   5.152   9.627  0.8432  1.0906  1.4269
 7975TIP3    H248121   1.066   5.136   9.625  0.6759 -0.7385 -1.4307
 7976TIP3   OH248122   3.012   5.862  11.248 -0.3200 -0.0928  0.3297
 7976TIP3    H148123   2.919   5.852  11.265 -0.1364  0.0866  1.4944
 7976TIP3    H248124   3.025   5.824  11.161 -0.9657 -2.7824  1.3223
 7977TIP3   OH248125   2.344   4.813  10.823  0.5561 -0.0853 -0.0721
 7977TIP3    H148126   2.254   4.843  10.833  0.6256  0.4366 -0.9147
 7977TIP3    H248127   2.362   4.762  10.902  0.6881  2.6681  1.8136
 7978TIP3   OH248128   5.125   0.754  12.513 -0.1315 -0.6849  0.3021
 7978TIP3    H148129   5.190   0.686  12.491 -0.0772 -0.4994 -0.1344
 7978TIP3    H248130   5.058   0.744  12.445  0.7297  0.8278 -0.8369
 7979TIP3   OH248131   1.200   2.972  10.219  0.6855 -0.1506 -0.1750
 7979TIP3    H148132   1.142   2.904  10.185 -2.1325  1.5202  0.9006
 7979TIP3    H248133   1.231   2.937  10.303  0.6685 -0.7551 -0.4121
 7980TIP3   OH248134   0.881   0.392  10.556  0.2498  0.2528  0.2675
 7980TIP3    H148135   0.797   0.405  10.600 -0.2736  0.4087 -0.7554
 7980TIP3    H248136   0.866   0.419  10.466  1.5194  0.6719  0.1580
 7981TIP3   OH248137   3.474   1.519  11.642  0.3837  0.2701  0.4445
 7981TIP3    H148138   3.455   1.433  11.679 -0.5399  0.5866  0.7330
 7981TIP3    H248139   3.538   1.558  11.702 -1.5263  1.0144  2.0896
 7982TIP3   OH248140   5.577   0.126  10.235  0.2049 -0.0098 -0.3362
 7982TIP3    H148141   5.529   0.209  10.234  0.0144 -0.0375  1.8631
 7982TIP3    H248142   5.651   0.139  10.175 -2.3769  0.0509 -3.8898
 7983TIP3   OH248143   2.481   2.415  10.407  0.3885  0.2915 -0.6266
 7983TIP3    H148144   2.417   2.432  10.338  0.3507 -0.5692 -0.8147
 7983TIP3    H248145   2.431   2.423  10.488  0.2106  0.3686 -0.7433
 7984TIP3   OH248146   6.406   2.581  12.270 -0.4098  0.7176  0.5870
 7984TIP3    H148147   6.398   2.588  12.365 -2.5262 -0.6685  0.5897
 7984TIP3    H248148   6.401   2.671  12.238 -1.9060  1.0818  1.7083
 7985TIP3   OH248149   4.953   1.962  10.568  0.2079 -0.2203 -0.1738
 7985TIP3    H148150   4.984   2.038  10.519  1.2551  0.3783  1.3694
 7985TIP3    H248151   4.858   1.962  10.554  0.4751 -0.1520 -2.2659
 7986TIP3   OH248152   0.300   6.612  10.426  0.5319  0.5134 -0.5147
 7986TIP3    H148153   0.281   6.651  10.511 -0.1238 -2.3609  0.7878
 7986TIP3    H248154   0.221   6.627  10.375 -0.5593 -0.8300  0.6869
 7987TIP3   OH248155   5.978   2.259  11.529 -0.3867  0.0412 -0.1231
 7987TIP3    H148156   5.937   2.175  11.548  0.8951 -0.5672  0.0752
 7987TIP3    H248157   6.031   2.278  11.606 -0.5350  0.9604 -0.2369
 7988TIP3   OH248158   2.352   0.723  12.241 -0.6332 -0.0542  1.2305
 7988TIP3    H148159   2.371   0.647  12.296  0.1993  0.1600  1.2556
 7988TIP3    H248160   2.332   0.793  12.303 -2.7797 -0.5682  1.1885
 7989TIP3   OH248161   4.250   5.151  10.639  0.0377 -0.3723  0.5436
 7989TIP3    H148162   4.222   5.060  10.635 -0.9773 -0.1172  1.3431
 7989TIP3    H248163   4.212   5.191  10.560 -1.1976 -0.2229  1.1885
 7990TIP3   OH248164   2.770   5.167  11.351 -0.2168 -1.0279  0.4402
 7990TIP3    H148165   2.755   5.259  11.328 -1.2959 -1.1375  0.6408
 7990TIP3    H248166   2.860   5.150  11.324 -0.6563 -0.4981 -1.4892
 7991TIP3   OH248167   3.646   3.166   9.808 -0.3503  0.5009 -0.4390
 7991TIP3    H148168   3.716   3.154   9.873 -0.0863 -1.8392 -1.0433
 7991TIP3    H248169   3.574   3.205   9.857  0.6531  0.9914  0.6997
 7992TIP3   OH248170   5.199   2.847  12.190 -0.4821  0.0475 -0.5048
 7992TIP3    H148171   5.160   2.773  12.235 -0.3371  0.7388  0.8181
 7992TIP3    H248172   5.214   2.912  12.259  0.6879  0.7631 -1.3850
 7993TIP3   OH248173   4.309   2.318  10.657 -0.1107 -0.4023  0.8600
 7993TIP3    H148174   4.356   2.381  10.602 -0.4683  0.6268  1.6838
 7993TIP3    H248175   4.330   2.232  10.621 -0.1185  0.2305 -0.6931
 7994TIP3   OH248176   1.412   2.618   9.542  0.6064 -0.2359 -0.6890
 7994TIP3    H148177   1.433   2.567   9.620 -0.2561 -0.0743 -0.3456
 7994TIP3    H248178   1.487   2.605   9.484  0.6071 -1.5355 -0.4207
 7995TIP3   OH248179   1.019   3.116  11.374 -0.0053  0.6404 -0.2246
 7995TIP3    H148180   0.999   3.197  11.421  0.3109  0.6538 -0.1066
 7995TIP3    H248181   1.115   3.117  11.365 -0.0999  0.9085 -1.3547
 7996TIP3   OH248182   5.287   1.310  12.465  0.1030 -0.1911 -0.1700
 7996TIP3    H148183   5.368   1.297  12.515  0.8215 -0.4244 -1.3689
 7996TIP3    H248184   5.238   1.375  12.515 -0.0288 -1.6992  1.8087
 7997TIP3   OH248185   5.857   4.033   9.554 -0.1154  0.0883 -0.3118
 7997TIP3    H148186   5.886   3.973   9.485  1.8066 -1.7145  1.8995
 7997TIP3    H248187   5.762   4.024   9.557  0.0719 -2.4815 -0.4344
 7998TIP3   OH248188   6.425   6.006  12.429 -0.6032 -0.6642  0.5132
 7998TIP3    H148189   6.363   6.078  12.416 -0.7424 -0.9461 -0.4740
 7998TIP3    H248190   6.506   6.036  12.389 -0.1441 -0.3656  1.6569
 7999TIP3   OH248191   4.503   0.770  10.018 -0.4164  0.2154  0.2162
 7999TIP3    H148192   4.582   0.810  10.056 -0.9058  2.0499 -0.5661
 7999TIP3    H248193   4.464   0.841   9.966 -3.1789 -0.2854  1.4601
 8000TIP3   OH248194   2.266   1.679  10.058  0.1090  0.6931 -0.2894
 8000TIP3    H148195   2.210   1.745  10.098 -0.6301  0.3255 -0.6886
 8000TIP3    H248196   2.270   1.609  10.123  1.4281  1.3785  0.4128
 8001TIP3   OH248197   2.852   5.291  12.879 -0.3289  0.3141  0.2103
 8001TIP3    H148198   2.892   5.332  12.803 -0.4502 -0.3705 -0.2348
 8001TIP3    H248199   2.857   5.197  12.860  3.5930 -0.2538  2.8780
 8002TIP3   OH248200   2.416   5.729  10.474 -0.0809  0.2744  0.1775
 8002TIP3    H148201   2.455   5.816  10.485 -0.1015  0.3142 -0.0601
 8002TIP3    H248202   2.452   5.697  10.391 -1.3224  0.7254 -0.5639
 8003TIP3   OH248203   1.972   3.817  11.335 -0.0604 -0.3657  0.4437
 8003TIP3    H148204   2.052   3.847  11.380  1.0396 -1.9168 -0.4036
 8003TIP3    H248205   1.939   3.896  11.291  1.2033  0.2363  0.5151
 8004TIP3   OH248206   3.991   4.214  10.538 -0.1154 -0.6101 -0.8565
 8004TIP3    H148207   4.061   4.258  10.490  0.7216 -0.1544  0.6982
 8004TIP3    H248208   3.997   4.123  10.511  1.8362 -0.8011  0.0288
 8005TIP3   OH248209   0.389   4.885  11.035  0.4284  0.1105 -0.6685
 8005TIP3    H148210   0.458   4.830  11.071  0.5650  0.2633 -0.6951
 8005TIP3    H248211   0.310   4.858  11.081  0.4064 -0.4550 -1.0396
 8006TIP3   OH248212   5.547   3.556  11.551  0.2466 -0.4726 -0.2671
 8006TIP3    H148213   5.571   3.598  11.468  1.8908 -0.1703  0.3236
 8006TIP3    H248214   5.627   3.515  11.581 -0.3120 -0.5533  1.2028
 8007TIP3   OH248215   5.419   6.138  10.285  0.4951 -0.6554  1.1149
 8007TIP3    H148216   5.352   6.205  10.268  0.8014 -0.5340  0.3373
 8007TIP3    H248217   5.378   6.079  10.348 -0.3877 -0.6337  0.5829
 8008TIP3   OH248218   4.550   1.021  13.172  0.6061  0.4112 -0.1671
 8008TIP3    H148219   4.646   1.013  13.165  0.6813 -0.3586  1.2921
 8008TIP3    H248220   4.530   0.987  13.259 -0.9032  1.5107 -0.0456
 8009TIP3   OH248221   1.613   2.519  11.940 -0.3657 -0.3717 -0.4929
 8009TIP3    H148222   1.531   2.478  11.914  0.6568 -1.9854 -1.3615
 8009TIP3    H248223   1.600   2.543  12.032 -1.2119 -2.2336 -0.0819
 8010TIP3   OH248224   4.826   2.752   9.550 -0.5515 -0.3743 -0.0046
 8010TIP3    H148225   4.856   2.704   9.473 -1.3780 -1.7565  0.5128
 8010TIP3    H248226   4.899   2.746   9.612 -1.1006 -2.0778  0.5282
 8011TIP3   OH248227   2.944   0.520  12.048 -0.2065 -0.1410  0.2163
 8011TIP3    H148228   2.888   0.464  12.102  0.9135  0.2663  1.8699
 8011TIP3    H248229   3.015   0.464  12.020 -0.8065 -0.3600 -0.8969
 8012TIP3   OH248230   1.339   6.186  11.663  0.0881  0.3992 -0.4924
 8012TIP3    H148231   1.295   6.109  11.625 -0.0212  0.8607 -1.3238
 8012TIP3    H248232   1.412   6.149  11.713  1.4640 -0.1733 -2.7538
 8013TIP3   OH248233   4.670   4.019  11.689  0.2667 -0.1468  0.5016
 8013TIP3    H148234   4.636   3.947  11.742  0.2246 -0.2241  0.3694
 8013TIP3    H248235   4.695   3.978  11.606 -0.4828  0.1139  0.1323
 8014TIP3   OH248236   1.184   6.277  11.008  0.4694  0.9481 -0.2907
 8014TIP3    H148237   1.139   6.345  10.958 -0.8691  1.2870  1.2602
 8014TIP3    H248238   1.232   6.326  11.076 -0.8108  0.3991  1.0779
 8015TIP3   OH248239   1.125   4.127  10.238 -0.1538  0.4617  0.1218
 8015TIP3    H148240   1.215   4.143  10.266 -0.2220  2.0954 -0.5197
 8015TIP3    H248241   1.118   4.031  10.237  0.7143  0.2730  2.8279
 8016TIP3   OH248242   4.807   0.648   9.629  0.0130  0.0288 -0.4725
 8016TIP3    H148243   4.801   0.572   9.687  0.4639  0.0555 -0.3884
 8016TIP3    H248244   4.887   0.693   9.657 -0.0977  0.3775 -0.7118
 8017TIP3   OH248245   1.345   3.546  13.023  0.6600  0.0801 -0.3469
 8017TIP3    H148246   1.301   3.499  13.094 -2.5852  0.7084 -1.7372
 8017TIP3    H248247   1.414   3.596  13.066  0.0781 -1.0490  2.0604
 8018TIP3   OH248248   0.240   4.484  10.469  0.1242 -0.0005 -0.5677
 8018TIP3    H148249   0.239   4.478  10.374 -0.8065 -0.3814 -0.5378
 8018TIP3    H248250   0.178   4.417  10.499  1.6218 -1.0398  0.3751
 8019TIP3   OH248251   0.412   1.795  12.744  0.3171  0.5451  0.0596
 8019TIP3    H148252   0.423   1.788  12.839  0.2013 -0.7816  0.0018
 8019TIP3    H248253   0.361   1.875  12.732 -0.9145 -0.0060  1.2465
 8020TIP3   OH248254   3.892   5.995  10.968  0.0487 -0.4670  0.0202
 8020TIP3    H148255   3.980   6.032  10.957  0.1412 -0.8719 -0.6534
 8020TIP3    H248256   3.885   5.928  10.900 -0.1591 -1.6288  1.1422
 8021TIP3   OH248257   1.141   4.621  11.934 -0.0378 -0.1422 -0.6714
 8021TIP3    H148258   1.137   4.531  11.903 -1.6927  0.4354 -2.3464
 8021TIP3    H248259   1.051   4.652  11.931  0.2310  1.0445  1.6159
 8022TIP3   OH248260   1.180   5.818  11.389 -0.4014  0.4670  0.0722
 8022TIP3    H148261   1.274   5.834  11.394 -0.2296 -0.1479 -0.9589
 8022TIP3    H248262   1.152   5.860  11.308 -0.3155 -2.4003 -1.5852
 8023TIP3   OH248263   2.612   1.261  10.757 -0.2966  0.2786 -0.2610
 8023TIP3    H148264   2.705   1.282  10.747 -0.0915  0.5573  1.8349
 8023TIP3    H248265   2.567   1.324  10.702  0.6544  1.8726  0.7102
 8024TIP3   OH248266   6.377   2.642  12.533  0.4932 -0.2543 -0.2284
 8024TIP3    H148267   6.427   2.617  12.611 -0.8721  0.2175  0.8453
 8024TIP3    H248268   6.346   2.731  12.553  0.2957 -0.0518 -1.4020
 8025TIP3   OH248269   5.442   4.021  10.268 -0.3838 -0.1046  0.4660
 8025TIP3    H148270   5.446   4.117  10.267 -0.4903 -0.0884  1.1592
 8025TIP3    H248271   5.357   4.001  10.306  0.3165 -0.4641  1.9176
 8026TIP3   OH248272   0.062   4.543  11.553  0.6687  0.1809  0.2619
 8026TIP3    H148273  -0.010   4.483  11.576  1.2066 -1.3783 -1.8051
 8026TIP3    H248274   0.141   4.496  11.580  1.0155  0.9658  0.6327
 8027TIP3   OH248275   5.626   3.443  10.816  0.2302  0.0922  0.2137
 8027TIP3    H148276   5.593   3.416  10.729  1.2073 -0.9150  0.1317
 8027TIP3    H248277   5.623   3.538  10.814  1.7224  0.1623 -1.5549
 8028TIP3   OH248278   4.543   0.734   9.385 -0.1637 -0.2849  0.0937
 8028TIP3    H148279   4.609   0.698   9.326 -0.1072 -1.3332  0.7874
 8028TIP3    H248280   4.564   0.697   9.471 -0.5602  0.8085  0.6827
 8029TIP3   OH248281   0.580   5.442  10.293 -0.3308  0.1857 -0.3409
 8029TIP3    H148282   0.511   5.503  10.268 -0.4718 -0.2269 -0.9714
 8029TIP3    H248283   0.542   5.355  10.280 -0.5596 -0.0731  1.7076
 8030TIP3   OH248284   5.437   0.805  11.732 -0.0958  0.2526 -0.5263
 8030TIP3    H148285   5.445   0.879  11.670  0.9533  0.4602 -0.1617
 8030TIP3    H248286   5.457   0.728  11.679 -0.5920  0.2862 -0.7687
 8031TIP3   OH248287   2.583   4.533  10.878  0.3187 -0.2920 -0.1102
 8031TIP3    H148288   2.558   4.529  10.786 -0.3266 -0.9889  0.0905
 8031TIP3    H248289   2.651   4.467  10.887  1.7539  1.0689 -0.4837
 8032TIP3   OH248290   1.929   6.433  10.272 -0.0587 -0.4679 -0.0891
 8032TIP3    H148291   2.016   6.467  10.252 -0.9325  0.7665 -2.0002
 8032TIP3    H248292   1.886   6.503  10.321 -1.3916  0.7544 -2.8510
 8033TIP3   OH248293   6.052   6.167  10.998 -0.0186 -0.1127  0.1590
 8033TIP3    H148294   5.974   6.151  10.945  0.4903 -1.0497 -0.3197
 8033TIP3    H248295   6.022   6.225  11.068 -1.2797 -0.9324  0.3220
 8034TIP3   OH248296   4.002   2.720  12.278 -0.5133 -0.3626 -0.1359
 8034TIP3    H148297   3.965   2.678  12.201 -1.8527  0.8058 -0.1778
 8034TIP3    H248298   3.928   2.732  12.337  0.7813 -2.9548  2.2250
 8035TIP3   OH248299   2.074   0.726  11.125  0.1309 -0.1215  0.1105
 8035TIP3    H148300   2.108   0.807  11.089 -0.3234  0.2386  0.4698
 8035TIP3    H248301   2.115   0.718  11.212  0.3129 -0.3684  0.0026
 8036TIP3   OH248302   5.896   5.246  11.781 -0.3472  0.4289  0.9724
 8036TIP3    H148303   5.956   5.185  11.824  1.1085  1.7100  0.8826
 8036TIP3    H248304   5.920   5.243  11.688 -0.5059  0.8472  0.9128
 8037TIP3   OH248305   0.348   2.361  11.584 -0.2438 -0.4724 -0.3311
 8037TIP3    H148306   0.349   2.349  11.489  0.6760  2.0555 -0.7269
 8037TIP3    H248307   0.255   2.355  11.608 -0.5307 -0.7691 -1.4493
 8038TIP3   OH248308   3.711   5.299   9.263  0.1601  0.0430 -0.5007
 8038TIP3    H148309   3.697   5.219   9.314 -0.2368 -0.0066 -0.6923
 8038TIP3    H248310   3.666   5.284   9.180 -0.1163  0.5562 -0.4479
 8039TIP3   OH248311   6.004   2.609  11.037  0.1510  0.4191 -0.2307
 8039TIP3    H148312   6.092   2.615  11.073 -0.0653  0.8518  0.2375
 8039TIP3    H248313   5.951   2.666  11.093 -0.4160  0.2019 -0.5359
 8040TIP3   OH248314   5.041   2.014  12.591  0.3389 -0.1588 -0.3040
 8040TIP3    H148315   5.112   2.056  12.544  0.6289 -0.6320 -0.2857
 8040TIP3    H248316   4.984   2.087  12.617  1.0576  0.2722  0.0984
 8041TIP3   OH248317   5.638   4.944   9.117  0.0140 -0.3584  0.1893
 8041TIP3    H148318   5.722   4.984   9.140  0.3004 -0.6495 -0.3162
 8041TIP3    H248319   5.636   4.861   9.164  0.2056 -0.5468 -0.1264
 8042TIP3   OH248320   6.375   0.781  11.672  0.5782 -0.5003  0.1114
 8042TIP3    H148321   6.368   0.864  11.626 -0.2112 -0.2284  0.7008
 8042TIP3    H248322   6.460   0.745  11.645  0.6140  0.1570 -0.6918
 8043TIP3   OH248323   1.537   3.403  10.594 -0.2663 -0.1184 -0.0972
 8043TIP3    H148324   1.452   3.442  10.576  0.0811  2.3627  2.7465
 8043TIP3    H248325   1.585   3.410  10.512 -2.5205 -0.9933 -1.5703
 8044TIP3   OH248326   6.416   2.136  11.896  0.8563 -0.0835  0.5444
 8044TIP3    H148327   6.449   2.113  11.810  1.6048 -1.0177  1.0539
 8044TIP3    H248328   6.334   2.087  11.904 -0.0619  1.2639 -0.2374
 8045TIP3   OH248329   5.034   3.378  11.156  0.0335  0.0923 -0.0525
 8045TIP3    H148330   5.044   3.344  11.067  2.9376 -2.0874  0.9400
 8045TIP3    H248331   4.962   3.329  11.192 -1.8066  1.6543 -1.3718
 8046TIP3   OH248332   5.117   2.723  11.671 -0.1939  0.1947  0.2179
 8046TIP3    H148333   5.131   2.632  11.697 -0.7935  0.2733  0.8496
 8046TIP3    H248334   5.168   2.774  11.735 -1.6123  0.3871  1.2393
 8047TIP3   OH248335   3.283   4.700  11.058 -0.0154 -0.2552  0.1822
 8047TIP3    H148336   3.283   4.710  10.963 -0.0140 -1.8425 -0.0137
 8047TIP3    H248337   3.218   4.763  11.089 -1.5977 -1.1814 -1.0795
 8048TIP3   OH248338   5.686   1.045  12.046 -0.1873 -0.6418  0.0438
 8048TIP3    H148339   5.633   1.001  12.112 -0.9906 -2.0080 -1.4338
 8048TIP3    H248340   5.749   0.979  12.018 -0.5848 -0.4815 -1.3140
 8049TIP3   OH248341   3.951   6.115  12.479  0.0657 -0.0849 -0.0089
 8049TIP3    H148342   3.877   6.058  12.498 -0.8206  1.6087  2.1205
 8049TIP3    H248343   4.006   6.110  12.558  1.7919 -0.6158 -1.1858
 8050TIP3   OH248344   3.550   4.364  11.053 -0.2534  0.1348 -0.3961
 8050TIP3    H148345   3.484   4.304  11.089  1.5733 -2.2805 -0.8402
 8050TIP3    H248346   3.548   4.348  10.959  0.4240  0.6139 -0.4960
 8051TIP3   OH248347   3.735   1.277  11.987 -0.1434  0.2126  0.6512
 8051TIP3    H148348   3.777   1.309  11.908 -0.8728  0.8739  0.5227
 8051TIP3    H248349   3.806   1.270  12.051  0.1449  1.4672  0.4929
 8052TIP3   OH248350   0.164   3.861  12.868  0.0083 -0.8992 -0.7656
 8052TIP3    H148351   0.250   3.869  12.909  0.3784 -2.9030 -1.0859
 8052TIP3    H248352   0.173   3.790  12.805 -1.6127 -0.4427 -1.5697
 8053TIP3   OH248353   2.138   4.912  13.332  0.2263 -0.0639 -0.2556
 8053TIP3    H148354   2.127   4.996  13.375 -2.2859 -0.6962  0.5052
 8053TIP3    H248355   2.109   4.927  13.242 -0.2957 -0.1049 -0.0995
 8054TIP3   OH248356   3.989   0.499  11.994 -0.1678 -0.2682  0.5978
 8054TIP3    H148357   3.934   0.576  11.979 -0.4823 -0.3042  1.5065
 8054TIP3    H248358   3.949   0.455  12.069  0.7579 -0.6230  0.8973
 8055TIP3   OH248359   0.860   3.186  11.017 -0.7771  0.1484  0.0188
 8055TIP3    H148360   0.764   3.191  11.019 -0.8524 -0.9382  0.1323
 8055TIP3    H248361   0.889   3.220  11.101 -1.0381  0.9370 -0.2097
 8056TIP3   OH248362   5.587   3.845   9.916  0.1232  0.0802 -0.0847
 8056TIP3    H148363   5.517   3.806   9.969 -0.5363  0.4178 -0.6929
 8056TIP3    H248364   5.656   3.864   9.979 -1.4712  2.5249  1.1324
 8057TIP3   OH248365   3.937   1.098  10.926 -0.7539 -0.0235  0.6777
 8057TIP3    H148366   3.857   1.112  10.875 -0.4127  0.4976  0.2762
 8057TIP3    H248367   3.974   1.185  10.936  0.9558 -0.4835 -1.0911
 8058TIP3   OH248368   0.366   1.802  11.576  0.3341 -0.4271  0.2444
 8058TIP3    H148369   0.370   1.892  11.610  3.0153  0.6388 -2.4290
 8058TIP3    H248370   0.425   1.752  11.633 -0.1381 -0.2046  0.9448
 8059TIP3   OH248371   4.294   1.650  12.442 -0.1770  0.6167 -0.3268
 8059TIP3    H148372   4.224   1.625  12.503 -0.5711  0.2273 -0.9284
 8059TIP3    H248373   4.370   1.600  12.472 -0.7217 -0.6525 -0.9639
 8060TIP3   OH248374   5.014   1.131  11.961 -0.1818 -0.3040  0.4176
 8060TIP3    H148375   5.076   1.059  11.945 -0.2999 -0.2840 -0.1544
 8060TIP3    H248376   4.947   1.119  11.895 -0.7331 -0.2526  0.9638
 8061TIP3   OH248377   3.999   6.276  10.885 -0.0402 -0.1251  0.3237
 8061TIP3    H148378   4.075   6.218  10.895 -0.3628 -0.6524 -0.2087
 8061TIP3    H248379   3.994   6.293  10.791 -0.5462 -0.0424  0.3614
 8062TIP3   OH248380   2.784   3.993  10.931  0.2640 -0.2608  0.3993
 8062TIP3    H148381   2.692   3.969  10.921 -0.1288  1.3550 -0.1378
 8062TIP3    H248382   2.808   4.031  10.846  0.9131  0.9306  1.0953
 8063TIP3   OH248383   1.136   0.452  10.674 -0.6821  0.1792 -0.5200
 8063TIP3    H148384   1.174   0.464  10.762 -0.8913  2.0329 -0.6401
 8063TIP3    H248385   1.041   0.456  10.688 -0.7033  1.7763 -0.9539
 8064TIP3   OH248386   2.863   2.356  12.462  0.5573  0.2729  0.2672
 8064TIP3    H148387   2.932   2.420  12.478 -1.2688  2.3623  0.2190
 8064TIP3    H248388   2.782   2.407  12.458 -0.7545 -1.7116 -2.1310
 8065TIP3   OH248389   0.322   5.508  11.279 -0.5338 -0.0072 -0.0972
 8065TIP3    H148390   0.333   5.508  11.375  0.7200 -1.2965 -0.1967
 8065TIP3    H248391   0.329   5.416  11.255 -0.5891  0.3326 -1.4677
 8066TIP3   OH248392   5.832   0.592  11.645 -0.0214 -0.5297  0.1748
 8066TIP3    H148393   5.866   0.676  11.674 -1.8357  0.4855 -0.4748
 8066TIP3    H248394   5.842   0.593  11.550  1.2361 -1.6732  0.2691
 8067TIP3   OH248395   2.816   0.442  12.978  0.6572 -0.0711  0.4742
 8067TIP3    H148396   2.817   0.492  12.896 -4.8664 -0.4824 -0.2400
 8067TIP3    H248397   2.872   0.366  12.960  0.9343  0.6717 -2.3205
 8068TIP3   OH248398   4.341   2.163  10.329 -0.2275  0.0042 -0.0183
 8068TIP3    H148399   4.324   2.092  10.267  0.9316  0.0009 -0.3463
 8068TIP3    H248400   4.413   2.132  10.383  1.9911  1.8331 -1.7219
 8069TIP3   OH248401   1.054   0.276   9.309 -0.0559  0.1097  0.2319
 8069TIP3    H148402   1.069   0.181   9.309  0.1852  0.1422  0.8452
 8069TIP3    H248403   1.137   0.313   9.339 -0.5281  0.4494  1.1228
 8070TIP3   OH248404   2.916   4.303  12.715 -0.0653  0.4217 -0.0154
 8070TIP3    H148405   2.875   4.222  12.684  0.8194 -0.2315  0.4417
 8070TIP3    H248406   2.944   4.348  12.635 -1.1010  0.5853 -0.3017
 8071TIP3   OH248407   3.614   1.615  10.440 -0.3245  0.5481 -0.9793
 8071TIP3    H148408   3.659   1.552  10.384 -1.2968  0.6807 -1.9437
 8071TIP3    H248409   3.580   1.681  10.379 -0.1065  1.5239 -0.0772
 8072TIP3   OH248410   0.574   4.653  10.610  0.0924 -0.2320 -0.3755
 8072TIP3    H148411   0.548   4.561  10.612 -0.4657 -0.1457 -2.0459
 8072TIP3    H248412   0.492   4.701  10.621  0.2137  0.0578 -0.7248
 8073TIP3   OH248413   1.954   3.554  12.167  0.1069  0.2757 -0.5984
 8073TIP3    H148414   2.021   3.486  12.155  0.3761  0.0197  1.8098
 8073TIP3    H248415   1.990   3.612  12.233 -1.9387  0.2376  0.6433
 8074TIP3   OH248416   4.879   3.966  10.928 -0.3118 -0.0711  0.3703
 8074TIP3    H148417   4.895   4.060  10.942 -0.0379  0.0179 -0.4527
 8074TIP3    H248418   4.865   3.931  11.016  0.7524  0.5345  0.8085
 8075TIP3   OH248419   0.802   2.395   9.887 -0.1034 -0.6183 -0.2219
 8075TIP3    H148420   0.794   2.397   9.982 -0.8684 -1.4001 -0.2537
 8075TIP3    H248421   0.712   2.399   9.855  0.1698  0.2398 -0.9377
 8076TIP3   OH248422   5.317   4.800  13.120 -0.3960  0.4030  0.3132
 8076TIP3    H148423   5.226   4.802  13.090  0.1881  0.9437 -1.5572
 8076TIP3    H248424   5.369   4.800  13.039  1.2873  1.5949  1.3288
 8077TIP3   OH248425   2.840   5.002   9.635  0.3525 -0.6288 -0.2716
 8077TIP3    H148426   2.932   4.987   9.655  0.5938  0.4683 -0.5327
 8077TIP3    H248427   2.838   5.085   9.588 -0.5682 -1.5212 -1.9017
 8078TIP3   OH248428   0.284   3.246  10.163  0.0095 -0.3489  0.0946
 8078TIP3    H148429   0.304   3.274  10.074 -2.1059 -2.9178 -1.3818
 8078TIP3    H248430   0.336   3.167  10.176 -0.2261 -0.3931  0.8511
 8079TIP3   OH248431   3.111   3.051  10.620  0.1035  0.3328  0.3648
 8079TIP3    H148432   3.186   3.082  10.568  0.3685  1.7499  1.5350
 8079TIP3    H248433   3.047   3.122  10.615 -0.4255 -0.1001  0.8577
 8080TIP3   OH248434   4.180   1.719  11.716 -0.0610  0.6334 -0.1979
 8080TIP3    H148435   4.127   1.699  11.639  0.5428  0.0457 -0.4704
 8080TIP3    H248436   4.204   1.633  11.751  0.2429  0.8963  0.2424
 8081TIP3   OH248437   0.070   4.738  11.921 -0.5055  0.2523  0.7141
 8081TIP3    H148438   0.083   4.646  11.899 -2.1882  0.0709  0.3142
 8081TIP3    H248439   0.156   4.779  11.908  0.1158 -1.1439  0.3083
 8082TIP3   OH248440   2.073   4.765  10.304 -0.0364 -0.1320 -0.3310
 8082TIP3    H148441   2.037   4.802  10.224  0.4298 -0.1015 -0.5293
 8082TIP3    H248442   1.996   4.748  10.359 -0.1900  3.0168  0.6105
 8083TIP3   OH248443   0.711   0.274  10.329  0.0680 -0.2592  0.2658
 8083TIP3    H148444   0.625   0.275  10.371  1.2194  0.6491  2.7377
 8083TIP3    H248445   0.728   0.365  10.307 -0.9478 -0.7773 -3.4190
 8084TIP3   OH248446   1.412   3.789  11.745  0.6665  0.0034 -0.3660
 8084TIP3    H148447   1.468   3.732  11.693  0.5857  0.2663 -0.7542
 8084TIP3    H248448   1.471   3.838  11.801  0.9146  0.8325 -1.3132
 8085TIP3   OH248449   5.614   5.644  11.179 -0.5097  0.2473  0.0233
 8085TIP3    H148450   5.593   5.663  11.087  1.4939 -2.0513 -1.0309
 8085TIP3    H248451   5.565   5.564  11.198  1.0787 -0.7717  0.0301
 8086TIP3   OH248452   0.199   6.157  10.394 -0.3334  0.0742 -0.6872
 8086TIP3    H148453   0.280   6.108  10.381  0.0870  0.9540 -1.5290
 8086TIP3    H248454   0.135   6.113  10.339 -0.2648 -0.2581 -0.4982
 8087TIP3   OH248455   3.784   4.457  10.730  0.0462 -0.8270  0.2510
 8087TIP3    H148456   3.712   4.409  10.688  0.3860 -0.8504 -0.3041
 8087TIP3    H248457   3.740   4.512  10.794 -0.7642  1.0927 -1.8231
 8088TIP3   OH248458   6.079   5.220  10.885 -0.2666  0.3145 -0.1296
 8088TIP3    H148459   6.173   5.224  10.869 -0.0805 -0.4685  0.6806
 8088TIP3    H248460   6.050   5.312  10.883  0.6275  0.6162  0.2927
 8089TIP3   OH248461   4.159   4.546  11.877  0.4435 -0.4211 -0.5605
 8089TIP3    H148462   4.092   4.485  11.911  0.3371  0.0470  0.0716
 8089TIP3    H248463   4.185   4.507  11.793  0.5822 -1.4983 -0.0398
 8090TIP3   OH248464   2.911   5.150  12.305  0.2633  0.5269 -0.0258
 8090TIP3    H148465   2.957   5.169  12.387  0.6782  2.2645 -0.6163
 8090TIP3    H248466   2.827   5.195  12.313 -0.9952 -1.7468  0.6034
 8091TIP3   OH248467   3.085   4.902  11.896 -0.1241  0.5377 -0.2620
 8091TIP3    H148468   2.995   4.921  11.922  0.1189  0.4783  0.6515
 8091TIP3    H248469   3.078   4.829  11.835 -0.8268  1.6134 -1.5061
 8092TIP3   OH248470   6.000   1.871  10.980  0.2705  0.1961  0.3588
 8092TIP3    H148471   5.962   1.805  10.922  0.2044 -0.9408  1.6658
 8092TIP3    H248472   6.020   1.944  10.922  0.7031 -1.0984 -1.1898
 8093TIP3   OH248473   1.859   4.851   9.455  0.2795 -0.5015  0.0150
 8093TIP3    H148474   1.901   4.839   9.370  1.8935 -1.1731  0.8751
 8093TIP3    H248475   1.905   4.925   9.494 -1.9986  1.3536 -0.5786
 8094TIP3   OH248476   1.356   6.293  11.984 -0.2599  0.0056  0.0230
 8094TIP3    H148477   1.284   6.241  11.948  0.2591 -1.5480  1.1340
 8094TIP3    H248478   1.420   6.297  11.913 -0.5808 -0.3261 -0.2921
 8095TIP3   OH248479   6.391   5.412  12.720  0.2526 -0.1856 -0.6463
 8095TIP3    H148480   6.319   5.367  12.765  0.9810  0.1430  0.9107
 8095TIP3    H248481   6.384   5.503  12.747  2.2637 -0.4330  1.0212
 8096TIP3   OH248482   1.899   2.487  12.705 -0.4837 -0.4171 -0.2595
 8096TIP3    H148483   1.884   2.578  12.677  0.4337  0.8718  2.9623
 8096TIP3    H248484   1.831   2.470  12.770  1.1260 -0.8483  1.4288
 8097TIP3   OH248485   5.591   6.301  10.133  0.1232 -0.4017 -0.0557
 8097TIP3    H148486   5.528   6.265  10.195 -0.9293  2.7981  0.8942
 8097TIP3    H248487   5.630   6.375  10.178  2.4219 -0.4702 -1.7549
 8098TIP3   OH248488   0.355   4.549  11.385  0.0622 -0.0905 -0.4906
 8098TIP3    H148489   0.417   4.480  11.364  0.4220  0.8000 -2.6932
 8098TIP3    H248490   0.283   4.535  11.323 -0.2623  0.9769 -0.3723
 8099TIP3   OH248491   3.195   5.160  11.894  0.0505 -0.3687  0.0363
 8099TIP3    H148492   3.149   5.075  11.898 -1.9195  0.6183 -0.3101
 8099TIP3    H248493   3.127   5.222  11.867  1.9542  0.9693 -1.9390
 8100TIP3   OH248494   1.600   5.636  10.165 -0.1410 -0.6678  0.8044
 8100TIP3    H148495   1.520   5.656  10.115 -0.1719 -0.3911  0.9598
 8100TIP3    H248496   1.617   5.544  10.147 -1.3126 -1.1430  1.8993
 8101TIP3   OH248497   3.856   4.552  10.319 -0.2320  0.1404  0.2677
 8101TIP3    H148498   3.825   4.643  10.324  1.0913  0.7490 -1.5552
 8101TIP3    H248499   3.946   4.556  10.353 -0.5531 -0.7454  1.2884
 8102TIP3   OH248500   5.653   2.964  12.866  0.6826 -0.4114 -0.1961
 8102TIP3    H148501   5.610   3.021  12.802  3.2980 -0.3667 -2.0674
 8102TIP3    H248502   5.701   3.024  12.923  0.4727 -0.5941  0.1793
 8103TIP3   OH248503   5.364   4.314  11.006 -0.1854  0.3173 -0.1511
 8103TIP3    H148504   5.273   4.336  11.025 -0.3482 -1.7439  1.9654
 8103TIP3    H248505   5.415   4.372  11.062 -0.1958  1.0893 -0.9241
 8104TIP3   OH248506   0.408   0.248  10.796  0.1195  0.2046  0.8033
 8104TIP3    H148507   0.370   0.312  10.736  1.2269  1.1822  1.1077
 8104TIP3    H248508   0.447   0.182  10.739  1.1071  1.0906  0.4270
 8105TIP3   OH248509   0.979   1.414  10.699  0.4878 -0.2121 -0.4622
 8105TIP3    H148510   0.887   1.439  10.696  0.4043 -0.2641  1.0286
 8105TIP3    H248511   0.996   1.373  10.614 -1.1595 -1.2343 -0.3283
 8106TIP3   OH248512   6.258   6.279  11.386  0.0217  0.3610 -0.2013
 8106TIP3    H148513   6.236   6.365  11.348 -1.0472 -0.4741 -1.5841
 8106TIP3    H248514   6.173   6.240  11.405  0.5211 -0.1319  1.0715
 8107TIP3   OH248515   3.297   1.120   9.617  0.3019  0.3030  0.6221
 8107TIP3    H148516   3.267   1.200   9.573 -0.2988  0.2192  0.8628
 8107TIP3    H248517   3.374   1.092   9.568  0.8921  1.3717  0.9091
 8108TIP3   OH248518   3.550   5.409  12.697  0.0245  0.3646 -0.5607
 8108TIP3    H148519   3.602   5.439  12.772 -0.1608 -1.3790  0.3274
 8108TIP3    H248520   3.537   5.315  12.714 -0.7965  0.1302 -2.3331
 8109TIP3   OH248521   6.417   0.521  10.870  0.0727  0.0384  0.4737
 8109TIP3    H148522   6.491   0.569  10.832 -0.2579 -0.7882 -1.3117
 8109TIP3    H248523   6.439   0.428  10.857 -2.4566 -0.2933 -2.7561
 8110TIP3   OH248524   4.635   4.753  10.534 -0.7902 -0.0389  0.9234
 8110TIP3    H148525   4.551   4.722  10.567 -1.0424  0.4277  0.7325
 8110TIP3    H248526   4.695   4.681  10.551 -1.4607 -0.8331  0.0285
 8111TIP3   OH248527   1.402   1.570  10.250  0.4880  0.0360  0.3851
 8111TIP3    H148528   1.323   1.531  10.212  0.9099  0.0270 -0.4943
 8111TIP3    H248529   1.405   1.659  10.214  2.4415 -0.8823 -1.9960
 8112TIP3   OH248530   1.123   2.362  12.079 -0.7512 -0.1352  0.0770
 8112TIP3    H148531   1.119   2.423  12.005 -0.6034 -1.6054 -1.1893
 8112TIP3    H248532   1.151   2.416  12.152  2.9099  0.7444 -1.7315
 8113TIP3   OH248533   5.859   4.373  12.225 -0.1731 -0.1247 -0.4342
 8113TIP3    H148534   5.934   4.339  12.274  0.5175  0.4668 -1.0524
 8113TIP3    H248535   5.874   4.467  12.220  0.0198 -0.2147 -2.1493
 8114TIP3   OH248536   5.457   6.649   9.310 -0.7718  0.0283 -0.3006
 8114TIP3    H148537   5.486   6.740   9.319  0.5343 -0.4364  0.5479
 8114TIP3    H248538   5.530   6.605   9.267 -2.4129 -0.1545 -3.1706
 8115TIP3   OH248539   1.243   0.585  10.354 -0.5005  0.0625  0.2628
 8115TIP3    H148540   1.234   0.526  10.279 -2.3631  1.4283 -0.6544
 8115TIP3    H248541   1.154   0.612  10.375  0.1559  1.3149  1.6740
 8116TIP3   OH248542   5.802   3.648  10.412  0.2548 -0.3498 -0.2422
 8116TIP3    H148543   5.724   3.691  10.377 -0.0346 -0.9512 -0.3469
 8116TIP3    H248544   5.872   3.714  10.404 -0.2870  0.2686  0.0659
 8117TIP3   OH248545   6.254   2.379  12.526  0.5148  0.1484  0.3029
 8117TIP3    H148546   6.163   2.393  12.551  0.3697  0.8148 -0.5656
 8117TIP3    H248547   6.280   2.460  12.482  1.9171  0.4485  1.6318
 8118TIP3   OH248548   3.355   3.536  12.725 -0.3832 -0.5250  0.4438
 8118TIP3    H148549   3.264   3.523  12.752  0.0045 -1.9384  1.2196
 8118TIP3    H248550   3.352   3.540  12.630 -1.4646  1.5117  0.5074
 8119TIP3   OH248551   5.800   1.073  13.047  0.2730  0.3406 -0.4894
 8119TIP3    H148552   5.828   1.113  12.965  2.2644  0.4799  0.1988
 8119TIP3    H248553   5.874   1.085  13.106  0.1798 -2.5788  0.3799
 8120TIP3   OH248554   1.813   0.031   9.591  0.0402  0.2649 -0.1194
 8120TIP3    H148555   1.784  -0.049   9.635  0.6432  0.4847  0.6919
 8120TIP3    H248556   1.900   0.009   9.557 -0.5841 -0.0412 -1.5938
 8121TIP3   OH248557   6.539   0.318  11.127 -0.0150 -0.0996 -0.3128
 8121TIP3    H148558   6.626   0.358  11.126  0.6017 -1.3247  1.1666
 8121TIP3    H248559   6.502   0.341  11.042  1.9678 -0.0238 -1.2248
 8122TIP3   OH248560   0.700   2.351  20.405 -0.5370 -0.0443  0.1063
 8122TIP3    H148561   0.735   2.269  20.441  0.1961 -0.0046 -0.4897
 8122TIP3    H248562   0.617   2.364  20.452 -0.4061 -0.8473  0.5880
 8123TIP3   OH248563   5.092   5.786  12.214  0.4011 -0.2200  0.0402
 8123TIP3    H148564   5.098   5.705  12.264  0.7649 -0.8479 -1.0084
 8123TIP3    H248565   5.182   5.818  12.209  0.1679  0.7205  1.1635
 8124TIP3   OH248566   1.720   6.329   9.767  0.2145  0.4587 -0.3073
 8124TIP3    H148567   1.720   6.234   9.780 -1.8692  0.0199 -2.8230
 8124TIP3    H248568   1.698   6.364   9.853  0.7054 -1.3210  0.5975
 8125TIP3   OH248569   1.067   5.551  11.076  0.2253  0.1539  0.3209
 8125TIP3    H148570   0.988   5.582  11.119 -1.3138 -2.5058 -0.3624
 8125TIP3    H248571   1.038   5.523  10.989  2.3530  1.0450 -0.7621
 8126TIP3   OH248572   4.978   6.426  12.765  0.2550 -0.0000  0.0834
 8126TIP3    H148573   4.953   6.385  12.848  1.0206 -1.5451 -0.4068
 8126TIP3    H248574   5.074   6.433  12.770  0.2235  0.7702 -0.2953
 8127TIP3   OH248575   0.002   2.988  10.699  0.2101 -0.1344  0.2959
 8127TIP3    H148576  -0.019   2.983  10.793 -2.5181 -0.4389 -0.2511
 8127TIP3    H248577   0.015   3.081  10.682 -0.6222  0.0639  0.7265
 8128TIP3   OH248578   0.857   3.723  12.131  0.4497  0.9349  0.2521
 8128TIP3    H148579   0.918   3.727  12.057  0.8290 -0.0436  0.5014
 8128TIP3    H248580   0.892   3.654  12.187 -1.6343 -0.7026 -0.3082
 8129TIP3   OH248581   5.300   4.700  11.793 -0.8215  0.3203 -0.1084
 8129TIP3    H148582   5.283   4.783  11.750 -2.1230 -0.4761 -1.1950
 8129TIP3    H248583   5.284   4.717  11.886  1.0263  1.7943 -0.0079
 8130TIP3   OH248584   5.096   6.091  10.229 -0.3853 -0.6625  1.2187
 8130TIP3    H148585   5.093   6.097  10.325  1.0056  0.6196  1.2147
 8130TIP3    H248586   5.059   6.173  10.199  1.6511  0.1355  0.7404
 8131TIP3   OH248587   0.082   3.385  11.283  0.3390  0.2065  0.1347
 8131TIP3    H148588   0.019   3.424  11.344 -1.0591  1.9734 -2.2303
 8131TIP3    H248589   0.160   3.441  11.290  0.1932  0.3920  0.2949
 8132TIP3   OH248590   2.554   3.893  10.832  0.5514  0.3646 -0.5300
 8132TIP3    H148591   2.567   3.799  10.847  0.4019  0.8051  3.5336
 8132TIP3    H248592   2.467   3.899  10.793  0.2284 -1.1483 -0.1203
 8133TIP3   OH248593   0.312   2.187  11.073 -0.7498 -0.7156  0.7513
 8133TIP3    H148594   0.290   2.095  11.061 -2.2167 -0.3714  0.5554
 8133TIP3    H248595   0.350   2.214  10.990  0.3399 -1.3005  1.0442
 8134TIP3   OH248596   0.944   1.054  20.651  0.4276  0.1657  0.2085
 8134TIP3    H148597   0.959   1.125  20.714  1.4521 -0.6289  0.8922
 8134TIP3    H248598   1.020   0.996  20.662 -0.5966 -1.2612 -0.0282
 8135TIP3   OH248599   2.395   2.140   9.870  0.1016  0.1283  0.7437
 8135TIP3    H148600   2.383   2.186   9.953  0.6494  1.0773  0.3199
 8135TIP3    H248601   2.490   2.129   9.863 -0.0298 -1.2664  0.9225
 8136TIP3   OH248602   0.506   0.031  10.708 -0.1728 -0.1052 -0.2804
 8136TIP3    H148603   0.589  -0.009  10.680  0.0813  0.4874 -0.4034
 8136TIP3    H248604   0.445  -0.042  10.715  0.1247 -0.4465 -1.0656
 8137TIP3   OH248605   0.441   0.825  11.114  0.2701 -0.3851 -0.0735
 8137TIP3    H148606   0.461   0.841  11.022 -0.4388  0.1978 -0.1392
 8137TIP3    H248607   0.519   0.781  11.149  1.0671  0.5345 -0.6430
 8138TIP3   OH248608   1.959   3.722  11.922  0.5309 -0.0051  0.6729
 8138TIP3    H148609   1.922   3.792  11.868  1.0151 -0.1921  0.0984
 8138TIP3    H248610   1.992   3.766  12.000  2.8877  0.7361 -0.6769
 8139TIP3   OH248611   2.035   6.048  10.552  0.1763  0.5891 -0.1572
 8139TIP3    H148612   2.050   6.097  10.633 -0.2211 -0.0558  0.3097
 8139TIP3    H248613   1.966   5.986  10.573 -0.0871  0.5583 -1.0560
 8140TIP3   OH248614   3.440   4.997  13.328  0.0311 -0.4040  0.2457
 8140TIP3    H148615   3.404   4.960  13.408  0.5569 -2.3611 -0.3698
 8140TIP3    H248616   3.375   4.975  13.261  1.5457 -2.6830 -0.6088
 8141TIP3   OH248617   3.340   5.356  12.548 -0.2603 -0.6375 -0.8251
 8141TIP3    H148618   3.371   5.284  12.493 -0.2240 -1.3096  0.0518
 8141TIP3    H248619   3.413   5.375  12.607 -0.1597  0.3334 -1.2445
 8142TIP3   OH248620   6.321   5.301  10.811 -0.1919  0.4426  0.3434
 8142TIP3    H148621   6.365   5.363  10.869  2.0558 -0.6671 -0.0587
 8142TIP3    H248622   6.348   5.327  10.723  0.5418 -0.8645  0.1491
 8143TIP3   OH248623   3.314   2.974   9.674 -0.2410 -0.0844  0.3754
 8143TIP3    H148624   3.329   3.021   9.756 -3.7784  1.7047  0.1870
 8143TIP3    H248625   3.237   2.921   9.690 -0.2980 -0.6338 -1.4727
 8144TIP3   OH248626   5.646   4.744   9.301 -0.1591 -0.0153  0.3586
 8144TIP3    H148627   5.669   4.665   9.351 -1.7566 -1.4560 -1.0258
 8144TIP3    H248628   5.592   4.795   9.361 -2.4835 -1.9546  0.0831
 8145TIP3   OH248629   5.561   5.955   9.536  0.1804  0.4380 -0.0229
 8145TIP3    H148630   5.485   5.897   9.541  0.5499 -0.2018 -1.2257
 8145TIP3    H248631   5.594   5.960   9.625 -0.5443 -0.2878  0.2994
 8146TIP3   OH248632   5.801   4.086  11.404  0.4517 -0.7871  0.3215
 8146TIP3    H148633   5.795   4.122  11.493  1.0389  0.9537 -0.2998
 8146TIP3    H248634   5.837   4.157  11.352 -0.4628 -1.5629 -1.4548
 8147TIP3   OH248635   5.345   1.372  11.168 -0.5639 -0.5423 -0.3658
 8147TIP3    H148636   5.294   1.296  11.195 -0.4166 -0.3316  0.5723
 8147TIP3    H248637   5.286   1.446  11.183 -1.0342 -0.5310 -2.1411
 8148TIP3   OH248638   1.137   0.085  10.877 -0.4126  0.3563  0.2893
 8148TIP3    H148639   1.181   0.170  10.880 -0.3969  0.3592  2.9505
 8148TIP3    H248640   1.207   0.021  10.867 -0.2152  0.5683  0.3175
 8149TIP3   OH248641   0.037   6.543  10.801  0.1300  0.1729  0.7410
 8149TIP3    H148642   0.061   6.479  10.868  0.3402  0.3091  0.7966
 8149TIP3    H248643   0.001   6.491  10.729  0.1232  0.0077  0.8634
 8150TIP3   OH248644   6.371   3.416  12.421  0.2498  0.2132  0.2656
 8150TIP3    H148645   6.364   3.340  12.479 -2.7476  0.7985  0.8504
 8150TIP3    H248646   6.365   3.379  12.333  0.1976 -0.3484  0.5002
 8151TIP3   OH248647   2.049   6.288   9.515  0.0155 -0.1571 -0.3224
 8151TIP3    H148648   2.031   6.369   9.563 -1.2839  0.4695 -1.7688
 8151TIP3    H248649   2.134   6.303   9.473  1.3661 -0.8671  1.9876
 8152TIP3   OH248650   1.313   1.193  11.487  0.0339  0.0647  0.2102
 8152TIP3    H148651   1.292   1.149  11.570 -0.7841  0.3343  0.1588
 8152TIP3    H248652   1.322   1.121  11.424 -0.1623 -0.0994  0.3656
 8153TIP3   OH248653   6.487   6.555  11.133  0.1368  0.9244 -0.0872
 8153TIP3    H148654   6.481   6.464  11.162 -2.2914  1.5714  1.6775
 8153TIP3    H248655   6.581   6.576  11.140  0.6757 -1.2655 -0.1072
 8154TIP3   OH248656   1.356   6.347  10.376  0.1031 -0.2563  0.1738
 8154TIP3    H148657   1.392   6.328  10.289 -3.1284 -1.9513 -0.9453
 8154TIP3    H248658   1.350   6.443  10.378  2.4943 -0.0109 -0.3810
 8155TIP3   OH248659   0.838   1.972  10.867  0.1075 -0.3651  0.8163
 8155TIP3    H148660   0.790   1.952  10.948 -0.2817  0.4761  0.7981
 8155TIP3    H248661   0.913   2.025  10.896  0.6184 -1.0260  0.7503
 8156TIP3   OH248662   0.383   0.100  11.277  0.3657 -0.2378 -0.0769
 8156TIP3    H148663   0.437   0.083  11.354  0.4306  1.6883  0.3414
 8156TIP3    H248664   0.420   0.042  11.209  0.2146 -2.0601  1.3299
 8157TIP3   OH248665   6.550   3.746  10.669  0.1626  0.6123  0.4372
 8157TIP3    H148666   6.526   3.775  10.581  0.5319  1.8340  0.7199
 8157TIP3    H248667   6.623   3.685  10.654 -0.1629  0.3521 -0.1339
 8158TIP3   OH248668   0.554   4.436  13.074 -0.0557 -0.3674 -0.4750
 8158TIP3    H148669   0.638   4.446  13.029  0.2353 -0.5106  0.0263
 8158TIP3    H248670   0.569   4.364  13.135 -0.2535  0.2205  0.2789
 8159TIP3   OH248671   4.153   0.703  10.949 -0.0879  0.1874 -0.0877
 8159TIP3    H148672   4.131   0.767  11.017  2.7283  1.5988 -0.3825
 8159TIP3    H248673   4.199   0.753  10.882  1.5018 -1.9864 -0.7408
 8160TIP3   OH248674   6.570   2.942  10.431  0.1440 -0.7546 -0.5830
 8160TIP3    H148675   6.597   2.968  10.520  0.4622 -2.0860 -0.2755
 8160TIP3    H248676   6.525   3.019  10.397  0.0360 -0.2103  0.7250
 8161TIP3   OH248677   5.527   2.213  10.970  0.3727  0.0318 -0.2359
 8161TIP3    H148678   5.567   2.286  11.018  0.4332 -1.2817  1.8848
 8161TIP3    H248679   5.543   2.232  10.878  2.8802  1.2974  0.3683
 8162TIP3   OH248680   6.311   0.052  11.567 -0.1602  0.3221 -0.3649
 8162TIP3    H148681   6.246   0.066  11.635 -0.4013  0.6948 -0.6736
 8162TIP3    H248682   6.297   0.122  11.504  0.0434 -0.0367 -0.8194
 8163TIP3   OH248683   2.640   1.644  11.570 -0.1100 -0.8847 -0.6938
 8163TIP3    H148684   2.699   1.576  11.538  0.4953 -0.1613 -1.1407
 8163TIP3    H248685   2.649   1.715  11.507 -0.9865 -0.5103 -0.4176
 8164TIP3   OH248686   0.390   0.730  11.366  0.1375 -0.4868  0.4986
 8164TIP3    H148687   0.397   0.817  11.325  0.6426 -0.9667 -0.4639
 8164TIP3    H248688   0.322   0.685  11.316  1.3846 -1.3976 -0.4599
 8165TIP3   OH248689   1.685   1.807   9.779 -0.3873 -0.1757  0.4896
 8165TIP3    H148690   1.633   1.772   9.851 -1.2516 -1.7885 -0.8581
 8165TIP3    H248691   1.712   1.731   9.729  0.8837  0.8525 -0.4607
 8166TIP3   OH248692   0.823   6.209  10.955 -0.8046 -0.1739  0.5077
 8166TIP3    H148693   0.764   6.272  10.997 -1.1229  0.0000 -0.1776
 8166TIP3    H248694   0.810   6.223  10.861 -1.4895 -1.8174  0.3203
 8167TIP3   OH248695   0.269   6.643   9.801 -0.4855 -0.7445 -0.0615
 8167TIP3    H148696   0.352   6.673   9.764 -0.7411  0.3651  0.2169
 8167TIP3    H248697   0.237   6.578   9.738  0.5140 -1.0662 -0.2501
 8168TIP3   OH248698   0.160   4.514  11.176 -0.3193 -0.2684  0.8099
 8168TIP3    H148699   0.065   4.506  11.172 -0.3968  0.0616  1.7541
 8168TIP3    H248700   0.178   4.605  11.153 -0.0161 -0.9168 -1.8969
 8169TIP3   OH248701   1.270   2.198  11.144 -0.3759 -0.2126 -0.8101
 8169TIP3    H148702   1.350   2.219  11.095  0.5547 -2.2411 -0.2714
 8169TIP3    H248703   1.226   2.282  11.154  1.6168  0.9689 -1.2622
 8170TIP3   OH248704   3.606   2.050  10.645 -0.9396 -0.0647 -0.0086
 8170TIP3    H148705   3.524   2.098  10.653 -0.8508  0.0858  0.0090
 8170TIP3    H248706   3.656   2.076  10.723  0.1499  1.8167 -1.2542
 8171TIP3   OH248707   1.210   4.635  10.913 -0.0550  0.1819 -0.1144
 8171TIP3    H148708   1.249   4.722  10.911  1.0076 -0.2823 -2.7281
 8171TIP3    H248709   1.161   4.628  10.831  0.0445 -1.7414 -0.0567
 8172TIP3   OH248710   3.421   1.509  10.938 -0.6046  0.3861  0.0788
 8172TIP3    H148711   3.455   1.427  10.972 -0.0982  0.6404  0.1928
 8172TIP3    H248712   3.360   1.483  10.869  2.1370 -0.0545 -2.3693
 8173TIP3   OH248713   3.631   6.687   9.975 -0.2846  0.2021 -0.0266
 8173TIP3    H148714   3.572   6.742   9.923  0.5625  1.0329 -0.1336
 8173TIP3    H248715   3.580   6.663  10.052 -1.3876 -0.6341 -0.9817
 8174TIP3   OH248716   6.464   3.146  10.262  0.3819  0.4104 -0.3152
 8174TIP3    H148717   6.444   3.219  10.204  1.0812  0.8802  0.0253
 8174TIP3    H248718   6.550   3.117  10.235  0.3777  0.1234 -0.0290
 8175TIP3   OH248719   4.339   4.046  10.802  0.0428  0.4360  0.1918
 8175TIP3    H148720   4.276   3.984  10.840  0.1560  0.2453  0.0652
 8175TIP3    H248721   4.300   4.072  10.718 -0.0187  0.5606  0.2574
 8176TIP3   OH248722   1.320   6.179  10.603  0.2001 -0.3326  0.4906
 8176TIP3    H148723   1.371   6.208  10.680  0.0002 -1.2221  0.9702
 8176TIP3    H248724   1.333   6.249  10.539  2.1764 -0.6082  0.5272
 8177TIP3   OH248725   3.102   4.172  10.893  0.3774 -0.2462 -0.1740
 8177TIP3    H148726   3.060   4.151  10.810  0.8319 -0.5775 -0.3280
 8177TIP3    H248727   3.196   4.174  10.872  0.4878 -0.2268  0.3089
 8178TIP3   OH248728   3.992   1.336  10.804 -0.5424  0.2779 -0.2266
 8178TIP3    H148729   4.054   1.392  10.759 -0.1116  0.7416  0.8972
 8178TIP3    H248730   3.908   1.352  10.760  0.4248 -1.9193 -3.1537
 8179TIP3   OH248731   3.944   5.450   9.321  0.4074 -0.7114 -0.2161
 8179TIP3    H148732   3.875   5.419   9.264  0.0342 -0.1529 -0.0782
 8179TIP3    H248733   3.939   5.394   9.399  1.7941 -2.3735 -1.2543
 8180TIP3   OH248734   2.517   0.964  10.094  0.1277  0.6502 -0.5084
 8180TIP3    H148735   2.489   1.055  10.086  1.5900  1.1239 -0.4043
 8180TIP3    H248736   2.445   0.914  10.055 -0.1920  1.9117 -1.6135
 8181TIP3   OH248737   6.420   4.818  10.897  0.1152  0.4390 -0.5457
 8181TIP3    H148738   6.463   4.751  10.844 -0.3204 -0.5435  0.2988
 8181TIP3    H248739   6.326   4.799  10.888 -0.0621  1.4804 -0.9883
 8182TIP3   OH248740   5.296   4.935  11.660 -0.2051 -0.1219  0.0801
 8182TIP3    H148741   5.250   5.016  11.682 -0.5462 -0.1039 -0.6599
 8182TIP3    H248742   5.387   4.963  11.646 -0.5224  0.3520 -1.2673
 8183TIP3   OH248743   2.954   5.989   9.950  0.2510  0.3778  0.0847
 8183TIP3    H148744   3.033   5.991   9.897 -0.3934 -1.8340 -1.0730
 8183TIP3    H248745   2.884   6.013   9.889 -0.5639 -2.6529 -0.3455
 8184TIP3   OH248746   4.464   0.206  10.150  0.0740 -0.0456 -0.2454
 8184TIP3    H148747   4.382   0.252  10.132 -0.1135 -0.5961 -0.8043
 8184TIP3    H248748   4.529   0.276  10.158 -0.3081  0.3501 -0.5352
 8185TIP3   OH248749   2.756   5.962  10.154 -0.2107 -0.2638 -0.4533
 8185TIP3    H148750   2.825   5.982  10.091 -0.7560  0.9161 -0.7121
 8185TIP3    H248751   2.792   5.987  10.239 -0.1320 -0.1079 -0.5316
 8186TIP3   OH248752   4.090   4.064  11.650 -0.3990  0.1424  0.2773
 8186TIP3    H148753   4.165   4.064  11.589 -0.8487 -0.9140 -0.3017
 8186TIP3    H248754   4.030   4.129  11.613  0.1095  0.8147  0.6072
 8187TIP3   OH248755   5.875   2.752  10.336  0.1654  0.2630 -0.0167
 8187TIP3    H148756   5.822   2.704  10.272  0.3633 -1.4060  1.0106
 8187TIP3    H248757   5.814   2.776  10.406  0.2028  0.9521 -0.2115
 8188TIP3   OH248758   6.478   5.493  10.917 -0.2158  0.2600  0.6350
 8188TIP3    H148759   6.564   5.468  10.950 -0.3553 -0.9651  0.1267
 8188TIP3    H248760   6.453   5.569  10.970  0.9310  0.2888  1.1592
 8189TIP3   OH248761   4.248   2.250  11.276 -0.5250 -0.4870  0.0733
 8189TIP3    H148762   4.315   2.271  11.211 -0.0238 -0.1548  0.6983
 8189TIP3    H248763   4.219   2.335  11.310  0.8565 -0.7116  1.9431
 8190TIP3   OH248764   3.119   0.569  10.988  0.1735 -0.9041 -0.4017
 8190TIP3    H148765   3.052   0.597  10.926 -0.4173  2.5654  1.5628
 8190TIP3    H248766   3.070   0.537  11.064  0.7272  0.1627  0.4285
 8191TIP3   OH248767   1.652   5.232  10.344  0.0002  0.5249  0.1760
 8191TIP3    H148768   1.615   5.320  10.340 -0.5875  0.3704  1.4070
 8191TIP3    H248769   1.745   5.245  10.358  0.6251  0.9322 -3.5329
 8192TIP3   OH248770   4.098   6.064  13.437 -0.2481  0.2015  0.3108
 8192TIP3    H148771   4.096   6.150  13.395 -2.6174  0.3309  0.5711
 8192TIP3    H248772   4.181   6.025  13.408 -0.4019  1.4592 -2.0504
 8193TIP3   OH248773   5.639   0.605   9.848 -0.3540  0.2071  0.2785
 8193TIP3    H148774   5.614   0.689   9.809 -0.8879 -0.8547 -1.7914
 8193TIP3    H248775   5.724   0.622   9.888 -0.1406  1.5826 -0.6840
 8194TIP3   OH248776   1.873   2.880  11.002 -0.4676 -0.7341 -0.1448
 8194TIP3    H148777   1.944   2.819  11.022  0.1464  0.4169  1.4829
 8194TIP3    H248778   1.896   2.918  10.917  1.2427  0.0496  0.6137
 8195TIP3   OH248779   1.549   0.183  13.718  0.2273  0.0139 -0.4785
 8195TIP3    H148780   1.636   0.145  13.731  0.2135  0.2471  0.3379
 8195TIP3    H248781   1.494   0.109  13.695  0.8913  0.0408 -2.3079
 8196TIP3   OH248782   2.235   4.490  10.479 -0.7209  0.0495  0.6682
 8196TIP3    H148783   2.245   4.498  10.384  2.5436 -1.2965  0.7904
 8196TIP3    H248784   2.162   4.428  10.490  0.1414 -1.3384 -1.0467
 8197TIP3   OH248785   2.060   3.225   9.926 -0.4677 -0.0701  0.1339
 8197TIP3    H148786   2.101   3.170   9.859 -0.1534  1.1854 -0.7353
 8197TIP3    H248787   2.113   3.211  10.004  1.1507  0.8776 -0.7359
 8198TIP3   OH248788   6.159   2.811  10.338  0.3077  0.3722  0.1328
 8198TIP3    H148789   6.184   2.846  10.423  0.4986 -0.9069  0.6339
 8198TIP3    H248790   6.064   2.796  10.345  0.1965  0.9277 -0.1378
 8199TIP3   OH248791   3.332   5.212  11.077 -0.4957 -0.4647  0.0591
 8199TIP3    H148792   3.341   5.151  11.151 -0.4394 -0.6396 -0.0908
 8199TIP3    H248793   3.291   5.160  11.008  1.3914 -0.9388 -0.7785
 8200TIP3   OH248794   2.683   2.529  11.293 -0.4285  0.2141 -0.2713
 8200TIP3    H148795   2.734   2.601  11.257  1.0159 -0.6574 -0.0549
 8200TIP3    H248796   2.600   2.569  11.320  0.3900  1.8109 -0.0226
 8201TIP3   OH248797   3.089   2.470  10.069 -0.1249 -0.4527 -0.2612
 8201TIP3    H148798   3.042   2.498   9.990 -0.1032 -0.6615 -0.3490
 8201TIP3    H248799   3.131   2.388  10.044  0.7078 -0.0095 -0.3444
 8202TIP3   OH248800   6.609   0.804  11.530  0.1811  0.3074  0.1952
 8202TIP3    H148801   6.689   0.808  11.581 -0.7127  1.7546  1.5748
 8202TIP3    H248802   6.581   0.895  11.521 -1.9203 -0.2234  0.7862
 8203TIP3   OH248803   1.165   1.591   9.963  0.2379 -0.3018 -0.0448
 8203TIP3    H148804   1.121   1.507   9.951  0.3466 -0.3422 -0.1554
 8203TIP3    H248805   1.097   1.656   9.945  0.0922 -0.3661  0.2643
 8204TIP3   OH248806   2.230   2.797  11.863  0.0520 -0.1872  0.1666
 8204TIP3    H148807   2.185   2.879  11.839  0.0526  0.2045  1.4387
 8204TIP3    H248808   2.184   2.730  11.813 -0.2982  0.5215 -0.4925
 8205TIP3   OH248809   5.934   4.253   9.713 -0.3732 -0.1724 -0.2510
 8205TIP3    H148810   6.028   4.253   9.728 -0.7826 -0.2870  2.9396
 8205TIP3    H248811   5.915   4.166   9.678  0.6163 -0.3457 -0.3921
 8206TIP3   OH248812   1.546   4.513  11.328 -0.3570  0.1395 -0.1446
 8206TIP3    H148813   1.469   4.495  11.274 -2.0759 -0.1441  2.2194
 8206TIP3    H248814   1.587   4.590  11.288 -0.3929 -1.1416 -2.8770
 8207TIP3   OH248815   2.186   1.616  11.172  0.1927 -0.2113 -0.2094
 8207TIP3    H148816   2.239   1.671  11.229  0.0507 -0.2036 -0.0848
 8207TIP3    H248817   2.203   1.650  11.084 -0.4720  0.5294 -0.0710
 8208TIP3   OH248818   4.207   2.599  12.432  0.6929 -0.5261 -0.0626
 8208TIP3    H148819   4.255   2.682  12.439 -0.6340  0.1795  1.1941
 8208TIP3    H248820   4.126   2.622  12.386 -0.1479 -0.8901  1.1982
 8209TIP3   OH248821   2.432   1.872   9.738 -0.3223 -0.1887 -0.3922
 8209TIP3    H148822   2.347   1.856   9.778  0.1738 -0.1245  0.7246
 8209TIP3    H248823   2.494   1.823   9.792  0.4875  0.6772 -0.5034
 8210TIP3   OH248824   2.310   0.470  11.263 -0.0192  0.6756 -0.3553
 8210TIP3    H148825   2.304   0.550  11.315 -0.8009  0.0213  0.6063
 8210TIP3    H248826   2.219   0.445  11.247  0.2060 -0.1411 -0.4318
 8211TIP3   OH248827   4.845   0.784  10.907  0.6081 -0.0279 -0.1625
 8211TIP3    H148828   4.936   0.754  10.911  0.4742 -0.5211 -0.7413
 8211TIP3    H248829   4.793   0.709  10.934  0.3599  0.2356  0.1138
 8212TIP3   OH248830   5.789   4.307  11.639  0.0896  0.1152 -0.1859
 8212TIP3    H148831   5.802   4.368  11.711 -1.1143  0.2187 -0.0415
 8212TIP3    H248832   5.730   4.240  11.673 -1.6169  0.9054 -1.4580
 8213TIP3   OH248833   1.383   1.408  11.797 -0.7736  0.1557  0.1954
 8213TIP3    H148834   1.460   1.414  11.741 -0.6611 -0.3699  0.2929
 8213TIP3    H248835   1.417   1.410  11.886 -1.0899  3.5496  0.3738
 8214TIP3   OH248836   2.448   1.230  12.007 -0.3876  0.2787 -0.2401
 8214TIP3    H148837   2.367   1.238  11.957 -0.7919 -0.8847  0.1905
 8214TIP3    H248838   2.441   1.297  12.076 -0.2730  1.2088 -1.1121
 8215TIP3   OH248839   2.218   1.237  11.852  0.3090 -0.6856  0.3370
 8215TIP3    H148840   2.145   1.176  11.847 -0.3075  0.0751 -0.1608
 8215TIP3    H248841   2.193   1.309  11.795  1.7428 -0.7106 -0.3603
 8216TIP3   OH248842   1.921   0.608  12.868  0.0377  0.4475  0.6349
 8216TIP3    H148843   1.852   0.675  12.871  0.0831  0.4773  1.1224
 8216TIP3    H248844   1.913   0.562  12.952  1.7927  1.6334  1.5001
 8217TIP3   OH248845   5.517   6.582   9.633 -0.3108  0.2255  0.2959
 8217TIP3    H148846   5.452   6.640   9.672 -0.4394  2.2411 -2.5626
 8217TIP3    H248847   5.466   6.525   9.575  0.2207  0.3599 -0.3194
 8218TIP3   OH248848   4.418   5.786  12.180 -0.1097  0.2053 -0.4511
 8218TIP3    H148849   4.470   5.856  12.220 -0.9224 -0.0459  1.1246
 8218TIP3    H248850   4.350   5.833  12.130 -0.0282  0.5426 -0.2510
 8219TIP3   OH248851   0.733   5.311  10.901 -0.3568  0.4366 -0.2956
 8219TIP3    H148852   0.773   5.398  10.900 -1.3361  0.9482  1.3095
 8219TIP3    H248853   0.796   5.255  10.856 -0.0929  2.1168 -2.1614
 8220TIP3   OH248854   2.337   4.766   9.949  0.1438 -0.2510  0.3063
 8220TIP3    H148855   2.426   4.731   9.942 -0.6553 -2.2565 -0.9702
 8220TIP3    H248856   2.323   4.813   9.867 -0.2189 -0.6432  0.1368
 8221TIP3   OH248857   6.290   1.477  11.566 -0.3718 -0.1763  0.4808
 8221TIP3    H148858   6.281   1.538  11.638 -0.7874 -0.5147  0.7188
 8221TIP3    H248859   6.266   1.392  11.603 -1.4851 -0.2164 -0.2834
 8222TIP3   OH248860   4.958   4.007  10.682 -0.0004 -0.5922  0.0622
 8222TIP3    H148861   4.945   3.981  10.774  0.5534  0.0400  0.3325
 8222TIP3    H248862   5.024   3.947  10.649  0.7754  0.0022  0.4833
 8223TIP3   OH248863   6.335   0.463  13.007  0.0746  0.0446  0.2301
 8223TIP3    H148864   6.242   0.444  13.020 -0.4691  0.8635 -2.1193
 8223TIP3    H248865   6.380   0.391  13.052 -1.7003 -0.9370  0.5352
 8224TIP3   OH248866   1.433   3.011  10.054  0.1595 -0.5900 -0.1787
 8224TIP3    H148867   1.453   3.080   9.990  0.4105  1.5450  2.0331
 8224TIP3    H248868   1.345   3.032  10.085  0.5660 -0.6913  1.1279
 8225TIP3   OH248869   5.911   3.403  10.362 -0.4634 -0.2030 -0.4842
 8225TIP3    H148870   5.918   3.375  10.453  2.1678  0.5413 -0.3565
 8225TIP3    H248871   5.874   3.492  10.367 -1.7445 -0.7219 -0.3090
 8226TIP3   OH248872   6.205   1.125   9.695  0.3415  0.0205 -0.1089
 8226TIP3    H148873   6.191   1.107   9.602 -2.0678 -2.4114  0.5876
 8226TIP3    H248874   6.160   1.209   9.710  0.2939  0.1691 -1.0088
 8227TIP3   OH248875   5.646   1.579  11.627 -0.2259  0.5778  0.5360
 8227TIP3    H148876   5.700   1.656  11.608 -0.3398  0.3775 -0.6945
 8227TIP3    H248877   5.622   1.545  11.541 -0.5198 -0.6028  1.0606
 8228TIP3   OH248878   5.196   0.322  11.775  0.1575 -0.6028  0.1340
 8228TIP3    H148879   5.101   0.329  11.786  0.2142 -0.0409  0.2670
 8228TIP3    H248880   5.231   0.403  11.811  0.7633 -1.1876  0.9076
 8229TIP3   OH248881   2.209   0.417  10.233 -0.5335  0.1721 -0.2299
 8229TIP3    H148882   2.251   0.411  10.318 -1.7579 -0.9924  0.3215
 8229TIP3    H248883   2.182   0.509  10.226 -2.9598 -0.2824  1.9394
 8230TIP3   OH248884   4.793   5.152  10.736 -0.2521 -0.0822 -0.3910
 8230TIP3    H148885   4.831   5.219  10.679 -2.7765  0.1610 -1.9621
 8230TIP3    H248886   4.819   5.069  10.697  0.7810  0.0108  0.0800
 8231TIP3   OH248887   0.431   0.061  11.543 -0.2319  0.2120  0.3063
 8231TIP3    H148888   0.348   0.103  11.519 -1.4927 -0.0434  3.6276
 8231TIP3    H248889   0.440   0.079  11.637  2.6274 -1.2705  0.4207
 8232TIP3   OH248890   3.381   0.782  11.699  0.2868  0.5265  0.0581
 8232TIP3    H148891   3.346   0.867  11.727  0.5433  0.5391  0.3513
 8232TIP3    H248892   3.304   0.727  11.688 -0.0133  1.1890 -1.5231
 8233TIP3   OH248893   1.581   0.717   9.971  0.0700 -0.1363 -0.2269
 8233TIP3    H148894   1.569   0.785  10.037 -1.1745  0.3220 -0.8786
 8233TIP3    H248895   1.644   0.657  10.009  0.8969  1.1667  0.5409
 8234TIP3   OH248896   5.401   0.659  10.982 -0.5416 -0.4990 -0.2069
 8234TIP3    H148897   5.358   0.598  11.043 -1.3690 -0.9308 -1.1970
 8234TIP3    H248898   5.351   0.651  10.901  1.4951 -1.1021 -1.4622
 8235TIP3   OH248899   2.479   1.496  11.299  0.3396  0.1427 -0.7093
 8235TIP3    H148900   2.433   1.574  11.330 -1.2666 -0.9778 -0.1376
 8235TIP3    H248901   2.529   1.526  11.224  1.8196  2.2662  1.0136
 8236TIP3   OH248902   3.238   3.077   9.425 -0.1592  0.2674  0.4057
 8236TIP3    H148903   3.275   3.013   9.364  0.7530  1.8133 -0.7245
 8236TIP3    H248904   3.275   3.052   9.510  0.1460 -0.7126  0.0044
 8237TIP3   OH248905   5.753   4.814  12.302  0.3171  0.5640 -0.0303
 8237TIP3    H148906   5.682   4.754  12.325  0.1255  0.9193  0.3132
 8237TIP3    H248907   5.803   4.824  12.384  1.3359 -0.4418 -0.4993
 8238TIP3   OH248908   0.113   0.164  12.075 -0.3715  0.1153  0.1260
 8238TIP3    H148909   0.208   0.165  12.085 -0.3520 -1.2420  0.3433
 8238TIP3    H248910   0.095   0.235  12.014  0.9254 -0.3898 -0.9148
 8239TIP3   OH248911   4.919   5.692  11.438 -0.2831 -0.2540  0.1859
 8239TIP3    H148912   4.934   5.776  11.395  1.2383 -0.9379 -0.6874
 8239TIP3    H248913   4.827   5.694  11.463 -0.8362  0.7776 -1.7921
 8240TIP3   OH248914   0.720   0.621   9.822  0.6123  0.2549  0.3752
 8240TIP3    H148915   0.641   0.566   9.817 -0.0113  1.0518  1.2053
 8240TIP3    H248916   0.755   0.605   9.909  0.4115  1.1814  0.6332
 8241TIP3   OH248917   4.318   6.583  10.802 -0.3394 -0.0593 -0.3785
 8241TIP3    H148918   4.280   6.652  10.856  0.4833 -0.2592  0.4788
 8241TIP3    H248919   4.290   6.604  10.713 -1.5484  0.3909  0.0911
 8242TIP3   OH248920   3.725   2.485  11.033 -0.0670  0.1446 -0.4023
 8242TIP3    H148921   3.733   2.486  11.128 -3.2585  0.8701 -0.0383
 8242TIP3    H248922   3.756   2.571  11.006  0.4900  0.0772 -0.0065
 8243TIP3   OH248923   1.272   4.708  10.551 -0.0001 -0.1584 -0.6567
 8243TIP3    H148924   1.353   4.713  10.501  0.1124  0.3274 -0.4402
 8243TIP3    H248925   1.297   4.664  10.632  0.5906  1.9602  0.3972
 8244TIP3   OH248926   0.769   4.906  11.685  0.4201 -0.0236 -0.1900
 8244TIP3    H148927   0.706   4.957  11.635  0.4709 -1.8655 -2.2873
 8244TIP3    H248928   0.766   4.944  11.773 -2.8144  0.6686 -0.4738
 8245TIP3   OH248929   6.325   0.244  10.919 -0.2237  0.1222  0.0472
 8245TIP3    H148930   6.265   0.193  10.865 -0.6624  0.2534  0.4085
 8245TIP3    H248931   6.389   0.180  10.950 -0.9613 -0.2856  0.7740
 8246TIP3   OH248932   3.292   4.394  11.779  0.2281 -0.6604 -0.3827
 8246TIP3    H148933   3.363   4.398  11.715  1.4396 -0.0758  0.9178
 8246TIP3    H248934   3.296   4.479  11.823  1.3553 -2.0079  2.3692
 8247TIP3   OH248935   3.378   1.171   9.883 -0.2198 -0.0129 -0.2255
 8247TIP3    H148936   3.418   1.258   9.885 -1.9044  0.7953  1.6480
 8247TIP3    H248937   3.341   1.164   9.795  0.3913  0.9581 -0.5761
 8248TIP3   OH248938   4.461   1.069  11.991  0.5133  0.4162  0.0159
 8248TIP3    H148939   4.519   1.024  12.052  0.4653  0.1638 -0.1238
 8248TIP3    H248940   4.391   1.104  12.047  0.9474  0.9806  0.2242
 8249TIP3   OH248941   2.403   6.160  10.661  0.0227 -0.2097 -0.1097
 8249TIP3    H148942   2.459   6.223  10.705 -0.2214 -0.0993  0.0484
 8249TIP3    H248943   2.328   6.149  10.720 -0.6933  0.5259 -0.8476
 8250TIP3   OH248944   2.782   4.954  10.355 -0.1467  0.0540  0.0461
 8250TIP3    H148945   2.742   5.040  10.341  0.4950  0.2995 -0.3132
 8250TIP3    H248946   2.730   4.894  10.300 -0.8120  0.1361  0.5620
 8251TIP3   OH248947   3.258   5.567  11.687 -0.3405 -0.3239  0.5011
 8251TIP3    H148948   3.203   5.547  11.611 -2.0369 -1.2707  1.9298
 8251TIP3    H248949   3.227   5.652  11.717  0.8491  0.4156 -0.2622
 8252TIP3   OH248950   0.521   0.661  10.078 -0.1497 -0.4427  0.1491
 8252TIP3    H148951   0.537   0.702  10.163 -1.1863 -0.7272  0.4953
 8252TIP3    H248952   0.536   0.731  10.014 -1.3583  0.3508  0.6973
 8253TIP3   OH248953   1.096   2.747  10.091  0.5329 -0.1792 -0.1832
 8253TIP3    H148954   1.113   2.713  10.004 -0.4527 -0.9412 -0.1001
 8253TIP3    H248955   1.007   2.717  10.112  0.7148  0.0566  1.0425
 8254TIP3   OH248956   3.962   1.273  12.158  0.1498 -0.0034 -0.6566
 8254TIP3    H148957   4.019   1.293  12.084  1.8919  2.0862  1.0845
 8254TIP3    H248958   4.016   1.219  12.216 -0.3515  0.2732  0.0829
 8255TIP3   OH248959   5.104   0.766  12.071 -0.0701  0.3557 -0.1159
 8255TIP3    H148960   5.113   0.738  12.162 -1.5386 -1.2676 -0.4100
 8255TIP3    H248961   5.191   0.798  12.046  0.5515  0.0982  1.6044
 8256TIP3   OH248962   5.175   4.549  10.328 -0.1707  0.1212 -0.3274
 8256TIP3    H148963   5.269   4.563  10.337  0.3589 -2.0751 -1.7479
 8256TIP3    H248964   5.153   4.591  10.244 -0.1293 -0.6787 -0.7464
 8257TIP3   OH248965   4.285   4.740  11.732 -0.0031 -0.2997 -0.8194
 8257TIP3    H148966   4.227   4.675  11.771 -0.4768  0.8850  0.5626
 8257TIP3    H248967   4.351   4.689  11.685 -0.8256 -1.7303 -0.4821
 8258TIP3   OH248968   3.073   6.077  10.223  0.2114 -0.1299  0.1074
 8258TIP3    H148969   3.046   6.153  10.274  0.0609 -0.5204  0.6225
 8258TIP3    H248970   3.097   6.112  10.137  3.2627  0.9876  1.2604
 8259TIP3   OH248971   1.110   1.402  11.729 -0.1184 -0.2832 -0.2867
 8259TIP3    H148972   1.085   1.310  11.717  1.8862 -0.9546  0.3362
 8259TIP3    H248973   1.205   1.403  11.716 -0.0261  1.6061  0.2858
 8260TIP3   OH248974   5.549   1.317  11.680  0.2928  0.1492 -0.2646
 8260TIP3    H148975   5.563   1.412  11.673  1.5592 -0.0519 -0.6868
 8260TIP3    H248976   5.627   1.285  11.725 -0.0452 -0.7144 -0.2879
 8261TIP3   OH248977   3.649   3.336  10.322 -0.2115  0.7290 -0.2940
 8261TIP3    H148978   3.678   3.420  10.286 -0.4868  0.6190 -0.7922
 8261TIP3    H248979   3.728   3.284  10.327 -0.0942  0.9041 -0.3106
 8262TIP3   OH248980   1.311   1.182   9.561 -0.2970  0.2239  0.6079
 8262TIP3    H148981   1.393   1.202   9.515 -0.7686 -0.8177 -0.7756
 8262TIP3    H248982   1.338   1.147   9.645  0.6314  1.4379  0.8419
 8263TIP3   OH248983   5.524   1.361  12.650  0.3259 -0.4156  0.6536
 8263TIP3    H148984   5.566   1.279  12.624  0.5406 -0.4382  1.0543
 8263TIP3    H248985   5.593   1.427  12.641 -0.0854 -0.1317 -0.4765
 8264TIP3   OH248986   5.239   3.083  10.117 -0.0920 -0.1248  0.0812
 8264TIP3    H148987   5.321   3.082  10.068 -0.7134 -1.4433 -0.9988
 8264TIP3    H248988   5.207   2.993  10.112 -1.0818  0.1184  1.4012
 8265TIP3   OH248989   4.751   0.426  10.297  0.0693 -1.0182 -0.4781
 8265TIP3    H148990   4.837   0.397  10.328  0.0654 -2.5959 -1.8026
 8265TIP3    H248991   4.766   0.452  10.206 -0.9353 -1.7526 -0.8657
 8266TIP3   OH248992   0.609   5.586  12.686  0.0328 -0.4792 -0.7143
 8266TIP3    H148993   0.654   5.664  12.652 -0.7725  0.3733  0.1403
 8266TIP3    H248994   0.672   5.547  12.746 -0.2526  0.5986  0.3208
 8267TIP3   OH248995   6.536   4.860  12.006  0.6578  0.7886 -0.0794
 8267TIP3    H148996   6.609   4.815  11.965 -1.2604 -0.7923 -1.9960
 8267TIP3    H248997   6.483   4.791  12.046 -1.7269  1.3437 -2.0311
 8268TIP3   OH248998   2.737   1.978  11.645 -0.3293  0.5655 -0.0702
 8268TIP3    H148999   2.733   1.928  11.564 -0.2197  0.6084 -0.1029
 8268TIP3    H249000   2.819   2.027  11.638  1.1417 -1.5190  1.2679
 8269TIP3   OH249001   1.229   4.876   9.503 -0.3670 -0.1101  0.0764
 8269TIP3    H149002   1.315   4.917   9.514 -0.2145 -0.6088  0.7648
 8269TIP3    H249003   1.247   4.793   9.460 -0.4227 -0.5586  0.9068
 8270TIP3   OH249004   2.509   4.318  11.660 -0.6461 -0.0295  0.1268
 8270TIP3    H149005   2.418   4.346  11.652 -0.1436  1.4774 -0.5343
 8270TIP3    H249006   2.547   4.335  11.574  1.1517  2.7388  1.3233
 8271TIP3   OH249007   3.737   3.395  13.044  0.1524  0.3055  0.0596
 8271TIP3    H149008   3.679   3.424  12.973 -1.4533 -0.5427  0.9533
 8271TIP3    H249009   3.697   3.433  13.123  2.0570  1.4640  0.5130
 8272TIP3   OH249010   1.634   4.310  11.922 -0.5201 -0.8821 -0.1331
 8272TIP3    H149011   1.602   4.384  11.870 -1.1705 -1.0283  0.0495
 8272TIP3    H249012   1.674   4.350  11.999 -1.1080 -0.7300  0.0949
 8273TIP3   OH249013   1.647   4.728  11.212  0.7007 -0.0682 -0.3165
 8273TIP3    H149014   1.584   4.716  11.140  1.2612  0.2449 -0.8771
 8273TIP3    H249015   1.725   4.763  11.169  1.1437 -0.1358  0.4173
 8274TIP3   OH249016   3.665   0.772  10.245 -0.8560 -0.3968 -0.1454
 8274TIP3    H149017   3.576   0.751  10.215 -1.3810 -0.9058  1.6387
 8274TIP3    H249018   3.655   0.790  10.339  0.2665  3.6372 -0.6003
 8275TIP3   OH249019   2.730   6.488  11.887  0.4311 -0.4878  0.5986
 8275TIP3    H149020   2.658   6.549  11.903 -0.3430 -0.4694 -2.2873
 8275TIP3    H249021   2.695   6.425  11.824  2.2895 -1.7972  0.7834
 8276TIP3   OH249022   2.403   4.593  10.651 -0.5672  0.7921 -0.0753
 8276TIP3    H149023   2.338   4.577  10.583 -0.5137  0.0989  0.0329
 8276TIP3    H249024   2.363   4.659  10.708 -1.8562 -0.7780  0.8967
 8277TIP3   OH249025   3.641   5.387  11.670 -0.8028  0.3120  0.5268
 8277TIP3    H149026   3.698   5.433  11.608 -1.8982  0.1788 -0.6366
 8277TIP3    H249027   3.624   5.302  11.627  0.9702 -1.1359  2.4917
 8278TIP3   OH249028   0.929   1.534  11.398  0.4381 -0.4385  0.8281
 8278TIP3    H149029   0.957   1.534  11.306 -0.4639  2.6142  0.4472
 8278TIP3    H249030   1.009   1.548  11.448  0.7311 -0.6217  0.4112
 8279TIP3   OH249031   5.859   5.816   9.777 -0.5883  0.0683  0.7536
 8279TIP3    H149032   5.883   5.871   9.703  1.3200 -0.9160  0.5737
 8279TIP3    H249033   5.834   5.732   9.737  0.4643 -0.4735  1.1864
 8280TIP3   OH249034   4.364   6.293   9.988  0.2101  0.5045  0.0797
 8280TIP3    H149035   4.384   6.376   9.947 -0.9075  0.7408 -0.0190
 8280TIP3    H249036   4.316   6.243   9.921  0.8580 -0.2166  0.1355
 8281TIP3   OH249037   0.773   1.556   9.834  0.5204  0.2427 -0.2942
 8281TIP3    H149038   0.782   1.479   9.779  0.6352  0.0963 -0.0745
 8281TIP3    H249039   0.679   1.574   9.836  0.4279 -0.2761  0.1731
 8282TIP3   OH249040   5.970   0.779  10.472 -0.5152 -0.1876 -0.1056
 8282TIP3    H149041   5.943   0.867  10.497  1.9015  0.4625  0.4423
 8282TIP3    H249042   5.998   0.739  10.555  0.5054 -0.6699 -0.6675
 8283TIP3   OH249043   1.718   1.156   9.857 -0.4432 -0.3801 -0.5918
 8283TIP3    H149044   1.712   1.249   9.878 -0.9634 -0.4568 -0.3862
 8283TIP3    H249045   1.657   1.144   9.784  0.0158 -0.4597 -0.9657
 8284TIP3   OH249046   4.441   0.112  11.905  0.1074 -0.2124 -0.3982
 8284TIP3    H149047   4.531   0.100  11.934 -0.2338  0.1230  0.8445
 8284TIP3    H249048   4.424   0.205  11.919 -0.7136 -0.4474  0.2382
 8285TIP3   OH249049   4.592   6.017  10.059  0.2361 -0.1797 -0.6704
 8285TIP3    H149050   4.516   6.030  10.116  0.6403 -1.1645  0.1107
 8285TIP3    H249051   4.567   6.060   9.977 -1.0541 -0.2518 -0.3423
 8286TIP3   OH249052   4.633   5.426  11.336  0.0572  0.0008 -0.1676
 8286TIP3    H149053   4.572   5.360  11.370 -0.1882  0.9612  1.3212
 8286TIP3    H249054   4.708   5.374  11.303 -0.9058 -1.1019 -0.7062
 8287TIP3   OH249055   5.046   3.709  10.209  0.0667 -0.0620  0.3238
 8287TIP3    H149056   5.107   3.750  10.270 -1.3218 -1.1495  2.5887
 8287TIP3    H249057   5.027   3.624  10.248 -1.1626 -0.6766 -1.4908
 8288TIP3   OH249058   0.727   3.906  10.590  0.3097 -0.0215 -0.0076
 8288TIP3    H149059   0.816   3.920  10.559  0.4183  2.2290  1.1242
 8288TIP3    H249060   0.732   3.828  10.645  1.7709  0.5845  0.7478
 8289TIP3   OH249061   5.194   5.422  10.854 -0.5589 -0.2183  0.1459
 8289TIP3    H149062   5.131   5.374  10.907 -0.7776  0.9729  1.0085
 8289TIP3    H249063   5.204   5.369  10.775 -0.9300 -1.5594  0.9595
 8290TIP3   OH249064   4.671   4.161  10.279 -0.0416  0.1879 -0.2478
 8290TIP3    H149065   4.720   4.243  10.286 -0.2105  0.3357 -0.7247
 8290TIP3    H249066   4.730   4.094  10.313  0.1389  0.4924  0.0430
 8291TIP3   OH249067   5.326   2.010  11.993 -0.6501 -0.3964 -0.1710
 8291TIP3    H149068   5.351   1.918  12.000  0.5109 -0.1659 -0.9709
 8291TIP3    H249069   5.332   2.029  11.899  1.1851  1.0336  0.1815
 8292TIP3   OH249070   5.763   2.997  11.745  0.2044  0.2123  0.4236
 8292TIP3    H149071   5.799   2.909  11.731  0.2637  0.5177 -1.5956
 8292TIP3    H249072   5.676   2.994  11.704  0.3121  1.1689  0.1079
 8293TIP3   OH249073   6.542   4.475  11.882 -0.3059 -0.4651  0.4750
 8293TIP3    H149074   6.491   4.504  11.806  0.1887 -1.6812 -0.3462
 8293TIP3    H249075   6.622   4.439  11.845 -0.0631 -1.0901  1.5792
 8294TIP3   OH249076   1.950   5.503  10.897 -0.1412  0.2379 -0.1784
 8294TIP3    H149077   1.950   5.443  10.822 -2.8625  1.4302 -1.2558
 8294TIP3    H249078   2.032   5.552  10.888  0.3820 -0.7910 -1.3906
 8295TIP3   OH249079   1.342   3.892  11.312  0.6106  0.2652 -0.0470
 8295TIP3    H149080   1.274   3.843  11.357  0.1522  1.7770  0.9607
 8295TIP3    H249081   1.382   3.946  11.380  2.2776  0.0240 -0.7775
 8296TIP3   OH249082   1.794   5.000  12.438 -0.0555  0.0445  0.2890
 8296TIP3    H149083   1.849   5.072  12.406 -1.7160  1.0663 -0.4026
 8296TIP3    H249084   1.813   4.927  12.379  0.3955  0.4524 -0.0802
 8297TIP3   OH249085   1.972   6.042  12.343 -0.1489  0.4721 -0.2871
 8297TIP3    H149086   2.045   6.101  12.363  1.2732 -0.4902 -2.2672
 8297TIP3    H249087   1.912   6.096  12.291 -0.4571  1.0289  0.6179
 8298TIP3   OH249088   2.831   4.260  11.614  0.2307  0.1480 -0.3936
 8298TIP3    H149089   2.920   4.294  11.606  0.0459  0.8226  0.3023
 8298TIP3    H249090   2.791   4.313  11.683 -1.2153  0.9159 -1.7490
 8299TIP3   OH249091   3.065   3.335  12.348 -0.8509 -0.8148 -0.4028
 8299TIP3    H149092   3.014   3.274  12.400  2.0259 -1.2442  2.1829
 8299TIP3    H249093   3.047   3.421  12.388  2.1508 -1.2641  2.2816
 8300TIP3   OH249094   3.590   3.163  11.316 -0.0544  0.2583  0.2235
 8300TIP3    H149095   3.639   3.170  11.234  1.3331 -0.9271  0.9027
 8300TIP3    H249096   3.615   3.241  11.366 -1.2641  1.2261 -0.6237
 8301TIP3   OH249097   5.573   0.070  12.408 -0.0030  0.2426 -0.2362
 8301TIP3    H149098   5.539  -0.001  12.463  1.1815 -0.5640 -0.4955
 8301TIP3    H249099   5.499   0.130  12.398 -0.2152  0.5421  2.3870
 8302TIP3   OH249100   0.838   5.484  12.796  0.0192  0.4671 -0.2130
 8302TIP3    H149101   0.909   5.533  12.837  0.9498 -1.3303  0.4695
 8302TIP3    H249102   0.826   5.408  12.854 -1.5576  0.0438 -1.0381
 8303TIP3   OH249103   4.746   2.665  11.320 -0.5464 -0.3135  0.0216
 8303TIP3    H149104   4.695   2.613  11.258 -0.9335  0.5287 -0.3758
 8303TIP3    H249105   4.757   2.607  11.395 -1.5688 -0.7382 -0.1296
 8304TIP3   OH249106   3.005   3.027  11.386  0.5377 -0.8295  0.2050
 8304TIP3    H149107   2.974   3.111  11.351  0.3484 -1.0381 -0.1342
 8304TIP3    H249108   3.100   3.038  11.394  0.8861 -1.4825 -2.3823
 8305TIP3   OH249109   0.490   4.071   9.524 -0.6422  0.2356  0.1921
 8305TIP3    H149110   0.583   4.071   9.550 -0.8591 -1.1045  1.0642
 8305TIP3    H249111   0.457   4.156   9.554 -0.3399 -0.3780  2.4080
 8306TIP3   OH249112   1.384   2.662  10.119 -0.7183  0.3279  0.5142
 8306TIP3    H149113   1.326   2.595  10.156 -0.5140 -0.3812 -0.4174
 8306TIP3    H249114   1.326   2.718  10.068 -0.8987  0.9162  1.3417
 8307TIP3   OH249115   5.108   2.863   9.862  0.3141 -0.5011  0.1355
 8307TIP3    H149116   5.190   2.882   9.908  1.1237  1.5732 -1.9406
 8307TIP3    H249117   5.040   2.904   9.917  0.9170 -0.3469  0.7806
 8308TIP3   OH249118   2.446   1.847  10.872  0.1154 -0.1052  0.3195
 8308TIP3    H149119   2.429   1.866  10.779 -0.0696  2.7254  0.8365
 8308TIP3    H249120   2.359   1.831  10.909  0.1793 -1.1264  0.0680
 8309TIP3   OH249121   5.588   5.903  13.283 -0.0601 -0.3183  0.1887
 8309TIP3    H149122   5.593   5.808  13.267  0.5931 -0.2793  0.1198
 8309TIP3    H249123   5.507   5.930  13.241  0.6103 -0.5627 -1.3316
 8310TIP3   OH249124   4.839   2.538  11.566 -0.3820  0.2923 -0.1314
 8310TIP3    H149125   4.919   2.517  11.519 -0.3001  2.8082 -1.2541
 8310TIP3    H249126   4.853   2.626  11.600 -2.1979  0.3035  0.7039
 8311TIP3   OH249127   1.082   5.988  12.274  0.0146  0.3975  0.2677
 8311TIP3    H149128   1.173   6.018  12.282 -0.4544  1.8380  0.4576
 8311TIP3    H249129   1.049   5.986  12.363  0.5720 -2.6474  0.5053
 8312TIP3   OH249130   5.693   1.050   9.370  0.0984  0.0766  0.5900
 8312TIP3    H149131   5.751   1.122   9.346 -0.4036  0.9464  1.8706
 8312TIP3    H249132   5.708   1.036   9.463  0.6971 -1.9817  0.2506
 8313TIP3   OH249133   5.018   0.377  10.464 -0.4553  0.0283 -0.5663
 8313TIP3    H149134   5.087   0.369  10.399 -1.5589 -1.2484 -1.6347
 8313TIP3    H249135   5.009   0.289  10.501 -0.7731  0.4287  0.3509
 8314TIP3   OH249136   4.098   0.911  10.746  0.2568  0.7241  0.1308
 8314TIP3    H149137   4.063   0.963  10.819  1.4883  2.0711 -0.2028
 8314TIP3    H249138   4.184   0.948  10.729  0.1696  0.1732 -1.7578
 8315TIP3   OH249139   2.990   3.774  13.586 -0.3210 -0.6308 -0.0336
 8315TIP3    H149140   2.930   3.839  13.551  0.8043  0.7176  0.4655
 8315TIP3    H249141   2.954   3.751  13.671 -0.1758  0.1271  0.2375
 8316TIP3   OH249142   5.220   5.886   9.550 -0.0834  0.6193 -0.1218
 8316TIP3    H149143   5.155   5.880   9.620  0.2286  0.1624  0.1319
 8316TIP3    H249144   5.250   5.977   9.553 -0.9290  0.9217 -0.4448
 8317TIP3   OH249145   4.578   6.197  10.659 -0.1516  0.5503  0.5326
 8317TIP3    H149146   4.543   6.186  10.747  0.3554 -0.4172  0.6355
 8317TIP3    H249147   4.568   6.290  10.639 -2.1029  0.4339  0.8250
 8318TIP3   OH249148   0.921   5.080  10.803 -0.6116  0.3052 -0.0392
 8318TIP3    H149149   0.843   5.064  10.751 -1.2315 -0.6504  1.1222
 8318TIP3    H249150   0.934   4.999  10.852  1.3686  0.2750 -0.5070
 8319TIP3   OH249151   1.611   4.881  12.135 -0.6054 -0.3224  0.2136
 8319TIP3    H149152   1.693   4.845  12.169 -1.1898 -2.3426 -0.3389
 8319TIP3    H249153   1.609   4.972  12.165  1.8169 -0.2248  0.2409
 8320TIP3   OH249154   2.934   3.829  10.427 -0.2582 -0.4583  0.0574
 8320TIP3    H149155   2.844   3.804  10.447 -0.2484  0.0595  0.7674
 8320TIP3    H249156   2.982   3.746  10.420 -0.9181 -0.7697 -0.9879
 8321TIP3   OH249157   2.254   3.003  12.478 -0.4885 -0.0150  0.4198
 8321TIP3    H149158   2.167   2.985  12.512 -0.6573 -0.9713 -0.4592
 8321TIP3    H249159   2.248   3.090  12.440 -0.8793  0.1828  0.9248
 8322TIP3   OH249160   1.047   0.395  12.437 -0.3274 -0.4470 -0.4388
 8322TIP3    H149161   1.051   0.442  12.521  0.2631  0.8103 -1.1324
 8322TIP3    H249162   1.034   0.464  12.372  1.4124 -1.1444 -1.5990
 8323TIP3   OH249163   5.473   4.538   9.934 -0.0010  0.2214  0.2726
 8323TIP3    H149164   5.550   4.581   9.897  0.1965 -0.4238 -0.0802
 8323TIP3    H249165   5.505   4.452   9.963 -0.4638  0.1706  0.6522
 8324TIP3   OH249166   1.763   0.846  11.182 -0.2246 -0.0847 -0.6089
 8324TIP3    H149167   1.843   0.836  11.131  0.4471  0.7502  0.2385
 8324TIP3    H249168   1.696   0.869  11.118  0.1902 -0.8208 -1.3338
 8325TIP3   OH249169   2.168   0.128  11.124  0.2537 -0.5319 -0.0126
 8325TIP3    H149170   2.090   0.164  11.167 -0.8877 -1.7477 -0.9803
 8325TIP3    H249171   2.151   0.141  11.031  1.3522 -0.5760 -0.2293
 8326TIP3   OH249172   3.133   6.440  11.145 -0.0805  0.0541 -0.4802
 8326TIP3    H149173   3.208   6.417  11.199 -0.8169  0.2351  0.6630
 8326TIP3    H249174   3.158   6.414  11.057  0.3072 -2.3711  0.2685
 8327TIP3   OH249175   5.379   1.496  10.472 -0.1141 -0.7025  0.7263
 8327TIP3    H149176   5.330   1.577  10.455  1.1095 -0.3437 -1.4522
 8327TIP3    H249177   5.312   1.432  10.495 -1.2925  0.4912  0.7449
 8328TIP3   OH249178   4.045   6.155  11.546 -0.7707 -0.1090 -0.5259
 8328TIP3    H149179   4.105   6.191  11.481 -1.0390  0.4982 -0.4383
 8328TIP3    H249180   3.988   6.097  11.496  0.6833 -1.7254 -0.4268
 8329TIP3   OH249181   2.767   4.331  10.907 -0.0045 -0.2025  0.3631
 8329TIP3    H149182   2.811   4.277  10.841  1.4276  0.1155  1.0359
 8329TIP3    H249183   2.837   4.364  10.963 -1.0052  1.0876  0.9154
 8330TIP3   OH249184   3.371   2.226  10.649 -0.3398 -0.0014 -0.0243
 8330TIP3    H149185   3.407   2.250  10.734  1.0731  1.0862 -0.8678
 8330TIP3    H249186   3.276   2.227  10.661 -0.2355  2.0438  1.0906
 8331TIP3   OH249187   0.556   3.704  11.496  0.4191  0.4482 -0.1271
 8331TIP3    H149188   0.472   3.746  11.478  0.6769  0.6008 -1.0459
 8331TIP3    H249189   0.537   3.639  11.563 -0.2344  1.1585  0.4024
 8332TIP3   OH249190   1.941   1.880  11.936  0.7914  0.3128  0.3217
 8332TIP3    H149191   2.021   1.829  11.952  1.3537  0.9671 -0.3573
 8332TIP3    H249192   1.927   1.927  12.018  2.0226  1.4252 -0.0809
 8333TIP3   OH249193   4.619   5.581  12.705 -0.1894 -0.3551  0.1421
 8333TIP3    H149194   4.706   5.586  12.744 -0.5069  0.8184  0.7380
 8333TIP3    H249195   4.561   5.617  12.772 -1.2318 -1.7452  0.0113
 8334TIP3   OH249196   2.358   4.437  10.217  0.5322 -0.4228 -0.2388
 8334TIP3    H149197   2.340   4.346  10.238  1.2757 -0.3203  0.9449
 8334TIP3    H249198   2.453   4.447  10.226  0.2997  0.8714  1.6175
 8335TIP3   OH249199   3.821   1.087  10.639 -0.4092  0.1094  0.4351
 8335TIP3    H149200   3.858   1.175  10.651  0.2172 -0.4008  2.7741
 8335TIP3    H249201   3.884   1.042  10.583 -0.4583  0.9691 -0.3368
 8336TIP3   OH249202   1.367   5.754  20.294 -0.2567  0.3622  0.3009
 8336TIP3    H149203   1.294   5.727  20.238 -2.5518  2.7373  1.9413
 8336TIP3    H249204   1.417   5.815  20.240 -0.5988  0.2217 -0.1851
 8337TIP3   OH249205   2.256   2.618  10.067 -0.3115  0.6690 -0.3410
 8337TIP3    H149206   2.318   2.555  10.031  0.4764  1.0857  0.2566
 8337TIP3    H249207   2.310   2.682  10.113 -1.2264  0.5096  1.0301
 8338TIP3   OH249208   2.465   4.241   9.384  0.0073 -0.1110  0.1585
 8338TIP3    H149209   2.467   4.199   9.298 -0.9069  0.1461  0.0077
 8338TIP3    H249210   2.557   4.253   9.406  0.2627 -0.7587 -0.4988
 8339TIP3   OH249211   2.030   5.850  11.701  0.2332 -0.1434 -0.5724
 8339TIP3    H149212   1.974   5.773  11.713 -0.6909  0.7520  1.2788
 8339TIP3    H249213   2.110   5.829  11.748 -0.3982  0.3761  0.7678
 8340TIP3   OH249214   5.857   0.701  10.216  0.3149  0.1148 -0.5292
 8340TIP3    H149215   5.916   0.642  10.170  0.5349  0.4064 -0.6273
 8340TIP3    H249216   5.910   0.737  10.287 -0.0518 -0.4155  0.0296
 8341TIP3   OH249217   5.594   6.348  12.375 -0.0964 -0.4589  0.0528
 8341TIP3    H149218   5.635   6.262  12.373  0.6357 -0.1207  0.2608
 8341TIP3    H249219   5.501   6.330  12.389 -0.3276 -1.3340 -2.1932
 8342TIP3   OH249220   5.311   6.117   9.818  0.4518  0.2679 -0.3030
 8342TIP3    H149221   5.279   6.206   9.833 -0.3424  0.0795 -0.8277
 8342TIP3    H249222   5.300   6.074   9.903  1.3679  0.8181  0.1081
 8343TIP3   OH249223   3.822   3.583  12.524  0.4017 -0.3824  0.3933
 8343TIP3    H149224   3.878   3.638  12.578  0.2210  0.3480 -0.1567
 8343TIP3    H249225   3.832   3.495  12.561  0.1933  0.1129  1.6759
 8344TIP3   OH249226   5.244   0.696  10.654 -0.1656  0.1292 -0.3818
 8344TIP3    H149227   5.339   0.684  10.649 -0.4373 -2.0801 -1.7656
 8344TIP3    H249228   5.223   0.752  10.580  0.1193  1.3531  0.4394
 8345TIP3   OH249229   5.840   3.834  12.838 -0.1743  0.2920 -0.6925
 8345TIP3    H149230   5.827   3.911  12.782  0.3261  1.4098  0.6789
 8345TIP3    H249231   5.752   3.813  12.870  0.0581  2.5137  1.7039
 8346TIP3   OH249232   1.545   4.781  10.673  0.4984 -0.3029  0.1032
 8346TIP3    H149233   1.526   4.875  10.672 -0.3622 -0.4670  0.2400
 8346TIP3    H249234   1.638   4.776  10.694  0.8228  0.5499 -0.9904
 8347TIP3   OH249235   5.389   1.258  10.205  0.0914 -0.4166 -0.3378
 8347TIP3    H149236   5.455   1.237  10.139  0.2051  0.2696 -0.4503
 8347TIP3    H249237   5.439   1.281  10.283 -0.0328 -0.5455 -0.2196
 8348TIP3   OH249238   6.033   3.714  20.622  0.0215  0.2715 -0.1134
 8348TIP3    H149239   6.063   3.788  20.569  0.0059  0.9206  0.7484
 8348TIP3    H249240   6.007   3.647  20.559 -0.5090  1.2211 -0.9274
 8349TIP3   OH249241   4.997   4.160  10.122 -0.3152 -0.7596 -0.0040
 8349TIP3    H149242   5.031   4.126  10.205  0.6222  0.1053 -0.0149
 8349TIP3    H249243   4.986   4.254  10.137 -0.5328 -0.6625 -0.7328
 8350TIP3   OH249244   4.905   5.072   9.550  0.1934  0.1070 -0.2365
 8350TIP3    H149245   4.888   5.163   9.576 -0.7121 -0.2573  0.5091
 8350TIP3    H249246   4.822   5.042   9.513  0.0596 -0.8120  0.7475
 8351TIP3   OH249247   6.136   1.244  11.276 -0.1063 -0.3680 -0.3873
 8351TIP3    H149248   6.206   1.199  11.228  0.7449 -1.9610  2.1659
 8351TIP3    H249249   6.182   1.310  11.329 -0.9288  0.7818 -1.0501
 8352TIP3   OH249250   1.918   4.827  12.613  0.0897  0.0609 -0.4608
 8352TIP3    H149251   1.875   4.742  12.623  0.3575 -0.3376 -2.4336
 8352TIP3    H249252   1.860   4.876  12.555  0.6551  0.7070 -0.4796
 8353TIP3   OH249253   4.248   5.403  10.809 -0.4565 -0.1855  0.4221
 8353TIP3    H149254   4.343   5.395  10.816 -0.0613  2.7038 -0.3837
 8353TIP3    H249255   4.223   5.341  10.741  0.8028 -1.0862  0.7474
 8354TIP3   OH249256   4.684   4.461  11.195  0.0322  0.1708  0.0676
 8354TIP3    H149257   4.739   4.387  11.221  0.2201  1.0220  2.3594
 8354TIP3    H249258   4.745   4.531  11.175 -0.1818  0.2779 -0.2172
 8355TIP3   OH249259   2.402   3.619   9.971  0.3035 -0.1143 -0.4896
 8355TIP3    H149260   2.312   3.614  10.002  1.0826 -0.6125  1.9456
 8355TIP3    H249261   2.455   3.596  10.048  2.4215 -3.6129 -2.7562
 8356TIP3   OH249262   1.172   4.303   9.498  0.5337  0.0775 -0.3412
 8356TIP3    H149263   1.263   4.308   9.529  1.0862 -1.4396 -1.5216
 8356TIP3    H249264   1.135   4.389   9.517  0.7074 -0.6289  4.5213
 8357TIP3   OH249265   1.917   6.503  10.691  0.0328 -0.0230 -0.1156
 8357TIP3    H149266   1.836   6.530  10.734 -0.2205 -0.0417 -0.5728
 8357TIP3    H249267   1.916   6.549  10.608  0.4281 -0.1283 -0.1775
 8358TIP3   OH249268   3.275   4.203  12.307 -0.2315 -0.1964  0.1468
 8358TIP3    H149269   3.229   4.247  12.235  1.3122 -0.1649 -0.8971
 8358TIP3    H249270   3.362   4.244  12.307 -0.6045  0.7569  2.9563
 8359TIP3   OH249271   0.971   4.323   9.879 -0.6068 -0.0258  0.0455
 8359TIP3    H149272   1.002   4.232   9.882  1.2106  0.5703  0.8598
 8359TIP3    H249273   1.044   4.374   9.915 -0.8970  1.9448 -1.9184
 8360TIP3   OH249274   6.327   1.708   9.480  0.0565 -0.0331  0.4039
 8360TIP3    H149275   6.275   1.633   9.507 -0.3140 -0.4842 -1.3940
 8360TIP3    H249276   6.416   1.686   9.506  0.0635 -1.4373 -0.6785
 8361TIP3   OH249277   2.787   0.875  10.066  0.1770 -0.1562 -0.0296
 8361TIP3    H149278   2.739   0.804  10.107  1.0869 -0.4814  0.4998
 8361TIP3    H249279   2.727   0.950  10.070  0.1211 -0.2410  1.6738
 8362TIP3   OH249280   1.283   0.399   9.407  0.1256  0.0442 -0.8010
 8362TIP3    H149281   1.246   0.484   9.431  0.6126 -0.0257  0.2432
 8362TIP3    H249282   1.377   0.414   9.406  0.1627 -0.1548 -1.9795
 8363TIP3   OH249283   0.669   0.486  10.729  0.0120  0.1586 -0.5548
 8363TIP3    H149284   0.611   0.412  10.745  0.4921 -0.1994 -0.4374
 8363TIP3    H249285   0.699   0.512  10.816  2.3959 -1.6045 -0.7214
 8364TIP3   OH249286   5.709   2.616  10.159 -1.0117  0.4044 -0.8022
 8364TIP3    H149287   5.779   2.570  10.113 -0.2253  2.0119 -1.2798
 8364TIP3    H249288   5.696   2.696  10.108 -0.8481  1.7537  1.1790
 8365TIP3   OH249289   3.688   0.956   9.605 -0.0077  0.2458  0.3962
 8365TIP3    H149290   3.645   0.996   9.530  0.1179 -0.1702  0.1042
 8365TIP3    H249291   3.700   1.029   9.667  0.2565  0.6696 -0.1484
 8366TIP3   OH249292   1.276   6.372  11.462 -0.0102  0.2763 -0.1653
 8366TIP3    H149293   1.187   6.336  11.455  0.6162 -1.0273 -2.2957
 8366TIP3    H249294   1.325   6.306  11.511 -0.0230  0.6228  0.3201
 8367TIP3   OH249295   4.324   4.682  12.062  0.0266  0.1650 -0.3183
 8367TIP3    H149296   4.263   4.647  11.997  1.3390 -2.3778 -0.3229
 8367TIP3    H249297   4.331   4.612  12.127  1.1111  1.3943  0.9404
 8368TIP3   OH249298   1.951   2.623  11.511  0.1476 -0.1059  0.3852
 8368TIP3    H149299   1.991   2.581  11.587  0.1556 -2.1338 -0.6672
 8368TIP3    H249300   1.859   2.596  11.514 -0.4472  1.8035  0.9551
 8369TIP3   OH249301   3.816   1.381  10.577 -0.1237  0.3422 -0.5768
 8369TIP3    H149302   3.869   1.458  10.559 -1.4416  1.2911 -0.5606
 8369TIP3    H249303   3.809   1.336  10.493  1.2787 -0.1984 -0.4281
 8370TIP3   OH249304   2.377   3.730  10.491 -0.2884  0.6253  0.5421
 8370TIP3    H149305   2.389   3.640  10.522 -0.3334  1.0988  2.0485
 8370TIP3    H249306   2.282   3.739  10.484 -0.2366 -0.0773 -1.7243
 8371TIP3   OH249307   1.337   5.947   9.897 -0.1636 -0.4667  0.3973
 8371TIP3    H149308   1.321   5.992   9.814 -1.2432  0.0116  0.8388
 8371TIP3    H249309   1.410   5.889   9.879  1.0964  1.2496 -0.2698
 8372TIP3   OH249310   2.243   4.497   9.946 -0.0461 -0.4400  0.7452
 8372TIP3    H149311   2.235   4.592   9.953 -1.8423 -0.6050  1.3620
 8372TIP3    H249312   2.279   4.470  10.030 -1.3577 -0.4490  1.3328
 8373TIP3   OH249313   3.118   3.384  12.089  0.0874 -0.1921  0.1017
 8373TIP3    H149314   3.094   3.357  12.177  0.3905  0.1626  0.2966
 8373TIP3    H249315   3.069   3.465  12.074  0.5902  0.1411  0.2259
 8374TIP3   OH249316   4.164   5.762  11.424  0.4967 -0.6766 -0.3407
 8374TIP3    H149317   4.228   5.691  11.427 -0.8331 -1.8942  1.4178
 8374TIP3    H249318   4.151   5.787  11.515  1.1200  2.1008 -0.9248
 8375TIP3   OH249319   6.197   5.955  11.090 -0.0908 -0.0442  0.0632
 8375TIP3    H149320   6.154   6.035  11.060  0.4412  0.4820  0.6683
 8375TIP3    H249321   6.283   5.984  11.121 -0.2611 -0.6839  1.1994
 8376TIP3   OH249322   3.722   0.089  10.567 -0.1149 -0.3582  0.0700
 8376TIP3    H149323   3.692   0.119  10.653 -1.0983 -2.3970  0.4848
 8376TIP3    H249324   3.674   0.144  10.505 -1.8668 -0.9663  0.8038
 8377TIP3   OH249325   0.360   6.006  10.742  0.4060 -0.2879 -0.5012
 8377TIP3    H149326   0.415   6.083  10.757  0.1301  0.3465 -2.4533
 8377TIP3    H249327   0.271   6.041  10.734  0.3058 -0.7461 -1.6398
 8378TIP3   OH249328   6.582   3.492  11.441  0.0982 -0.2228  0.6556
 8378TIP3    H149329   6.557   3.418  11.496 -1.5879 -0.3525 -0.2505
 8378TIP3    H249330   6.540   3.567  11.482 -2.0926 -0.4715 -0.9841
 8379TIP3   OH249331   0.528   1.628  11.733 -0.1607  0.2150 -0.0560
 8379TIP3    H149332   0.570   1.658  11.814 -3.9060 -0.0367  2.1926
 8379TIP3    H249333   0.599   1.586  11.684  2.8695  2.6859  1.7835
 8380TIP3   OH249334   0.293   6.447  12.278 -0.1372 -0.0902  0.0457
 8380TIP3    H149335   0.218   6.466  12.222 -0.6344  0.7233  0.9454
 8380TIP3    H249336   0.282   6.507  12.352  0.0744 -1.6621  1.3899
 8381TIP3   OH249337   3.810   5.219  10.409 -0.1827 -0.0642 -0.1393
 8381TIP3    H149338   3.825   5.309  10.381 -0.6023  0.3728  0.9808
 8381TIP3    H249339   3.715   5.213  10.419 -0.1620 -0.6580 -0.2930
 8382TIP3   OH249340   5.200   6.445   9.317  0.5237  0.0551  0.2489
 8382TIP3    H149341   5.278   6.477   9.362  0.5813 -1.1313  1.0096
 8382TIP3    H249342   5.231   6.372   9.263 -0.1220 -0.7079  0.8891
 8383TIP3   OH249343   1.799   2.109  10.866 -0.5609  0.1188  0.2813
 8383TIP3    H149344   1.792   2.175  10.796  0.0580 -1.5257 -1.4276
 8383TIP3    H249345   1.748   2.145  10.938  0.6470  2.9652 -0.1361
 8384TIP3   OH249346   6.614   1.708   9.577 -0.6485 -0.5101  0.3331
 8384TIP3    H149347   6.663   1.690   9.657 -1.1508 -1.4690  0.4411
 8384TIP3    H249348   6.678   1.698   9.506 -0.0245  1.0495  0.6310
 8385TIP3   OH249349   2.677   2.417  11.042 -0.2126  0.0359  0.2408
 8385TIP3    H149350   2.685   2.487  10.977  0.6599 -1.2003 -1.0201
 8385TIP3    H249351   2.658   2.463  11.124  0.7425  1.7881 -0.4706
 8386TIP3   OH249352   3.353   3.972  11.986 -0.1949  0.3260  0.3141
 8386TIP3    H149353   3.333   4.055  12.028  2.3911  2.1850 -1.7426
 8386TIP3    H249354   3.445   3.955  12.009 -0.0398 -0.8294 -0.9914
 8387TIP3   OH249355   0.880   3.641  10.081 -0.3480  0.1669  0.4106
 8387TIP3    H149356   0.937   3.647  10.004 -1.0288 -0.9282 -0.2113
 8387TIP3    H249357   0.860   3.732  10.103  1.4311  0.5693  0.5081
 8388TIP3   OH249358   2.546   2.958  11.356 -0.6399 -0.1944  0.6565
 8388TIP3    H149359   2.592   2.924  11.432 -0.4924 -1.6329 -0.0511
 8388TIP3    H249360   2.454   2.936  11.373 -0.6532 -0.1948  0.5819
 8389TIP3   OH249361   5.496   2.601  12.265 -0.4141  0.0822 -0.2779
 8389TIP3    H149362   5.581   2.584  12.305 -1.0291  1.4898  1.8306
 8389TIP3    H249363   5.481   2.527  12.206  1.0410 -1.6340  1.3926
 8390TIP3   OH249364   5.712   2.201  10.259  0.0789 -0.6787  0.7509
 8390TIP3    H149365   5.766   2.186  10.337 -0.4884  1.9393  1.7428
 8390TIP3    H249366   5.624   2.173  10.286  0.1037 -0.8893  0.6180
 8391TIP3   OH249367   3.207   3.587  10.720 -0.0710  0.2464  0.1623
 8391TIP3    H149368   3.284   3.551  10.675 -0.2586  0.2721 -0.1824
 8391TIP3    H249369   3.236   3.671  10.754 -0.0495  0.4205 -0.2812
 8392TIP3   OH249370   6.528   3.977  11.534  0.3807 -0.3196  0.0551
 8392TIP3    H149371   6.596   4.040  11.560  1.2086 -1.7459  1.5120
 8392TIP3    H249372   6.469   3.973  11.609  0.6034 -1.6240  0.1729
 8393TIP3   OH249373   6.651   4.418   9.511  0.0912 -0.3988  0.1541
 8393TIP3    H149374   6.718   4.356   9.481 -1.5694 -1.7126 -1.0219
 8393TIP3    H249375   6.609   4.373   9.584 -1.2042 -0.7725 -0.7848
 8394TIP3   OH249376   0.994   0.297  11.978 -0.0153  0.3237  0.7230
 8394TIP3    H149377   0.995   0.263  11.889 -0.4600  1.6342  0.1909
 8394TIP3    H249378   0.901   0.307  11.999  0.0738  2.6034  0.2702
 8395TIP3   OH249379   5.239   5.839  12.838  0.2209 -0.1284 -0.0518
 8395TIP3    H149380   5.317   5.799  12.875  0.3158 -2.1057 -2.1486
 8395TIP3    H249381   5.271   5.896  12.768 -0.1368 -0.0287 -0.1392
 8396TIP3   OH249382   3.263   1.880  12.167  0.3602 -0.4730  0.1960
 8396TIP3    H149383   3.304   1.800  12.135  0.6314 -1.7342  3.3347
 8396TIP3    H249384   3.169   1.866  12.151  0.4551 -1.1990  0.2088
 8397TIP3   OH249385   4.525   2.706  10.160  0.2042 -0.2168  0.2017
 8397TIP3    H149386   4.553   2.775  10.099  0.1227 -0.2045  0.1776
 8397TIP3    H249387   4.448   2.668  10.118  0.6927 -0.8333 -0.1553
 8398TIP3   OH249388   4.135   6.488   9.334  0.2691 -0.0760  0.1938
 8398TIP3    H149389   4.166   6.399   9.313  1.5791  0.7001 -1.3493
 8398TIP3    H249390   4.122   6.487   9.429  0.9778 -1.6908  0.3072
 8399TIP3   OH249391   5.851   2.063  11.727 -0.3361  0.0919  0.4879
 8399TIP3    H149392   5.876   2.126  11.795 -2.1143  1.5502 -0.1240
 8399TIP3    H249393   5.864   1.977  11.767  1.2360  0.8541  1.6906
 8400TIP3   OH249394   1.162   5.278  11.848 -0.2001  0.1539 -0.3592
 8400TIP3    H149395   1.244   5.256  11.893 -0.0134  2.0343  0.2696
 8400TIP3    H249396   1.183   5.266  11.755 -0.3026 -2.7877 -0.1015
 8401TIP3   OH249397   5.334   3.801  10.009  0.2812  0.3897 -0.0599
 8401TIP3    H149398   5.332   3.881  10.062  2.0389  0.4151  0.0063
 8401TIP3    H249399   5.336   3.730  10.074  0.6340  0.3536 -0.1126
 8402TIP3   OH249400   2.963   3.185  10.976 -0.1085  0.2915  0.2219
 8402TIP3    H149401   2.981   3.202  10.884 -1.4373  0.8331  0.0359
 8402TIP3    H249402   3.033   3.230  11.023  0.3428  0.3617 -0.5022
 8403TIP3   OH249403   2.442   1.355  12.444  0.3280 -0.1520  0.4921
 8403TIP3    H149404   2.355   1.316  12.442  0.8116 -1.2368  0.0909
 8403TIP3    H249405   2.426   1.449  12.434 -0.8479 -0.2297  1.3956
 8404TIP3   OH249406   3.167   1.394  10.225 -0.2015  0.3182  0.6054
 8404TIP3    H149407   3.158   1.318  10.167 -0.6860 -0.1255  1.2583
 8404TIP3    H249408   3.252   1.432  10.201 -0.9903  0.9719 -1.3582
 8405TIP3   OH249409   2.624   2.635  10.818  0.2133 -0.1887  0.4002
 8405TIP3    H149410   2.557   2.689  10.860  0.6084 -2.0018  3.6627
 8405TIP3    H249411   2.576   2.562  10.780  0.0453  0.3307 -0.3967
 8406TIP3   OH249412   4.623   4.602  12.140 -0.4558 -0.1360 -0.1374
 8406TIP3    H149413   4.608   4.576  12.230 -0.5547  0.8966  0.1568
 8406TIP3    H249414   4.543   4.648  12.113 -0.0493  0.4359 -0.4102
 8407TIP3   OH249415   2.067   2.719  11.164 -0.0561 -0.1519 -0.2241
 8407TIP3    H149416   1.984   2.681  11.191 -0.3401  1.2230  1.0076
 8407TIP3    H249417   2.066   2.807  11.202  1.5028  0.2747 -1.0834
 8408TIP3   OH249418   5.563   2.212  10.672 -0.5950  0.1089  0.1819
 8408TIP3    H149419   5.485   2.174  10.630 -2.0667  0.6944  2.1995
 8408TIP3    H249420   5.627   2.140  10.673 -1.7694 -0.9789  0.0632
 8409TIP3   OH249421   1.208   5.942  10.528  0.3562  0.0407  0.2188
 8409TIP3    H149422   1.126   5.958  10.576  0.2665  0.1652  0.0231
 8409TIP3    H249423   1.261   6.021  10.543  0.8753 -0.4756  1.2281
 8410TIP3   OH249424   0.449   5.823  12.800 -0.3473  0.0458 -0.3081
 8410TIP3    H149425   0.431   5.822  12.894 -3.1559 -0.4365 -0.7728
 8410TIP3    H249426   0.500   5.743  12.784  1.5492  0.9315  0.9768
 8411TIP3   OH249427   6.599   4.766  11.604 -0.2981 -0.2888 -0.3410
 8411TIP3    H149428   6.632   4.833  11.662 -0.2536 -0.8493  0.2887
 8411TIP3    H249429   6.671   4.703  11.594 -0.7812 -0.9366  0.1539
 8412TIP3   OH249430   4.128   4.762  11.411  0.2912  0.3561  0.8850
 8412TIP3    H149431   4.216   4.771  11.374 -0.1904  0.2242 -0.3367
 8412TIP3    H249432   4.107   4.669  11.400 -0.2371  0.5065  0.5923
 8413TIP3   OH249433   0.207   0.484  12.592 -0.3624 -0.2186  0.3845
 8413TIP3    H149434   0.266   0.411  12.575 -1.1428 -0.4388 -1.6217
 8413TIP3    H249435   0.222   0.506  12.684  1.6421 -1.3048  0.3660
 8414TIP3   OH249436   5.481   0.061  10.541  0.2855 -0.0011 -0.5526
 8414TIP3    H149437   5.552   0.123  10.559 -0.9246  1.1145  0.5714
 8414TIP3    H249438   5.526  -0.022  10.524  1.8393  0.1881  2.0313
 8415TIP3   OH249439   4.432   6.032  10.875  0.0940 -0.1085  0.2881
 8415TIP3    H149440   4.443   6.015  10.968  0.6171 -0.0879  0.2337
 8415TIP3    H249441   4.413   6.125  10.869 -1.9111 -0.4560  0.5170
 8416TIP3   OH249442   6.390   0.623  12.626 -0.2249 -0.0882  0.1031
 8416TIP3    H149443   6.418   0.654  12.712  0.2962  2.0199 -0.7785
 8416TIP3    H249444   6.465   0.574  12.593 -0.1831 -0.3375  0.5520
 8417TIP3   OH249445   6.196   3.728  10.453 -0.5836  0.1667 -0.0904
 8417TIP3    H149446   6.250   3.806  10.454  1.4977 -1.1931  0.3069
 8417TIP3    H249447   6.107   3.760  10.465 -0.1179  2.6541 -2.3768
 8418TIP3   OH249448   3.594   3.961  11.495  0.6056 -0.4610  0.0848
 8418TIP3    H149449   3.574   4.004  11.578 -0.6026  0.3105 -0.5804
 8418TIP3    H249450   3.578   3.869  11.511 -1.2866 -0.1260  0.2532
 8419TIP3   OH249451   3.637   0.683  11.761 -0.3829  0.0575  0.6054
 8419TIP3    H149452   3.556   0.725  11.734  0.5029  0.0015 -2.4242
 8419TIP3    H249453   3.680   0.747  11.818 -1.1168  1.3662 -0.2781
 8420TIP3   OH249454   3.619   5.550  12.264  0.1679  0.1849  0.2479
 8420TIP3    H149455   3.657   5.485  12.323  0.5459 -0.1590 -0.3736
 8420TIP3    H249456   3.532   5.567  12.300  0.4402  0.0660  0.9720
 8421TIP3   OH249457   5.005   1.443  12.873 -0.2023 -0.5233 -0.0549
 8421TIP3    H149458   4.927   1.425  12.926  0.3689 -2.8146  0.1263
 8421TIP3    H249459   5.078   1.437  12.934  0.1787  1.0425 -0.3306
 8422TIP3   OH249460   1.029   3.707  11.927  0.1207  0.7796  0.1046
 8422TIP3    H149461   1.115   3.692  11.887 -0.6757  1.5290 -2.0397
 8422TIP3    H249462   0.967   3.676  11.862 -1.2932 -1.9171  2.5488
 8423TIP3   OH249463   3.573   4.744   9.903 -0.0521  0.3730  0.0042
 8423TIP3    H149464   3.646   4.801   9.925  1.5888 -0.6673 -2.3095
 8423TIP3    H249465   3.567   4.683   9.976  1.1655  0.7110  0.4058
 8424TIP3   OH249466   0.386   4.778   9.910  0.7643  0.5225  0.0965
 8424TIP3    H149467   0.319   4.714   9.936  0.3850  0.5988 -0.6605
 8424TIP3    H249468   0.469   4.733   9.926  0.5112  0.0054  0.0001
 8425TIP3   OH249469   5.876   5.344  12.788 -0.0309  0.2663  0.1018
 8425TIP3    H149470   5.802   5.405  12.787 -0.9284 -0.6330 -2.9598
 8425TIP3    H249471   5.844   5.269  12.838 -0.3344  0.7934  0.7097
 8426TIP3   OH249472   0.571   6.542  10.435 -0.1173  0.4153  0.2023
 8426TIP3    H149473   0.486   6.583  10.423 -0.3900  0.0162  0.7701
 8426TIP3    H249474   0.554   6.465  10.488  0.2856 -0.7840 -1.3275
 8427TIP3   OH249475   4.027   0.785  12.453 -0.1712 -0.4614  0.0735
 8427TIP3    H149476   4.026   0.712  12.515 -0.4727  0.6145  1.3892
 8427TIP3    H249477   3.993   0.859  12.503  0.3758  0.6532 -1.1435
 8428TIP3   OH249478   5.581   2.903  11.240 -0.0641  0.1260 -0.5830
 8428TIP3    H149479   5.641   2.908  11.166  0.0316  0.8070 -0.4624
 8428TIP3    H249480   5.523   2.977  11.229  2.1222  2.4023  1.8789
 8429TIP3   OH249481   6.535   4.957   9.654  0.0246  0.3566 -0.0758
 8429TIP3    H149482   6.458   4.935   9.602 -0.3508  0.1202  0.5581
 8429TIP3    H249483   6.564   5.042   9.621 -0.2953  0.2799 -0.5587
 8430TIP3   OH249484   3.928   3.857   9.931  0.0125  0.4596  0.2034
 8430TIP3    H149485   3.846   3.808   9.924  0.1791  0.0175  1.1422
 8430TIP3    H249486   3.992   3.792   9.961  0.7800  0.7317 -0.8248
 8431TIP3   OH249487   3.632   4.239  12.117  0.0246 -0.6301 -0.1091
 8431TIP3    H149488   3.635   4.305  12.186  0.0184  0.3984 -1.0685
 8431TIP3    H249489   3.547   4.251  12.075 -1.0640 -2.8995  1.2319
 8432TIP3   OH249490   0.762   1.954  12.003 -0.0147 -0.4380 -0.0880
 8432TIP3    H149491   0.830   1.922  12.062 -0.5947 -0.3158  0.6681
 8432TIP3    H249492   0.806   1.966  11.919  0.7708 -0.8560  0.2559
 8433TIP3   OH249493   2.522   5.317  11.954 -0.2207  0.4022 -0.5700
 8433TIP3    H149494   2.504   5.223  11.941 -0.3572  0.4936 -1.0547
 8433TIP3    H249495   2.464   5.361  11.892  1.2428  0.7403 -1.7441
 8434TIP3   OH249496   6.590   3.594  10.048 -0.1679 -0.1059  0.1311
 8434TIP3    H149497   6.573   3.546   9.967  1.5312  0.3821 -0.5698
 8434TIP3    H249498   6.639   3.532  10.102  0.6032  0.2668 -0.1204
 8435TIP3   OH249499   5.622   6.202  11.014  0.0343 -0.7855  0.7754
 8435TIP3    H149500   5.649   6.240  10.931 -1.2042  0.7280  1.0045
 8435TIP3    H249501   5.669   6.253  11.080 -2.5704  1.3852  1.1407
 8436TIP3   OH249502   6.630   5.481  11.852  0.2409  0.0018 -0.3473
 8436TIP3    H149503   6.686   5.501  11.777 -1.5071 -1.2208 -2.1162
 8436TIP3    H249504   6.676   5.411  11.898 -0.8573 -3.0497 -3.3750
 8437TIP3   OH249505   3.295   0.385  10.854  0.4132  0.4833  0.1130
 8437TIP3    H149506   3.291   0.480  10.853 -1.0632  0.4255 -0.9671
 8437TIP3    H249507   3.271   0.361  10.944  1.5383  1.1203  0.6101
 8438TIP3   OH249508   1.937   0.994   9.874  0.8978 -0.2352  0.2919
 8438TIP3    H149509   1.971   1.080   9.848 -0.1318 -0.1074 -0.7329
 8438TIP3    H249510   1.843   1.009   9.887  0.7925 -1.1044  0.5679
 8439TIP3   OH249511   3.710   2.403   9.786  0.1485  0.1114 -0.2367
 8439TIP3    H149512   3.793   2.405   9.739 -0.6146  2.8258 -1.6624
 8439TIP3    H249513   3.678   2.493   9.783 -2.1337 -0.5245  1.6223
 8440TIP3   OH249514   5.154   1.050  11.707 -0.1573 -0.0137 -0.2337
 8440TIP3    H149515   5.060   1.038  11.691 -0.1715  0.5453 -0.5806
 8440TIP3    H249516   5.195   0.979  11.657 -0.4554 -1.1071  1.0106
 8441TIP3   OH249517   0.902   3.369  11.228  0.3500  0.0883  0.2453
 8441TIP3    H149518   0.912   3.444  11.170  0.7653  0.2250  0.4828
 8441TIP3    H249519   0.953   3.393  11.306  1.5664 -0.9691 -0.1965
 8442TIP3   OH249520   3.300   1.052  10.964 -0.0510 -0.0057 -0.7141
 8442TIP3    H149521   3.222   1.101  10.989  1.0193  0.8254  1.1891
 8442TIP3    H249522   3.302   1.057  10.868 -0.7195  2.4944 -0.6560
 8443TIP3   OH249523   3.471   1.615   9.507  0.0239 -0.2961 -0.1779
 8443TIP3    H149524   3.495   1.666   9.584  2.0527 -0.9020 -0.3603
 8443TIP3    H249525   3.389   1.654   9.477  0.9917  2.2352  0.2405
 8444TIP3   OH249526   1.183   5.524  10.405  0.2646  0.2598 -0.6925
 8444TIP3    H149527   1.114   5.527  10.471 -1.5943  0.7607 -2.5676
 8444TIP3    H249528   1.226   5.609  10.412  1.3546 -0.3682  1.0616
 8445TIP3   OH249529   1.226   2.611   9.878  0.1356 -0.2413  0.5594
 8445TIP3    H149530   1.187   2.651   9.801 -2.7972 -1.1578  1.4578
 8445TIP3    H249531   1.295   2.554   9.843  0.2641  0.9020 -1.1703
 8446TIP3   OH249532   0.795   1.777  11.534 -0.1658  0.0610  0.4018
 8446TIP3    H149533   0.777   1.683  11.545  0.0581  0.0824  1.0152
 8446TIP3    H249534   0.827   1.785  11.445  0.0846 -0.4975  0.4385
 8447TIP3   OH249535   3.487   5.483   9.885 -0.1193 -0.0166  0.3049
 8447TIP3    H149536   3.525   5.399   9.858 -1.8944 -0.4962 -0.9118
 8447TIP3    H249537   3.406   5.458   9.930 -1.9726  1.0187 -2.2246
 8448TIP3   OH249538   2.944   2.112  12.567  0.3567  0.0247 -0.4423
 8448TIP3    H149539   2.928   2.192  12.517 -1.1869 -0.9627 -1.6570
 8448TIP3    H249540   2.859   2.067  12.568  1.8273 -3.2419 -2.8671
 8449TIP3   OH249541   5.073   3.161  11.714 -0.6146 -0.1878 -0.0341
 8449TIP3    H149542   5.141   3.160  11.647 -0.1479  1.5882  0.3760
 8449TIP3    H249543   5.012   3.229  11.686 -1.4199 -0.7095  0.4008
 8450TIP3   OH249544   6.285   0.472   9.706 -0.4666  0.0684 -0.4395
 8450TIP3    H149545   6.281   0.544   9.642 -1.6206 -0.5235 -1.0615
 8450TIP3    H249546   6.320   0.398   9.656 -0.2120 -0.0661 -0.0599
 8451TIP3   OH249547   0.120   5.609  12.042  0.0332  0.3156 -0.1505
 8451TIP3    H149548   0.105   5.566  12.126  0.8558 -0.4269 -0.3687
 8451TIP3    H249549   0.056   5.568  11.983  0.6530 -0.4488 -0.3004
 8452TIP3   OH249550   2.217   3.822   9.528 -0.1345 -0.2672 -0.4348
 8452TIP3    H149551   2.298   3.796   9.573  0.0055  1.0061  0.0862
 8452TIP3    H249552   2.220   3.918   9.527  0.2241 -0.1801 -3.7599
 8453TIP3   OH249553   1.731   3.316  11.055 -0.4859 -0.4911  0.1468
 8453TIP3    H149554   1.680   3.393  11.079 -1.7656 -0.5950 -1.9928
 8453TIP3    H249555   1.745   3.324  10.961  1.5730 -1.6092  0.2952
 8454TIP3   OH249556   4.811   0.463  12.307 -0.2086  0.1157 -0.3554
 8454TIP3    H149557   4.771   0.464  12.394 -1.9073 -0.1935 -1.0892
 8454TIP3    H249558   4.826   0.371  12.289 -0.6564  0.1132 -0.7283
 8455TIP3   OH249559   1.777   5.423  13.059 -0.0624 -0.1046  0.3164
 8455TIP3    H149560   1.683   5.411  13.076 -0.5383  0.9883 -1.3583
 8455TIP3    H249561   1.790   5.518  13.064  0.7692 -0.1769 -0.3365
 8456TIP3   OH249562   1.706   5.169   9.726  0.7557  0.3963  0.3039
 8456TIP3    H149563   1.633   5.106   9.729 -1.2049  2.5879  2.5851
 8456TIP3    H249564   1.736   5.176   9.817  2.4402  1.1271 -0.2687
 8457TIP3   OH249565   3.555   3.449  12.360  0.0871  0.1284  0.5215
 8457TIP3    H149566   3.627   3.512  12.360  0.3489 -0.0815  2.8663
 8457TIP3    H249567   3.483   3.494  12.405 -1.1662  0.1915 -1.4324
 8458TIP3   OH249568   4.091   0.399  11.096 -0.5653  0.1307  0.0303
 8458TIP3    H149569   4.173   0.350  11.107  0.7277  2.0582 -0.4285
 8458TIP3    H249570   4.107   0.482  11.141 -2.4621  0.3879  0.2933
 8459TIP3   OH249571   1.426   0.808  10.790 -0.6572  0.3899  0.5531
 8459TIP3    H149572   1.494   0.844  10.733  0.0977  1.1731  1.9059
 8459TIP3    H249573   1.353   0.788  10.731  0.9717 -1.1342 -1.0557
 8460TIP3   OH249574   2.840   1.515  11.386  0.4941 -0.5055  0.2049
 8460TIP3    H149575   2.907   1.460  11.427  0.0516 -1.7051 -0.6163
 8460TIP3    H249576   2.840   1.488  11.295 -0.9891 -0.4143  0.1525
 8461TIP3   OH249577   4.404   2.063  10.593  0.0634  0.0481  0.2460
 8461TIP3    H149578   4.497   2.042  10.595 -0.3586 -1.9660  1.0019
 8461TIP3    H249579   4.360   1.981  10.617 -1.9330  0.7906 -0.6509
 8462TIP3   OH249580   6.277   1.631  11.778  0.8128  0.0307 -0.5330
 8462TIP3    H149581   6.257   1.608  11.868 -1.1168  0.8410 -0.7132
 8462TIP3    H249582   6.344   1.700  11.785  1.5296 -0.7158  0.2031
 8463TIP3   OH249583   3.743   0.691   9.703  0.6490  0.3575 -0.2112
 8463TIP3    H149584   3.737   0.767   9.645 -1.2387  0.4528  0.0473
 8463TIP3    H249585   3.828   0.700   9.746  2.2755  0.1307 -3.1159
 8464TIP3   OH249586   4.111   4.398  10.121  0.1213 -0.3041 -0.0982
 8464TIP3    H149587   4.118   4.493  10.107 -0.4092 -0.0211  1.3611
 8464TIP3    H249588   4.138   4.386  10.212 -2.7895 -1.1191  0.7729
 8465TIP3   OH249589   5.855   1.644  10.849  0.3498 -0.0634  0.0417
 8465TIP3    H149590   5.887   1.676  10.765 -0.5107 -0.7824 -0.5683
 8465TIP3    H249591   5.790   1.709  10.876  2.4275  1.6096  1.4635
 8466TIP3   OH249592   3.751   2.009  10.196 -0.2641  0.2918  1.4816
 8466TIP3    H149593   3.788   2.083  10.147 -2.7739 -0.5969 -2.1189
 8466TIP3    H249594   3.818   1.989  10.262  1.8329  3.8235  0.7070
 8467TIP3   OH249595   2.213   1.484  10.734  0.1396  0.4553  0.4002
 8467TIP3    H149596   2.124   1.451  10.724  0.4641  0.0831 -1.7531
 8467TIP3    H249597   2.234   1.468  10.826 -1.5279 -0.6926  0.6331
 8468TIP3   OH249598   4.756   0.391  11.953 -0.3299 -0.1380 -0.3025
 8468TIP3    H149599   4.827   0.437  11.998 -1.0574  0.9810 -0.2606
 8468TIP3    H249600   4.677   0.434  11.983 -0.8567  0.6026 -2.5679
 8469TIP3   OH249601   0.928   2.558  10.201 -0.1093  0.5796 -0.0987
 8469TIP3    H149602   0.930   2.477  10.253  0.4020 -0.2622 -1.3939
 8469TIP3    H249603   0.835   2.577  10.190 -0.2478  1.0536  1.4875
 8470TIP3   OH249604   1.133   2.797  10.708 -0.0248 -0.3349 -0.7613
 8470TIP3    H149605   1.112   2.809  10.801 -1.5889 -0.5438 -1.0592
 8470TIP3    H249606   1.059   2.837  10.662  1.6146  1.4391 -1.9687
 8471TIP3   OH249607   5.392   2.669  10.453 -0.3615  0.0974  0.5275
 8471TIP3    H149608   5.424   2.586  10.417 -0.9590  0.3975 -0.7364
 8471TIP3    H249609   5.418   2.735  10.389 -3.1449  0.4021 -0.4180
 8472TIP3   OH249610   5.633   3.900  11.653  0.3686 -0.2828 -0.2790
 8472TIP3    H149611   5.674   3.841  11.590 -0.4886 -0.1197 -1.0117
 8472TIP3    H249612   5.565   3.848  11.695  0.1253 -0.0494 -0.3758
 8473TIP3   OH249613   1.739   5.061  11.810  0.3280  0.4619  0.0132
 8473TIP3    H149614   1.770   4.970  11.814  0.0832  0.3372 -0.7899
 8473TIP3    H249615   1.657   5.056  11.762 -1.2100  0.7329  2.4265
 8474TIP3   OH249616   2.803   6.119  10.399  0.4592 -0.2675  0.1199
 8474TIP3    H149617   2.842   6.144  10.483  3.2196 -0.1116 -1.0851
 8474TIP3    H249618   2.775   6.202  10.360  0.8065 -0.1331  0.1530
 8475TIP3   OH249619   4.808   2.325   9.468  0.7471  0.5701  0.2028
 8475TIP3    H149620   4.842   2.258   9.527  1.8280  0.8782 -0.0515
 8475TIP3    H249621   4.779   2.276   9.391 -0.7064  0.1628  0.9560
 8476TIP3   OH249622   1.900   1.551  11.780 -0.0432  0.1677 -0.7386
 8476TIP3    H149623   1.955   1.553  11.858  1.0170  0.6714 -1.4777
 8476TIP3    H249624   1.915   1.465  11.742 -0.5474 -0.0717 -0.4068
 8477TIP3   OH249625   5.001   5.753  11.064  0.1603  0.6498  0.0036
 8477TIP3    H149626   5.055   5.826  11.094 -0.8644  0.9346  1.2529
 8477TIP3    H249627   4.959   5.720  11.144 -0.6641 -0.2435 -0.7769
 8478TIP3   OH249628   0.014   5.835  10.463 -0.2933 -0.1984  0.4979
 8478TIP3    H149629   0.023   5.906  10.400  1.3844 -0.3805  0.4965
 8478TIP3    H249630   0.104   5.810  10.485 -0.8443 -1.2787  1.6775
 8479TIP3   OH249631   6.553   0.939  10.735 -0.3166  0.0013 -0.5650
 8479TIP3    H149632   6.493   0.980  10.797  1.1006  0.1326  0.8111
 8479TIP3    H249633   6.624   0.906  10.791 -0.5893 -2.9035 -1.7437
 8480TIP3   OH249634   3.630   5.252  10.926 -0.3146  0.0177 -0.1233
 8480TIP3    H149635   3.609   5.341  10.954 -1.9366 -0.1918 -0.6032
 8480TIP3    H249636   3.566   5.232  10.858  0.4945 -1.2551 -0.5473
 8481TIP3   OH249637   5.512   3.108  10.378 -0.0914 -0.1289  0.1010
 8481TIP3    H149638   5.437   3.153  10.417 -0.5119 -0.4153 -0.3585
 8481TIP3    H249639   5.552   3.173  10.321  1.3561  0.7383  2.0187
 8482TIP3   OH249640   5.858   5.722  10.894  0.0075  0.0938  0.6262
 8482TIP3    H149641   5.872   5.741  10.801 -3.0906 -2.7700 -0.6392
 8482TIP3    H249642   5.763   5.720  10.903  0.2325 -0.8824  3.6148
 8483TIP3   OH249643   0.611   6.014  10.970  0.3628  0.4821  0.4896
 8483TIP3    H149644   0.621   5.952  10.897  0.1766  1.5263 -0.4426
 8483TIP3    H249645   0.666   6.088  10.946 -0.5510  1.3076  0.8839
 8484TIP3   OH249646   2.259   4.432  11.612  0.2674  0.0507  0.2530
 8484TIP3    H149647   2.204   4.357  11.636  0.5287 -0.0031  0.7044
 8484TIP3    H249648   2.224   4.462  11.528 -0.1598 -0.2640  0.3151
 8485TIP3   OH249649   0.621   3.460  11.310 -0.8782 -0.1299 -0.2987
 8485TIP3    H149650   0.642   3.496  11.396 -0.4980 -0.2239 -0.3495
 8485TIP3    H249651   0.690   3.395  11.294 -1.9769 -1.4571  0.1346
 8486TIP3   OH249652   3.938   3.653  10.444 -0.7925 -0.3254 -0.3575
 8486TIP3    H149653   4.024   3.674  10.407 -0.6178 -1.1620 -0.4526
 8486TIP3    H249654   3.950   3.568  10.486 -1.6533 -0.5997 -0.6371
 8487TIP3   OH249655   3.022   3.997   9.748  0.4307 -0.0583  0.6804
 8487TIP3    H149656   2.952   4.046   9.792 -1.0496 -1.7813  0.3525
 8487TIP3    H249657   3.032   3.917   9.799  1.2637 -0.4243 -0.0257
 8488TIP3   OH249658   3.172   1.007  11.251  0.0277  0.1884  0.5958
 8488TIP3    H149659   3.251   1.060  11.253 -0.2919  0.7474 -0.7403
 8488TIP3    H249660   3.190   0.938  11.186 -0.7339  0.6007 -0.0719
 8489TIP3   OH249661   0.546   5.497  10.782 -0.3746 -0.1213  0.1198
 8489TIP3    H149662   0.593   5.416  10.798  0.1314  0.0912 -0.2687
 8489TIP3    H249663   0.566   5.519  10.691  0.1160  0.8391  0.4448
 8490TIP3   OH249664   1.674   4.750   9.871  0.2342  0.0674  0.5490
 8490TIP3    H149665   1.641   4.762   9.960 -0.1956  0.1178  0.3878
 8490TIP3    H249666   1.598   4.765   9.815  0.8381  1.6403  0.0894
 8491TIP3   OH249667   6.345   3.999  10.505  0.0678 -0.4335 -0.1670
 8491TIP3    H149668   6.367   4.055  10.579  1.2108 -1.5624  0.3705
 8491TIP3    H249669   6.361   4.054  10.428  1.4608 -0.0951  0.3404
 8492TIP3   OH249670   2.789   0.034  10.758 -0.3747  0.0295  0.2872
 8492TIP3    H149671   2.750   0.056  10.843 -0.4339  1.1992 -0.0322
 8492TIP3    H249672   2.881   0.057  10.768 -0.8399  2.7489 -0.7790
 8493TIP3   OH249673   3.109   3.773   9.893 -0.6087  0.3036 -0.2174
 8493TIP3    H149674   3.060   3.785   9.974  0.5438  1.6513  0.3342
 8493TIP3    H249675   3.161   3.694   9.907  0.6600  1.2989  0.9805
 8494TIP3   OH249676   3.508   5.781  11.296  0.5352 -0.2744 -0.5562
 8494TIP3    H149677   3.477   5.691  11.311  0.5376 -0.1465  0.2465
 8494TIP3    H249678   3.513   5.788  11.201 -0.8646 -0.6505 -0.6904
 8495TIP3   OH249679   1.724   3.688  11.344 -0.2044 -0.5563 -1.0498
 8495TIP3    H149680   1.715   3.616  11.281  1.2116 -1.3062 -0.4357
 8495TIP3    H249681   1.803   3.735  11.316 -2.0439  1.9324 -2.5167
 8496TIP3   OH249682   2.247   0.386  11.652 -0.5138  0.0475  0.0137
 8496TIP3    H149683   2.254   0.291  11.661 -0.4179  0.0300 -0.2289
 8496TIP3    H249684   2.182   0.398  11.583 -0.5110  0.1574  0.0309
 8497TIP3   OH249685   4.053   2.190  10.327 -0.2211 -0.7969 -0.5281
 8497TIP3    H149686   4.141   2.211  10.296 -1.6318  1.8932 -3.2766
 8497TIP3    H249687   4.055   2.095  10.342  2.6550 -1.1105 -2.1759
 8498TIP3   OH249688   2.095   3.006  10.461  0.3130 -0.5205 -0.2993
 8498TIP3    H149689   2.078   3.080  10.519  1.3810 -0.9194  0.5663
 8498TIP3    H249690   2.010   2.964  10.448  0.0832 -0.5502  1.1764
 8499TIP3   OH249691   3.175   0.172  12.664 -0.4857 -0.1526  0.9138
 8499TIP3    H149692   3.157   0.078  12.659  0.8916 -0.4171  0.5749
 8499TIP3    H249693   3.255   0.178  12.716 -0.3757  0.8222  0.6431
 8500TIP3   OH249694   2.864   2.757  10.830 -0.4959 -0.3648  0.2040
 8500TIP3    H149695   2.780   2.712  10.820 -0.1925 -1.0632  0.7072
 8500TIP3    H249696   2.857   2.799  10.916 -1.2856  1.6904 -0.7926
 8501TIP3   OH249697   3.544   1.040  10.728 -0.4019  0.0710  0.5150
 8501TIP3    H149698   3.614   1.034  10.663  0.0196  0.4168  0.9252
 8501TIP3    H249699   3.525   1.134  10.735  1.3693  0.3591  2.7271
 8502TIP3   OH249700   3.323   1.882   9.381  0.0858 -0.1832 -0.0782
 8502TIP3    H149701   3.354   1.940   9.450 -0.5747  0.4994 -0.3331
 8502TIP3    H249702   3.366   1.914   9.302  0.3436 -0.5521 -0.0851
 8503TIP3   OH249703   2.785   0.388  12.252  0.2352  0.0019  0.1133
 8503TIP3    H149704   2.700   0.422  12.225  0.3963  1.2982  1.1102
 8503TIP3    H249705   2.806   0.438  12.331  2.8216  1.1990 -1.2112
 8504TIP3   OH249706   2.170   6.195  12.448  0.5088 -0.0798  0.1091
 8504TIP3    H149707   2.249   6.168  12.495  0.9853 -1.2101 -1.2587
 8504TIP3    H249708   2.201   6.257  12.382  0.0219  0.6093  0.5158
 8505TIP3   OH249709   2.150   4.172  10.812 -0.1796  0.1497 -0.2045
 8505TIP3    H149710   2.163   4.228  10.735 -1.0318 -0.1019 -0.5327
 8505TIP3    H249711   2.194   4.090  10.790 -0.1772  0.1785 -0.3071
 8506TIP3   OH249712   5.282   4.221  12.647 -0.3485 -0.6719 -0.0001
 8506TIP3    H149713   5.377   4.210  12.639 -0.1176  0.8898  0.1919
 8506TIP3    H249714   5.245   4.140  12.611  1.0514 -1.3142 -0.0550
 8507TIP3   OH249715   3.734   5.506  12.909 -0.0990  0.6781 -0.0286
 8507TIP3    H149716   3.660   5.501  12.969  0.0656  1.9991  0.3138
 8507TIP3    H249717   3.811   5.499  12.965  0.0589 -0.5390 -0.3681
 8508TIP3   OH249718   5.722   6.537  11.013 -0.1055 -0.0494 -0.0472
 8508TIP3    H149719   5.629   6.528  11.035 -0.1302 -0.2643 -0.2403
 8508TIP3    H249720   5.723   6.595  10.937 -0.0696  0.0711  0.0433
 8509TIP3   OH249721   5.123   5.411  10.121 -0.4384  0.3671  0.2067
 8509TIP3    H149722   5.066   5.392  10.196 -0.2848 -0.4368  0.1235
 8509TIP3    H249723   5.184   5.477  10.155  0.0294 -0.4373  1.0034
 8510TIP3   OH249724   4.192   1.956  10.853  0.1520  0.2314  0.2302
 8510TIP3    H149725   4.099   1.962  10.835  0.1536 -0.7367 -0.1259
 8510TIP3    H249726   4.225   1.890  10.792  0.7452 -0.7120  1.5194
 8511TIP3   OH249727   5.106   2.775  10.455  0.3839 -0.2564 -0.6984
 8511TIP3    H149728   5.169   2.709  10.483 -1.0373 -1.3162  0.1408
 8511TIP3    H249729   5.066   2.739  10.376 -1.8849 -1.5298  0.8752
 8512TIP3   OH249730   3.605   1.764  12.047  0.0849 -0.2166  0.4290
 8512TIP3    H149731   3.617   1.849  12.089 -1.1091 -0.1568  0.6721
 8512TIP3    H249732   3.628   1.700  12.114  1.1491 -0.0996  0.1939
 8513TIP3   OH249733   4.603   4.761  11.098  0.0240 -0.2579  0.2875
 8513TIP3    H149734   4.651   4.708  11.162  1.4980  1.7721  0.9798
 8513TIP3    H249735   4.646   4.741  11.014  0.1655 -0.5979  0.4373
 8514TIP3   OH249736   1.408   5.167  12.499  0.2571 -0.3518  0.1475
 8514TIP3    H149737   1.387   5.137  12.410 -1.6028 -0.7843  0.6886
 8514TIP3    H249738   1.388   5.092  12.555 -0.1049  0.4254  1.0847
 8515TIP3   OH249739   1.030   2.038   9.683 -0.2735  0.5168  0.1181
 8515TIP3    H149740   0.948   2.055   9.729  0.5076  0.3063  1.6458
 8515TIP3    H249741   1.040   1.943   9.684 -0.4538  0.4809 -0.8753
 8516TIP3   OH249742   2.118   1.295  10.003 -0.0435  0.2742  0.1122
 8516TIP3    H149743   2.094   1.293   9.910 -1.7087  0.1614  0.5245
 8516TIP3    H249744   2.207   1.260  10.005 -1.3250 -3.5671 -1.0435
 8517TIP3   OH249745   1.721   4.490   9.944 -0.3287 -0.7221  0.2106
 8517TIP3    H149746   1.706   4.554   9.875 -0.2494  0.3587  1.1778
 8517TIP3    H249747   1.789   4.528   9.999 -0.0958 -1.7522  0.6660
 8518TIP3   OH249748   4.472   5.414   9.608  0.6078 -0.0544 -0.1276
 8518TIP3    H149749   4.379   5.411   9.586 -0.5656  1.1581  3.8572
 8518TIP3    H249750   4.491   5.327   9.642  0.1829  0.3926  1.3321
 8519TIP3   OH249751   6.536   1.693  10.659  0.0704 -0.3446 -0.2872
 8519TIP3    H149752   6.610   1.632  10.663  0.2410 -0.0721  1.6119
 8519TIP3    H249753   6.460   1.639  10.678 -0.2823 -0.6367 -2.3061
 8520TIP3   OH249754   2.686   4.962  11.157 -0.1173  0.0128 -1.0646
 8520TIP3    H149755   2.712   4.944  11.067  0.4527 -4.2285 -0.2658
 8520TIP3    H249756   2.749   5.028  11.187  0.9846  0.0098 -3.1614
 8521TIP3   OH249757   1.865   0.385  11.231  0.1013 -0.3454  0.9571
 8521TIP3    H149758   1.870   0.346  11.143 -0.2608 -0.3511  0.9383
 8521TIP3    H249759   1.781   0.432  11.231  0.8534  1.0611  0.7136
 8522TIP3   OH249760   3.451   2.315  11.178 -0.7847  0.0776 -0.5394
 8522TIP3    H149761   3.421   2.317  11.269 -0.7525 -1.5477 -0.4741
 8522TIP3    H249762   3.462   2.407  11.155 -1.7295  0.5547  0.7852
 8523TIP3   OH249763   6.212   1.659  12.069  0.1333  0.3034 -0.6038
 8523TIP3    H149764   6.120   1.635  12.070  0.4506 -1.2182  2.0181
 8523TIP3    H249765   6.258   1.580  12.042  0.7825  0.2561  0.5670
 8524TIP3   OH249766   2.194   6.368  10.052 -0.1206  0.6257  0.3135
 8524TIP3    H149767   2.191   6.372   9.957 -1.5144  1.3207  0.3644
 8524TIP3    H249768   2.242   6.287  10.071 -1.7099 -0.7132 -1.0073
 8525TIP3   OH249769   5.550   5.306   9.099  0.1161  0.4387 -0.2025
 8525TIP3    H149770   5.530   5.395   9.128  1.0451 -0.0087  1.9849
 8525TIP3    H249771   5.476   5.282   9.043 -0.6147  2.2351 -0.0608
 8526TIP3   OH249772   4.468   2.057  11.804  0.2967 -0.2089  0.4243
 8526TIP3    H149773   4.379   2.075  11.835 -0.0788 -1.5700  0.1867
 8526TIP3    H249774   4.494   2.137  11.758 -0.7689  0.2323  0.5630
 8527TIP3   OH249775   4.019   4.131  11.082  0.0227  0.4823 -0.0390
 8527TIP3    H149776   4.008   4.143  10.988  0.7271 -0.0145 -0.1963
 8527TIP3    H249777   4.070   4.050  11.090  0.5596  0.8873  0.7441
 8528TIP3   OH249778   2.820   5.910  12.731  0.1337 -0.0412  0.0836
 8528TIP3    H149779   2.907   5.901  12.692 -0.1553  1.3652 -0.9669
 8528TIP3    H249780   2.814   5.837  12.794  2.0889 -0.1042  0.2567
 8529TIP3   OH249781   5.869   1.228   9.285 -0.1087  0.2676 -0.2284
 8529TIP3    H149782   5.909   1.291   9.345  1.3450 -0.2461 -0.6398
 8529TIP3    H249783   5.890   1.261   9.198 -1.5429  0.5841 -0.4836
 8530TIP3   OH249784   2.049   4.344  11.886 -0.1699 -0.4954 -0.6198
 8530TIP3    H149785   2.134   4.343  11.929 -0.9952 -1.0157  1.0986
 8530TIP3    H249786   2.043   4.431  11.847  0.3707  0.2763  0.9218
 8531TIP3   OH249787   4.252   0.352   9.703  0.0912  0.0835 -0.3521
 8531TIP3    H149788   4.220   0.287   9.640 -0.6443  1.3051 -1.2768
 8531TIP3    H249789   4.173   0.378   9.752 -0.3865  2.7941 -2.3435
 8532TIP3   OH249790   1.926   4.947  10.063  0.2226 -0.1491  0.2488
 8532TIP3    H149791   2.010   4.990  10.073  0.5897 -0.4789 -1.1934
 8532TIP3    H249792   1.865   5.017  10.042  0.6181 -0.1825 -1.0723
 8533TIP3   OH249793   5.065   5.184  11.490 -0.2647  0.2026  0.1950
 8533TIP3    H149794   5.102   5.260  11.445 -0.2633  0.4820  0.6632
 8533TIP3    H249795   5.101   5.108  11.444 -0.9723  0.4848 -0.8462
 8534TIP3   OH249796   5.361   1.519  11.973  0.0998  0.4793  0.2969
 8534TIP3    H149797   5.353   1.480  11.886  1.3354  0.4651  0.1776
 8534TIP3    H249798   5.326   1.452  12.032 -0.4375  0.3549 -0.1505
 8535TIP3   OH249799   3.599   2.143   9.958  0.1196  0.2409 -0.0402
 8535TIP3    H149800   3.583   2.193  10.038 -0.9466  1.6653 -1.0919
 8535TIP3    H249801   3.520   2.090   9.947  0.5613 -0.4843  0.1947
 8536TIP3   OH249802   5.260   5.990  10.040 -0.2820 -0.4613 -0.0869
 8536TIP3    H149803   5.247   6.038  10.122 -0.4454  1.5859 -1.2284
 8536TIP3    H249804   5.177   5.944  10.026 -1.4609  1.6463 -0.5681
 8537TIP3   OH249805   6.342   0.684   9.552 -0.4703 -0.1630  0.0891
 8537TIP3    H149806   6.332   0.720   9.464  2.5938 -0.5789 -0.5509
 8537TIP3    H249807   6.290   0.741   9.608  0.8209  2.7466 -1.4541
 8538TIP3   OH249808   4.829   6.337  11.788 -0.1798  0.3276  0.0320
 8538TIP3    H149809   4.762   6.293  11.841  1.2794 -0.2506  1.4641
 8538TIP3    H249810   4.787   6.349  11.702 -2.0066 -0.2608  0.7843
 8539TIP3   OH249811   6.073   0.152  11.670 -0.6708 -0.3602 -0.1973
 8539TIP3    H149812   6.066   0.148  11.765 -1.0266 -2.2590 -0.2706
 8539TIP3    H249813   5.988   0.186  11.641 -0.3375  0.8322  0.1681
 8540TIP3   OH249814   1.174   4.992  10.668  0.3989 -0.5735 -0.7138
 8540TIP3    H149815   1.101   5.051  10.688  0.3916 -0.8190 -0.0113
 8540TIP3    H249816   1.231   5.044  10.612 -0.7372 -0.6539 -2.0133
 8541TIP3   OH249817   5.859   3.372  12.710  0.3128  0.6449 -0.0455
 8541TIP3    H149818   5.953   3.382  12.694  0.6216  0.4534  1.5208
 8541TIP3    H249819   5.854   3.310  12.783 -1.0679  0.1093 -0.5765
 8542TIP3   OH249820   2.376   1.619   9.523 -0.6178 -0.0818 -0.4387
 8542TIP3    H149821   2.458   1.599   9.479 -0.7326  1.2989 -1.3443
 8542TIP3    H249822   2.395   1.608   9.616  0.5770  0.2134 -0.6376
 8543TIP3   OH249823   0.955   1.904  11.302  0.6864 -0.3875  0.0030
 8543TIP3    H149824   1.004   1.977  11.340  0.4985  0.3410 -1.1198
 8543TIP3    H249825   1.015   1.864  11.240  0.8950 -1.4062  0.8316
 8544TIP3   OH249826   5.059   2.917  12.569  0.3112 -0.0790  0.3189
 8544TIP3    H149827   4.998   2.978  12.611  0.2545  0.4263 -0.4947
 8544TIP3    H249828   5.145   2.951  12.591  0.3081 -0.4654  0.9758
 8545TIP3   OH249829   2.135   2.193  11.764 -0.2814  0.3210 -0.0126
 8545TIP3    H149830   2.125   2.261  11.831 -1.5634 -0.6042  0.7704
 8545TIP3    H249831   2.213   2.220  11.714 -0.3546  1.9801  0.7072
 8546TIP3   OH249832   1.481   5.703  11.417 -0.6283 -0.0775 -0.1672
 8546TIP3    H149833   1.487   5.642  11.491  1.5417 -1.2945 -1.2407
 8546TIP3    H249834   1.463   5.647  11.342  1.3087  0.5488 -1.1658
 8547TIP3   OH249835   2.538   3.245   9.793  0.1479  0.1115  0.1344
 8547TIP3    H149836   2.600   3.181   9.757 -0.0549  0.2776 -0.5240
 8547TIP3    H249837   2.585   3.328   9.788  1.2229 -0.2356  2.9178
 8548TIP3   OH249838   2.404   5.800  13.025  0.4482 -0.1898  0.1419
 8548TIP3    H149839   2.403   5.821  12.932 -1.9268  0.7381  0.3130
 8548TIP3    H249840   2.394   5.884  13.070 -1.8331 -0.8965  1.0873
 8549TIP3   OH249841   6.257   3.652  12.281 -0.3108  0.1417  0.1900
 8549TIP3    H149842   6.214   3.709  12.344 -0.7786  1.2254 -1.0516
 8549TIP3    H249843   6.287   3.577  12.332 -0.1762  1.2298  1.7695
 8550TIP3   OH249844   5.104   6.273  19.100  0.4659  0.1346 -0.6374
 8550TIP3    H149845   5.140   6.281  19.189 -0.5342  0.5977 -0.2642
 8550TIP3    H249846   5.086   6.363  19.073 -0.3447 -0.0830 -0.8385
 8551TIP3   OH249847   4.326   1.576  10.488  0.1674  0.2474  0.0616
 8551TIP3    H149848   4.341   1.496  10.539 -0.8644 -0.4047 -0.6154
 8551TIP3    H249849   4.277   1.546  10.412 -0.2227  1.5386 -0.2125
 8552TIP3   OH249850   1.910   2.822  10.153  0.1530 -0.4201  0.3536
 8552TIP3    H149851   1.993   2.863  10.128 -0.8420  1.7693  0.4341
 8552TIP3    H249852   1.894   2.757  10.085 -0.3311  2.3694 -2.4423
 8553TIP3   OH249853   0.486   4.001  10.667 -1.0065 -0.2746 -0.4279
 8553TIP3    H149854   0.569   4.002  10.620  0.3301 -0.1469  1.7701
 8553TIP3    H249855   0.483   3.916  10.710 -1.2229  0.3010  0.7545
 8554TIP3   OH249856   1.138   4.264  10.706 -0.2579  0.8831  0.1243
 8554TIP3    H149857   1.152   4.301  10.793 -1.9921  0.0784  0.7858
 8554TIP3    H249858   1.083   4.187  10.721  0.1107  0.2399 -1.6031
 8555TIP3   OH249859   3.129   0.028   9.651 -0.1934 -0.6581 -0.1886
 8555TIP3    H149860   3.177   0.093   9.599 -0.9767 -0.8545 -1.1922
 8555TIP3    H249861   3.177   0.024   9.734  0.6620  0.2051 -0.6128
 8556TIP3   OH249862   4.968   5.615   9.200 -0.4745 -0.4221 -0.0808
 8556TIP3    H149863   5.018   5.555   9.145 -0.3575  0.0108 -0.4459
 8556TIP3    H249864   4.916   5.557   9.257  1.4107 -0.9084  1.2392
 8557TIP3   OH249865   5.465   5.383  10.197 -0.0943 -0.2543 -0.6011
 8557TIP3    H149866   5.502   5.413  10.115 -2.3953 -1.5031 -2.2101
 8557TIP3    H249867   5.389   5.440  10.212 -1.8761 -2.2936 -1.3711
 8558TIP3   OH249868   5.976   4.305  10.125  0.5296  0.1525  0.0838
 8558TIP3    H149869   6.035   4.333  10.195 -0.9231  1.3767  0.8829
 8558TIP3    H249870   5.985   4.210  10.123  0.0638 -0.0088  2.4853
 8559TIP3   OH249871   6.527   0.013  10.912 -0.8883  0.5752 -0.2542
 8559TIP3    H149872   6.493  -0.036  10.987 -0.6896  1.2900  0.3107
 8559TIP3    H249873   6.601  -0.039  10.881 -1.8317 -0.4696 -0.8655
 8560TIP3   OH249874   3.867   6.391  12.497  0.1049 -0.1470 -0.2408
 8560TIP3    H149875   3.931   6.321  12.482  0.7096  0.3768 -0.1054
 8560TIP3    H249876   3.784   6.344  12.508  0.6194 -0.8940  0.5816
 8561TIP3   OH249877   2.036   4.192  10.133  0.0961 -0.6075  0.7003
 8561TIP3    H149878   2.046   4.231  10.219  1.4480  0.6776 -0.0018
 8561TIP3    H249879   2.117   4.144  10.119 -0.8469 -2.3410  0.8418
 8562TIP3   OH249880   0.922   2.000  18.079  0.0889  0.2408 -0.1390
 8562TIP3    H149881   0.934   1.926  18.019  0.4078  0.4142 -0.2943
 8562TIP3    H249882   0.888   1.961  18.159 -1.3434  0.1339 -0.7767
 8563TIP3   OH249883   0.085   1.573  12.255  0.1738  0.7878 -0.4912
 8563TIP3    H149884  -0.010   1.576  12.240 -0.0999 -1.3860  0.4606
 8563TIP3    H249885   0.094   1.586  12.349  0.5512 -1.7982 -0.1102
 8564TIP3   OH249886   3.456   0.788   9.603 -0.3597  0.0415 -0.3999
 8564TIP3    H149887   3.471   0.716   9.665 -0.7945 -0.3855 -0.7802
 8564TIP3    H249888   3.521   0.854   9.627  0.4073 -0.6983 -0.3860
 8565TIP3   OH249889   6.007   5.585   9.503 -0.0189  0.1612  0.0078
 8565TIP3    H149890   6.064   5.662   9.499  0.3962 -0.1644 -0.4165
 8565TIP3    H249891   6.053   5.518   9.453 -1.2763  0.2116 -1.2981
 8566TIP3   OH249892   5.782   4.695  12.044  0.6999 -0.1478  0.5495
 8566TIP3    H149893   5.774   4.763  12.111 -2.6551  0.1295  0.0664
 8566TIP3    H249894   5.713   4.632  12.065  1.6150 -1.7144 -0.8794
 8567TIP3   OH249895   1.693   1.149  10.785  0.1670 -0.2796  0.0396
 8567TIP3    H149896   1.684   1.225  10.726  2.3122  0.5871  0.7394
 8567TIP3    H249897   1.684   1.073  10.728 -0.4498  0.5162 -0.9553
 8568TIP3   OH249898   3.735   0.848  12.679 -0.8640  0.1477 -0.3351
 8568TIP3    H149899   3.683   0.854  12.758 -0.7454  0.5542 -0.2815
 8568TIP3    H249900   3.772   0.936  12.668 -1.3595  0.2654 -1.1641
 8569TIP3   OH249901   2.109   3.248  10.680 -0.1599 -0.1867 -0.3409
 8569TIP3    H149902   2.073   3.302  10.751  0.7539 -0.8974  0.7004
 8569TIP3    H249903   2.195   3.220  10.713 -0.1517 -1.3725 -1.3195
 8570TIP3   OH249904   6.139   2.047  11.867  0.0654  0.3538  0.0673
 8570TIP3    H149905   6.065   1.992  11.895  0.8712  0.0751  1.8186
 8570TIP3    H249906   6.180   1.997  11.797 -1.3541  0.5007 -0.9271
 8571TIP3   OH249907   0.539   1.542  10.955  0.3514  0.4146  0.4341
 8571TIP3    H149908   0.547   1.636  10.940 -1.0402  0.8988  2.2997
 8571TIP3    H249909   0.510   1.534  11.046 -0.1225 -1.8009  0.1650
 8572TIP3   OH249910   6.283   0.120   9.984 -0.2460  0.2557  0.1218
 8572TIP3    H149911   6.268   0.142  10.076  0.4397 -2.5098  0.9992
 8572TIP3    H249912   6.375   0.138   9.969 -0.2685  0.3408  0.0831
 8573TIP3   OH249913   2.592   2.004   9.525  0.3140 -0.3864 -0.8572
 8573TIP3    H149914   2.572   1.972   9.612  1.0863 -1.7779 -1.1641
 8573TIP3    H249915   2.531   1.958   9.467  1.8391 -1.8529 -1.3724
 8574TIP3   OH249916   3.631   3.481  11.037  0.6570  0.0554 -0.3886
 8574TIP3    H149917   3.714   3.460  11.079  0.7934 -0.0892 -0.7204
 8574TIP3    H249918   3.652   3.553  10.978  0.4863  0.2023 -0.2702
 8575TIP3   OH249919   6.476   0.519  12.047  0.2623 -0.2826 -0.3182
 8575TIP3    H149920   6.548   0.552  11.992 -0.5798 -0.1133 -1.3613
 8575TIP3    H249921   6.397   0.536  11.995 -0.5112 -0.7065  0.6900
 8576TIP3   OH249922   5.612   1.498   9.841 -0.2515 -0.2369  0.2861
 8576TIP3    H149923   5.629   1.416   9.795  0.1595 -0.2765  0.5040
 8576TIP3    H249924   5.523   1.522   9.814 -1.0220 -1.5708  1.4193
 8577TIP3   OH249925   1.010   4.493  10.438 -0.6378  0.3032  0.0961
 8577TIP3    H149926   0.936   4.499  10.378  0.3282 -1.5748 -1.4006
 8577TIP3    H249927   1.081   4.539  10.393 -0.5868  1.1975  1.0534
 8578TIP3   OH249928   5.297   3.572  10.877 -1.0303 -0.5662  0.3034
 8578TIP3    H149929   5.336   3.488  10.851 -0.0173 -0.0511  0.1213
 8578TIP3    H249930   5.288   3.621  10.796  0.5106  0.3675  0.6581
 8579TIP3   OH249931   2.386   1.528  10.386  0.0128  0.0070  0.1102
 8579TIP3    H149932   2.425   1.440  10.382 -1.0248 -0.5080  0.9328
 8579TIP3    H249933   2.305   1.520  10.336  0.3469  0.7558 -0.5752
 8580TIP3   OH249934   4.296   3.623  11.852  0.0333  0.2437  0.1035
 8580TIP3    H149935   4.296   3.599  11.945 -1.5554  0.5505  0.2129
 8580TIP3    H249936   4.380   3.592  11.819 -0.3957 -2.1725  1.0539
 8581TIP3   OH249937   3.572   5.162  12.117 -0.6805  0.5220  0.4562
 8581TIP3    H149938   3.579   5.165  12.212  2.5227  1.2328  0.2990
 8581TIP3    H249939   3.620   5.084  12.091 -0.4285  1.0162 -0.6323
 8582TIP3   OH249940   1.032   5.436  10.789  0.9490 -0.5018 -0.5030
 8582TIP3    H149941   0.999   5.514  10.745  0.2007 -0.2505  0.4535
 8582TIP3    H249942   0.994   5.363  10.742  1.0385 -0.2688 -0.9365
 8583TIP3   OH249943   0.080   0.288  12.338  0.3793  0.3681  0.1102
 8583TIP3    H149944   0.085   0.221  12.270 -0.6240  0.5722 -0.1740
 8583TIP3    H249945  -0.008   0.324  12.330  0.1452  0.2102  1.7056
 8584TIP3   OH249946   5.049   2.445  12.645 -0.3862 -0.1555 -0.1808
 8584TIP3    H149947   5.058   2.386  12.719 -0.4433  1.3155  1.0386
 8584TIP3    H249948   4.955   2.447  12.627 -0.4061 -0.2473 -0.0864
 8585TIP3   OH249949   5.469   1.825  11.743  0.0301  0.0535  0.9351
 8585TIP3    H149950   5.392   1.781  11.705  0.6964  1.6799 -2.7335
 8585TIP3    H249951   5.519   1.754  11.783 -0.9227 -1.9056 -1.1030
 8586TIP3   OH249952   2.228   3.480  12.143 -0.3601  0.1989 -0.6622
 8586TIP3    H149953   2.271   3.517  12.220  1.9772  0.2160 -1.8949
 8586TIP3    H249954   2.201   3.557  12.092  1.0320  0.2401 -1.3788
 8587TIP3   OH249955   4.317   3.376  11.115  0.1946 -0.0806 -0.0979
 8587TIP3    H149956   4.408   3.360  11.090 -0.1803 -1.1002 -0.8832
 8587TIP3    H249957   4.320   3.457  11.166  1.2383  1.1264 -1.9796
 8588TIP3   OH249958   6.139   1.048  10.350 -0.8867 -0.5140  0.2313
 8588TIP3    H149959   6.089   1.031  10.270 -0.9935 -0.3527  0.2652
 8588TIP3    H249960   6.073   1.065  10.417 -0.8042 -0.8594  0.4042
 8589TIP3   OH249961   0.379   3.952  12.186  0.0909 -0.0894 -0.2598
 8589TIP3    H149962   0.283   3.951  12.182  0.1346 -0.5091 -1.5034
 8589TIP3    H249963   0.407   3.896  12.113  1.2819 -0.4864  0.4689
 8590TIP3   OH249964   3.220   2.472  11.256  0.2171 -0.0909 -0.4309
 8590TIP3    H149965   3.164   2.502  11.185  2.3401  0.5463 -1.9412
 8590TIP3    H249966   3.199   2.379  11.266 -0.9862  0.1029 -1.0537
 8591TIP3   OH249967   6.114   4.994  12.421  0.3965  0.0343  0.3196
 8591TIP3    H149968   6.091   4.962  12.508 -1.3729 -1.4550 -0.6211
 8591TIP3    H249969   6.034   5.033  12.388  1.0864  0.7046 -0.6025
 8592TIP3   OH249970   2.049   4.291  12.254  0.2612 -0.5530 -0.0779
 8592TIP3    H149971   2.110   4.311  12.184 -1.2347  1.7927 -0.8300
 8592TIP3    H249972   1.973   4.252  12.210 -1.2950  2.2359 -0.1178
 8593TIP3   OH249973   3.932   5.980  12.100 -0.4493  0.0353  0.3914
 8593TIP3    H149974   3.890   5.968  12.014 -0.8519 -0.0843  0.6038
 8593TIP3    H249975   3.862   6.013  12.156  0.2332  1.7599  0.2528
 8594TIP3   OH249976   4.071   2.945  11.006  0.7170 -0.2392  0.8712
 8594TIP3    H149977   4.112   3.016  11.056  0.2110 -0.1530  1.1679
 8594TIP3    H249978   4.022   2.895  11.071 -1.5046  0.9713  0.2307
 8595TIP3   OH249979   4.177   2.958  11.792  0.6308 -0.2790  0.3120
 8595TIP3    H149980   4.240   2.955  11.864  0.7016 -3.3142  0.2664
 8595TIP3    H249981   4.218   2.906  11.723 -0.3607  0.8177 -1.1616
 8596TIP3   OH249982   6.007   4.949  10.758 -0.2357  0.3114 -0.0190
 8596TIP3    H149983   6.010   5.043  10.774  1.1228  0.5234 -1.2900
 8596TIP3    H249984   6.092   4.916  10.788 -1.3032 -0.8425  1.9863
 8597TIP3   OH249985   0.439   6.294  10.236  0.4317 -0.2744  0.6161
 8597TIP3    H149986   0.455   6.271  10.328  0.7924 -0.2510  0.5609
 8597TIP3    H249987   0.345   6.310  10.231  0.6720  1.5076  1.3797
 8598TIP3   OH249988   2.842   3.600   9.887 -0.5079 -0.2441 -0.1954
 8598TIP3    H149989   2.866   3.684   9.925  0.5930  0.7017 -2.7464
 8598TIP3    H249990   2.924   3.551   9.882 -0.4734 -0.0611 -1.8990
 8599TIP3   OH249991   3.352   3.488  11.883  0.6035 -0.0042  0.0995
 8599TIP3    H149992   3.426   3.463  11.939  0.2680 -0.4787  0.3403
 8599TIP3    H249993   3.334   3.579  11.905  0.5228 -0.1621  0.7172
 8600TIP3   OH249994   0.423   4.964  10.782 -0.1352 -0.1554 -0.0170
 8600TIP3    H149995   0.387   4.979  10.870 -0.0673  0.9462 -0.1705
 8600TIP3    H249996   0.372   4.890  10.748  0.9856 -1.7491  1.5802
 8601TIP3   OH249997   4.142   3.430   9.745 -0.6879  0.4381  0.3058
 8601TIP3    H149998   4.094   3.506   9.778 -1.0383  0.4273 -0.1738
 8601TIP3    H249999   4.094   3.402   9.668  0.6221  1.0165 -0.7699
 8602TIP3   OH250000   0.622   4.368  12.177  0.0163  0.3506  0.4670
 8602TIP3    H150001   0.714   4.359  12.152 -0.1479  0.3997 -0.1671
 8602TIP3    H250002   0.624   4.418  12.258  0.5673  0.0671  0.6313
 8603TIP3   OH250003   3.532   5.745  11.571  0.9050 -0.5913  0.6303
 8603TIP3    H150004   3.466   5.776  11.632  1.2410  0.3228  0.5407
 8603TIP3    H250005   3.500   5.772  11.485 -0.1873 -2.9337  0.2111
 8604TIP3   OH250006   0.719   1.378  11.935 -0.0786  0.0537  0.0741
 8604TIP3    H150007   0.760   1.462  11.917 -0.9549  0.3512 -0.5755
 8604TIP3    H250008   0.645   1.398  11.992 -1.0946 -0.0711 -1.1413
 8605TIP3   OH250009   5.367   0.018  11.185 -0.3728  0.1551  0.3319
 8605TIP3    H150010   5.411  -0.032  11.117 -2.8469 -2.2016  0.2669
 8605TIP3    H250011   5.393  -0.024  11.267 -3.0684 -2.0562  0.2329
 8606TIP3   OH250012   2.442   3.576   9.668 -0.5271  0.4477  0.2244
 8606TIP3    H150013   2.353   3.545   9.648 -0.3677 -0.0092  0.2329
 8606TIP3    H250014   2.440   3.596   9.762  0.1904 -2.3285  0.9076
 8607TIP3   OH250015   2.226   4.651  13.407  0.1314 -0.6715  0.1457
 8607TIP3    H150016   2.194   4.580  13.351  0.9581 -0.0727 -1.1230
 8607TIP3    H250017   2.208   4.730  13.357 -0.1089 -0.0224  1.2281
 8608TIP3   OH250018   5.890   0.672  12.123 -0.0693 -0.2627  0.0238
 8608TIP3    H150019   5.937   0.592  12.103 -2.3049 -1.9912  1.2121
 8608TIP3    H250020   5.871   0.666  12.217 -0.5751  1.4977  0.0714
 8609TIP3   OH250021   1.031   1.838  10.259  0.1326 -0.0069  0.0275
 8609TIP3    H150022   1.121   1.867  10.274 -0.2097  1.0260  0.1856
 8609TIP3    H250023   1.028   1.748  10.292  0.8580  0.2792  0.9166
 8610TIP3   OH250024   1.938   6.640   9.906 -0.2268 -0.3111  0.0301
 8610TIP3    H150025   1.843   6.644   9.918 -0.5025 -3.5095 -0.1280
 8610TIP3    H250026   1.974   6.668   9.990 -1.3152  0.3479  0.2992
 8611TIP3   OH250027   4.946   1.022   9.999  0.1806 -0.0556  0.6121
 8611TIP3    H150028   5.007   1.096   9.994 -1.6743  1.5137 -0.2988
 8611TIP3    H250029   4.977   0.960   9.933  1.9303 -0.2593  1.5797
 8612TIP3   OH250030   0.996   4.476  11.624 -0.6287  0.7058 -0.5404
 8612TIP3    H150031   0.959   4.466  11.712 -0.3049  0.7780 -0.3939
 8612TIP3    H250032   1.035   4.564  11.624  0.7170  0.1361 -0.2443
 8613TIP3   OH250033   5.784   1.392  10.870  0.5211 -0.6125 -1.2306
 8613TIP3    H150034   5.802   1.485  10.855  0.7602 -0.1381  1.4972
 8613TIP3    H250035   5.689   1.383  10.861  0.2262  0.3782  0.4645
 8614TIP3   OH250036   5.278   2.143  10.016  0.2042 -0.0980  0.1489
 8614TIP3    H150037   5.333   2.220  10.028  0.3468  0.3537 -2.8188
 8614TIP3    H250038   5.339   2.070  10.011  0.2414 -0.0971  0.5439
 8615TIP3   OH250039   0.797   4.292  10.957  0.1453 -0.5835  0.2038
 8615TIP3    H150040   0.807   4.305  10.862  2.5373 -1.4640  0.2786
 8615TIP3    H250041   0.830   4.373  10.995 -2.1871  0.3981  0.3440
 8616TIP3   OH250042   2.426   5.619  11.598 -0.0695 -0.2941 -0.3282
 8616TIP3    H150043   2.423   5.597  11.505  2.2430 -1.3331 -0.2293
 8616TIP3    H250044   2.514   5.653  11.612 -0.1496 -0.7619  1.6171
 8617TIP3   OH250045   4.803   3.654   9.709  0.5368  0.3422  0.4134
 8617TIP3    H150046   4.770   3.731   9.755  0.0747  0.1422  0.4251
 8617TIP3    H250047   4.895   3.674   9.692  0.6610  0.4958  1.2446
 8618TIP3   OH250048   2.302   0.039  11.396  0.3856 -0.1398  0.3335
 8618TIP3    H150049   2.302  -0.047  11.354  0.0425 -0.8275  1.7047
 8618TIP3    H250050   2.299   0.021  11.489  1.7587  1.3527  0.7168
 8619TIP3   OH250051   2.491   5.310  11.060  0.0529  0.0240  0.2321
 8619TIP3    H150052   2.485   5.242  10.993  0.9755 -1.4317  1.5532
 8619TIP3    H250053   2.415   5.296  11.116 -0.2201  0.6506  0.0263
 8620TIP3   OH250054   3.593   5.620  10.520 -0.2851  0.2699 -0.1928
 8620TIP3    H150055   3.670   5.570  10.547 -0.1622  1.0003  0.8852
 8620TIP3    H250056   3.625   5.709  10.510 -1.0117  0.6192  0.4372
 8621TIP3   OH250057   1.420   3.067  12.040  0.3279  0.1040  0.1970
 8621TIP3    H150058   1.363   3.014  11.983 -1.4497  0.5831  1.4440
 8621TIP3    H250059   1.489   3.099  11.981 -0.6311 -0.5792 -1.3744
 8622TIP3   OH250060   0.222   5.324  10.674 -0.1757 -0.0812  0.3824
 8622TIP3    H150061   0.200   5.416  10.660 -1.0350 -0.4408 -0.8439
 8622TIP3    H250062   0.146   5.287  10.719 -0.4315 -0.4572 -0.3255
 8623TIP3   OH250063   2.041   6.223  12.701  0.2187 -0.2907  0.3044
 8623TIP3    H150064   2.075   6.205  12.613  0.5777  1.8889 -0.0570
 8623TIP3    H250065   1.946   6.216  12.691  0.2324  0.3422 -0.3723
 8624TIP3   OH250066   4.482   0.167  10.953 -0.1336  0.7707  0.1400
 8624TIP3    H150067   4.389   0.148  10.940  0.2862 -1.1119 -0.4668
 8624TIP3    H250068   4.514   0.096  11.010  0.6853  2.1066  1.4315
 8625TIP3   OH250069   0.360   6.159  12.624  0.1918 -0.7939 -0.0913
 8625TIP3    H150070   0.273   6.154  12.584 -0.0253 -1.0591  0.4004
 8625TIP3    H250071   0.394   6.244  12.598 -0.0487 -0.8606 -0.6254
 8626TIP3   OH250072   2.497   4.643  12.491  0.8029  0.4630  0.0029
 8626TIP3    H150073   2.558   4.596  12.549 -1.3973 -0.2178  1.9063
 8626TIP3    H250074   2.458   4.575  12.437 -0.8359  0.3349  1.2869
 8627TIP3   OH250075   2.759   6.447  10.660  0.4498 -0.7308  0.2952
 8627TIP3    H150076   2.772   6.539  10.680  1.9364 -0.9337  0.4199
 8627TIP3    H250077   2.772   6.441  10.565 -0.8034 -0.6559  0.0998
 8628TIP3   OH250078   3.218   2.378   9.677  0.2316  0.4523  0.3533
 8628TIP3    H150079   3.140   2.412   9.632 -0.3578  0.1296  1.1139
 8628TIP3    H250080   3.290   2.428   9.640 -0.3422  0.8178 -0.3049
 8629TIP3   OH250081   3.370   0.869  10.527 -0.3928 -0.0884  0.3758
 8629TIP3    H150082   3.369   0.935  10.459 -1.2012 -0.6061 -0.1342
 8629TIP3    H250083   3.289   0.819  10.513  0.0635 -1.0024  0.9170
 8630TIP3   OH250084   3.632   4.227  11.377 -0.1148  0.3966 -0.1839
 8630TIP3    H150085   3.688   4.210  11.302  1.5827 -1.1929  1.3722
 8630TIP3    H250086   3.620   4.142  11.419 -1.3267  1.1734  1.1518
 8631TIP3   OH250087   0.066   0.542   9.721  0.5738  0.5055 -0.1120
 8631TIP3    H150088   0.032   0.454   9.702 -0.6025  0.7948  0.5573
 8631TIP3    H250089   0.156   0.526   9.748 -0.1825 -0.7559  1.9172
 8632TIP3   OH250090   5.113   6.073  11.880  0.2633 -0.1150 -0.3166
 8632TIP3    H150091   5.084   5.987  11.908 -1.0470  0.4720  0.2191
 8632TIP3    H250092   5.138   6.118  11.961  2.4020 -0.4634 -0.7199
 8633TIP3   OH250093   5.641   0.062  11.780 -0.1155  0.2991  0.0659
 8633TIP3    H150094   5.596   0.145  11.767 -1.2933 -0.2536  0.5252
 8633TIP3    H250095   5.574  -0.005  11.769  0.2164 -0.4895  2.2750
 8634TIP3   OH250096   6.341   0.193  13.148 -0.4784  0.1305 -0.0434
 8634TIP3    H150097   6.292   0.134  13.090 -0.6135  0.0727  0.1283
 8634TIP3    H250098   6.330   0.155  13.235  0.7680 -0.4925 -0.1371
 8635TIP3   OH250099   2.151   4.989  11.170  0.4551  0.0140  0.0602
 8635TIP3    H150100   2.197   5.036  11.239  1.3047 -0.9019  0.1525
 8635TIP3    H250101   2.136   5.054  11.101  2.0924  0.3048 -0.0558
 8636TIP3   OH250102   2.378   3.498  11.691  0.3369  0.2164 -0.0198
 8636TIP3    H150103   2.305   3.561  11.691  0.9396  1.0711 -2.8805
 8636TIP3    H250104   2.455   3.550  11.711  0.6280  0.0623 -0.7217
 8637TIP3   OH250105   0.524   2.478  10.949  0.0682  0.0376 -0.3949
 8637TIP3    H150106   0.564   2.470  11.036 -1.5111  0.2157  0.3872
 8637TIP3    H250107   0.582   2.429  10.891  0.7597 -0.7182  0.8866
 8638TIP3   OH250108   3.470   4.599   9.668 -0.3485 -0.8432 -0.1599
 8638TIP3    H150109   3.531   4.626   9.737  0.6737  0.0172 -1.3541
 8638TIP3    H250110   3.492   4.655   9.593 -2.3219 -0.8392 -0.7755
 8639TIP3   OH250111   2.178   0.591  11.827 -0.2077  0.2432 -0.7364
 8639TIP3    H150112   2.099   0.569  11.777 -0.4072 -1.5296  0.2820
 8639TIP3    H250113   2.243   0.526  11.800 -0.8600 -2.0026  2.5121
 8640TIP3   OH250114   2.149   5.795   9.500 -0.0827 -0.1544 -0.3325
 8640TIP3    H150115   2.117   5.828   9.416 -0.4432  1.4209  0.3834
 8640TIP3    H250116   2.071   5.763   9.545  0.2068 -1.6411 -0.8508
 8641TIP3   OH250117   5.493   5.580   9.090 -0.4519  0.1829 -0.3547
 8641TIP3    H150118   5.443   5.585   9.008  1.6260  2.0440 -1.6224
 8641TIP3    H250119   5.434   5.613   9.157 -1.3293  1.1886 -1.5879
 8642TIP3   OH250120   1.482   5.614  11.679  0.4645  0.0229  0.5066
 8642TIP3    H150121   1.434   5.621  11.761  0.4021 -1.0118  0.5674
 8642TIP3    H250122   1.553   5.552  11.697  0.6988  0.1004 -0.1028
 8643TIP3   OH250123   4.711   5.794  13.085  0.0099 -0.5461  0.7118
 8643TIP3    H150124   4.681   5.742  13.011  0.8758 -0.6728  0.4337
 8643TIP3    H250125   4.649   5.776  13.155 -1.9311  0.9909 -0.5003
 8644TIP3   OH250126   6.623   2.197  10.920 -0.2273  0.0285 -0.2212
 8644TIP3    H150127   6.664   2.111  10.930  0.8203  0.5014 -0.3031
 8644TIP3    H250128   6.659   2.231  10.837 -0.4144  0.6547 -0.0508
 8645TIP3   OH250129   2.018   5.226  11.351  0.4245  0.1289  0.3528
 8645TIP3    H150130   1.969   5.161  11.401  0.1472 -0.1146 -0.2205
 8645TIP3    H250131   1.969   5.307  11.361 -1.0679 -0.4688 -1.5697
 8646TIP3   OH250132   6.111   3.452  10.941  0.0715  0.0861  0.4186
 8646TIP3    H150133   6.158   3.460  10.858 -0.3801  0.7344  0.2195
 8646TIP3    H250134   6.110   3.358  10.958 -1.2720 -0.2319 -1.1638
 8647TIP3   OH250135   2.687   4.730  12.737  0.2650  0.2038  0.8299
 8647TIP3    H150136   2.721   4.751  12.824 -1.5654 -0.0792  1.6553
 8647TIP3    H250137   2.594   4.715  12.750  0.3832 -2.5074 -0.7368
 8648TIP3   OH250138   0.301   6.362  11.626  0.2161  0.0789  0.0076
 8648TIP3    H150139   0.255   6.446  11.620  0.8740  0.6172  1.7087
 8648TIP3    H250140   0.254   6.304  11.566  0.2308  1.8582 -1.8590
 8649TIP3   OH250141   0.977   2.323  10.755 -0.3092  0.2660  0.3257
 8649TIP3    H150142   0.986   2.274  10.837  2.0405 -1.7077 -0.9724
 8649TIP3    H250143   1.003   2.260  10.687 -1.0333  2.1897 -1.8421
 8650TIP3   OH250144   4.066   6.330  13.319  0.3903 -0.2245 -0.2060
 8650TIP3    H150145   4.137   6.388  13.292  1.1298 -1.5192 -1.1085
 8650TIP3    H250146   4.006   6.388  13.366 -0.0095  1.7663 -2.9107
 8651TIP3   OH250147   4.781   3.743  12.157  0.0253  0.1440  0.0743
 8651TIP3    H150148   4.828   3.781  12.230  0.6961  0.3140 -0.4358
 8651TIP3    H250149   4.849   3.719  12.094 -0.5675  0.5113 -0.7308
 8652TIP3   OH250150   3.867   5.758  12.312  0.8475 -0.2452 -0.1727
 8652TIP3    H150151   3.809   5.699  12.264  0.1323 -0.6522  1.1537
 8652TIP3    H250152   3.914   5.806  12.244  0.2683 -1.1967 -1.2714
 8653TIP3   OH250153   0.055   2.533  12.406 -0.1414  0.2999  0.1682
 8653TIP3    H150154   0.036   2.452  12.454  0.0071 -0.7246 -1.4318
 8653TIP3    H250155   0.127   2.510  12.347  1.8898  2.4139  1.6750
 8654TIP3   OH250156   0.262   3.344  12.366 -0.1127  0.1285 -0.6241
 8654TIP3    H150157   0.299   3.372  12.450 -0.4895  1.6678 -0.9327
 8654TIP3    H250158   0.338   3.334  12.309  0.1714 -1.2405 -0.0318
 8655TIP3   OH250159   4.352   1.104  11.034  0.4841  0.1474  0.4628
 8655TIP3    H150160   4.311   1.178  11.080 -1.1852  2.2169 -3.7538
 8655TIP3    H250161   4.282   1.039  11.028  1.0953 -0.6595  1.8445
 8656TIP3   OH250162   4.406   1.174   9.437  0.1196  0.1762  0.0966
 8656TIP3    H150163   4.399   1.084   9.467 -0.8186  0.3977  0.6052
 8656TIP3    H250164   4.367   1.173   9.349 -0.2346  0.1418  0.2489
 8657TIP3   OH250165   0.391   0.217  12.630  0.2110  0.0409 -0.1058
 8657TIP3    H150166   0.362   0.246  12.717 -1.2466 -2.0616  0.1760
 8657TIP3    H250167   0.475   0.174  12.646 -0.1899 -0.5994  0.3370
 8658TIP3   OH250168   1.325   5.851  11.152  0.1884  0.2679  0.1055
 8658TIP3    H150169   1.322   5.769  11.200 -0.4508  0.2821  0.0912
 8658TIP3    H250170   1.294   5.829  11.064  2.4256 -0.0075 -0.6924
 8659TIP3   OH250171   0.856   6.524   9.346 -0.1753  0.9790 -0.0414
 8659TIP3    H150172   0.927   6.532   9.283  2.1752  1.7395  2.5101
 8659TIP3    H250173   0.808   6.606   9.339  0.0279  1.0340 -0.8547
 8660TIP3   OH250174   4.373   6.328  10.899 -0.6170 -0.3905 -0.0876
 8660TIP3    H150175   4.364   6.411  10.852  1.0394 -1.3695 -2.3357
 8660TIP3    H250176   4.405   6.352  10.986 -1.4111  1.3728 -0.2588
 8661TIP3   OH250177   4.494   4.920  10.234 -0.0023 -0.6835 -0.2081
 8661TIP3    H150178   4.564   4.862  10.264 -0.3598 -2.4688 -2.5278
 8661TIP3    H250179   4.539   4.997  10.201  0.8745 -1.5385 -1.0890
 8662TIP3   OH250180   5.158   3.473   9.890 -0.3517 -0.1067 -0.1425
 8662TIP3    H150181   5.092   3.417   9.848 -0.2196 -0.9306  0.7306
 8662TIP3    H250182   5.158   3.447   9.982  1.8463 -0.7986 -0.2698
 8663TIP3   OH250183   3.385   4.237  11.982 -0.0421  1.0790  0.0210
 8663TIP3    H150184   3.370   4.279  11.897  0.4929  2.1000  0.4273
 8663TIP3    H250185   3.328   4.283  12.043  0.2025  0.9113  0.3827
 8664TIP3   OH250186   2.537   5.199  13.499  0.0632 -0.1891  0.7445
 8664TIP3    H150187   2.453   5.240  13.479  0.3684 -0.0986 -0.4286
 8664TIP3    H250188   2.595   5.272  13.520  0.5983  0.0536 -1.3138
 8665TIP3   OH250189   1.598   1.728  10.040  0.4797 -0.1881 -0.1402
 8665TIP3    H150190   1.660   1.792  10.075 -1.1564  2.6617 -2.0088
 8665TIP3    H250191   1.513   1.758  10.073 -0.2450 -2.3262  0.0773
 8666TIP3   OH250192   0.393   1.744  10.064  0.6182 -0.0711  0.5764
 8666TIP3    H150193   0.337   1.759  10.140  0.2548 -1.6070  0.6535
 8666TIP3    H250194   0.408   1.831  10.027 -1.8666  0.3900  0.4999
 8667TIP3   OH250195   2.135   1.493  11.452 -0.1912  0.3991  0.2332
 8667TIP3    H150196   2.040   1.495  11.445 -0.2266 -0.4658  0.3760
 8667TIP3    H250197   2.166   1.515  11.365 -0.5443 -0.8527 -0.2228
 8668TIP3   OH250198   5.182   5.451  11.990 -0.4873  0.0925  0.0793
 8668TIP3    H150199   5.157   5.442  11.898 -1.6800 -0.3530  0.4211
 8668TIP3    H250200   5.111   5.407  12.038  0.7025 -0.7451  1.1535
 8669TIP3   OH250201   6.264   1.899  10.456 -0.8814  0.3139  0.0882
 8669TIP3    H150202   6.218   1.815  10.457 -0.7040  0.2256  0.7470
 8669TIP3    H250203   6.353   1.877  10.428 -1.1128  0.4276 -0.7634
 8670TIP3   OH250204   2.719   0.523  11.307 -0.1935  0.1789 -0.4803
 8670TIP3    H150205   2.680   0.607  11.331 -1.0511 -0.6966  1.3146
 8670TIP3    H250206   2.653   0.482  11.251 -0.2390  0.2394 -0.4715
 8671TIP3   OH250207   3.307   0.870  11.996  0.7194  0.1163  0.0008
 8671TIP3    H150208   3.250   0.865  12.072  0.0668  1.3413 -0.3849
 8671TIP3    H250209   3.249   0.849  11.922  1.5186 -1.8720 -0.1248
 8672TIP3   OH250210   1.255   5.300  10.275  0.7271  0.0416  0.5472
 8672TIP3    H150211   1.213   5.322  10.193  1.0585  1.5574  0.7468
 8672TIP3    H250212   1.254   5.382  10.325  2.2936 -0.3263  1.2537
 8673TIP3   OH250213   6.624   3.271  10.645 -0.0439 -0.2019 -0.3671
 8673TIP3    H150214   6.564   3.316  10.704  0.6301 -0.6127  0.6517
 8673TIP3    H250215   6.625   3.326  10.566 -0.1321  0.9461  0.4049
 8674TIP3   OH250216   5.252   2.451  11.989 -0.0442  0.8185 -0.1411
 8674TIP3    H150217   5.340   2.477  11.963 -0.7024  2.3495 -0.9992
 8674TIP3    H250218   5.201   2.458  11.908 -0.8894 -0.3740  0.2685
 8675TIP3   OH250219   6.125   0.462   9.266 -0.5897  0.1927  0.3569
 8675TIP3    H150220   6.201   0.456   9.323 -1.2901 -1.3212  1.1737
 8675TIP3    H250221   6.150   0.416   9.186 -0.8184 -0.8130  0.8486
 8676TIP3   OH250222   2.710   5.868  13.085  0.0836  0.0485 -0.3465
 8676TIP3    H150223   2.644   5.860  13.154  1.0971  1.5711  0.8754
 8676TIP3    H250224   2.784   5.816  13.117  0.1530 -0.1809 -0.8637
 8677TIP3   OH250225   6.001   1.387   9.488  0.2380 -0.0517 -0.2089
 8677TIP3    H150226   5.949   1.454   9.533  0.5295  0.6638 -0.9028
 8677TIP3    H250227   6.092   1.406   9.512  0.3193 -0.2117 -0.3804
 8678TIP3   OH250228   4.830   5.162  11.132  0.4932  0.8210 -0.0728
 8678TIP3    H150229   4.854   5.095  11.196 -0.0718  0.0712 -0.6206
 8678TIP3    H250230   4.743   5.136  11.101  0.2641  1.8057 -0.3104
 8679TIP3   OH250231   1.687   3.608  11.883  0.7666 -0.4049  0.2001
 8679TIP3    H150232   1.773   3.601  11.926 -0.3590  0.2102  2.7706
 8679TIP3    H250233   1.706   3.641  11.795  3.1386 -0.0101  0.8018
 8680TIP3   OH250234   3.246   2.414  11.945  0.4079 -0.2271 -0.0738
 8680TIP3    H150235   3.194   2.451  12.016 -1.2048 -0.7152 -0.9443
 8680TIP3    H250236   3.268   2.326  11.974  1.6639  0.3257  0.7258
 8681TIP3   OH250237   6.229   2.565  11.205  0.1728 -0.1088  0.1572
 8681TIP3    H150238   6.217   2.472  11.189  1.4193  0.1080 -2.4492
 8681TIP3    H250239   6.290   2.569  11.279 -1.0468 -1.2649  1.3080
 8682TIP3   OH250240   4.113   0.667  11.275  0.0137  0.3986  0.3264
 8682TIP3    H150241   4.115   0.628  11.363  1.1605 -0.0712  0.1205
 8682TIP3    H250242   4.040   0.728  11.277 -0.7070 -0.4576  1.2391
 8683TIP3   OH250243   5.184   3.458  11.576 -1.1406 -0.1526 -0.2036
 8683TIP3    H150244   5.166   3.529  11.639 -2.1524 -1.2660  0.7993
 8683TIP3    H250245   5.099   3.420  11.557 -0.5598 -1.3840 -0.4032
 8684TIP3   OH250246   4.714   1.873  11.390  0.1041 -0.1574  0.5445
 8684TIP3    H150247   4.650   1.833  11.332  0.0856  0.0527  0.4206
 8684TIP3    H250248   4.679   1.859  11.478 -0.0704 -0.1122  0.4823
 8685TIP3   OH250249   0.459   5.297  10.558  0.3730  0.1206  0.5619
 8685TIP3    H150250   0.368   5.302  10.588  0.4838  0.4205  0.8663
 8685TIP3    H250251   0.458   5.338  10.471  0.6980  2.9221  1.7410
 8686TIP3   OH250252   3.816   6.230  11.976 -0.7448 -0.1807  0.1903
 8686TIP3    H150253   3.771   6.314  11.985 -1.2349 -0.3482 -0.6237
 8686TIP3    H250254   3.762   6.180  11.915  1.1798  0.1172 -1.9102
 8687TIP3   OH250255   6.114   2.298  11.096  0.0432  0.2911 -0.0976
 8687TIP3    H150256   6.119   2.238  11.170 -0.5319 -1.1842 -1.2319
 8687TIP3    H250257   6.193   2.279  11.045 -0.3141  0.2628 -0.6410
 8688TIP3   OH250258   0.745   4.253  10.685 -0.1148  0.0223 -0.4715
 8688TIP3    H150259   0.667   4.307  10.672 -0.4220  0.0076  1.1052
 8688TIP3    H250260   0.794   4.261  10.603  0.5239  3.7683  0.1132
 8689TIP3   OH250261   1.304   3.076  11.334  0.4842 -0.2940 -0.1763
 8689TIP3    H150262   1.337   2.998  11.291  0.0355  0.2650 -1.5905
 8689TIP3    H250263   1.356   3.148  11.298  0.7836  0.0994  0.9797
 8690TIP3   OH250264   0.162   4.004  11.066 -0.1549  0.4395 -0.0559
 8690TIP3    H150265   0.146   3.976  10.976  0.2851  0.0663 -0.0222
 8690TIP3    H250266   0.248   4.047  11.063  1.0267 -1.7395  0.6245
 8691TIP3   OH250267   6.489   2.306   9.773  0.3866  0.0669 -0.4653
 8691TIP3    H150268   6.438   2.225   9.773  0.9396 -0.2909  0.4276
 8691TIP3    H250269   6.430   2.371   9.733 -0.6112 -0.4313  0.1415
 8692TIP3   OH250270   6.367   0.258  12.093 -0.0565 -0.1032 -0.1178
 8692TIP3    H150271   6.285   0.281  12.136 -1.1382 -0.5884 -1.8456
 8692TIP3    H250272   6.429   0.324  12.123 -0.9422  0.0116  1.5680
 8693TIP3   OH250273   2.642   3.839  10.193  0.1403  0.0930  0.2845
 8693TIP3    H150274   2.618   3.750  10.217  1.9016 -0.4184  0.3257
 8693TIP3    H250275   2.596   3.895  10.256 -1.8766 -0.6788 -0.4496
 8694TIP3   OH250276   1.208   3.591  11.764 -0.2470  0.5298 -0.5552
 8694TIP3    H150277   1.247   3.520  11.713 -2.3884 -0.2032 -1.2375
 8694TIP3    H250278   1.272   3.662  11.758  0.8054 -0.4783 -1.9496
 8695TIP3   OH250279   4.577   4.087   9.914  0.2258  0.3247  0.1159
 8695TIP3    H150280   4.575   4.183   9.920  2.8857  0.3863  0.9414
 8695TIP3    H250281   4.664   4.063   9.943 -0.5056 -2.4172  0.2551
 8696TIP3   OH250282   0.394   5.704  10.204  0.2546  0.3280  0.2223
 8696TIP3    H150283   0.355   5.617  10.217 -0.1485  0.8070  2.6596
 8696TIP3    H250284   0.436   5.698  10.118  0.3248 -2.2972  0.3474
 8697TIP3   OH250285   2.216   0.862  11.355 -0.1188  0.0838  0.3477
 8697TIP3    H150286   2.195   0.950  11.325 -1.0475  0.0914  0.9915
 8697TIP3    H250287   2.154   0.845  11.426 -0.3189 -1.2979 -0.1284
 8698TIP3   OH250288   4.529   1.350  10.356 -0.9813  0.2748  0.0242
 8698TIP3    H150289   4.509   1.416  10.422  1.0244  1.0263 -0.0664
 8698TIP3    H250290   4.623   1.337  10.362 -0.6739  0.5358 -2.8103
 8699TIP3   OH250291   0.174   6.391  10.247 -0.3491 -0.0386 -0.1607
 8699TIP3    H150292   0.135   6.310  10.277  0.6286 -1.0433 -1.4821
 8699TIP3    H250293   0.102   6.439  10.205 -0.8282 -0.4169  0.2199
 8700TIP3   OH250294   0.846   6.099  12.739  0.3736 -0.5381  0.4590
 8700TIP3    H150295   0.754   6.076  12.734  0.4789 -0.8671 -0.0586
 8700TIP3    H250296   0.860   6.125  12.830 -0.1883 -0.6550  0.5785
 8701TIP3   OH250297   3.786   6.466   9.885 -0.0432 -0.0019  0.0545
 8701TIP3    H150298   3.748   6.554   9.892  0.9445  0.4205  0.2946
 8701TIP3    H250299   3.879   6.481   9.867 -0.2978 -1.0091 -2.4535
 8702TIP3   OH250300   5.752   2.516  11.509  0.0535 -0.4519  0.5786
 8702TIP3    H150301   5.841   2.517  11.544  0.0656 -1.3182  0.6040
 8702TIP3    H250302   5.715   2.433  11.539 -0.9827  0.1571  1.0830
 8703TIP3   OH250303   5.694   5.310   9.715  0.0360 -0.4207 -0.1534
 8703TIP3    H150304   5.743   5.232   9.688 -1.1580 -0.8170 -1.3357
 8703TIP3    H250305   5.617   5.310   9.657 -0.6948  0.8689  0.7757
 8704TIP3   OH250306   0.652   2.246  10.432 -0.2555 -0.1259 -0.2327
 8704TIP3    H150307   0.589   2.318  10.429 -0.7914 -0.4929  1.3446
 8704TIP3    H250308   0.736   2.289  10.445 -0.1291  0.3669 -2.3185
 8705TIP3   OH250309   3.934   1.244  11.228 -0.3340  0.2351  0.3038
 8705TIP3    H150310   3.873   1.185  11.185  0.2307  0.5990 -1.0601
 8705TIP3    H250311   3.900   1.332  11.210  0.4008  0.4262 -0.2024
 8706TIP3   OH250312   4.733   5.032  11.532  0.1534  0.1298  0.5026
 8706TIP3    H150313   4.783   4.989  11.463  0.0810 -0.5274  0.8544
 8706TIP3    H250314   4.768   4.995  11.614 -1.0428 -0.5193  0.7458
 8707TIP3   OH250315   5.021   4.431   9.821 -0.5533 -0.6186  0.3924
 8707TIP3    H150316   4.986   4.347   9.791 -0.5484 -0.0658 -1.2632
 8707TIP3    H250317   5.116   4.418   9.824 -0.2699  0.1014 -2.6777
 8708TIP3   OH250318   4.629   3.469   9.607 -0.0956 -0.6319 -1.1644
 8708TIP3    H150319   4.671   3.383   9.598 -1.6352 -1.4906 -0.5667
 8708TIP3    H250320   4.697   3.525   9.644  0.1334 -2.3710  1.2990
 8709TIP3   OH250321   6.195   2.378  12.215 -0.3476  0.1280 -0.3925
 8709TIP3    H150322   6.127   2.407  12.276  0.2549  0.1219  0.2970
 8709TIP3    H250323   6.258   2.450  12.213  0.1970 -0.3363 -0.1484
 8710TIP3   OH250324   6.447   1.950  10.013 -0.4633  0.6305 -1.0498
 8710TIP3    H150325   6.540   1.970  10.023  0.2446 -2.6154 -0.0901
 8710TIP3    H250326   6.442   1.899   9.932 -1.6119  1.6917 -1.6742
 8711TIP3   OH250327   6.039   1.502  12.503 -0.2479  0.5648 -0.0678
 8711TIP3    H150328   5.989   1.574  12.539  0.8328  1.8817 -1.0753
 8711TIP3    H250329   5.974   1.438  12.474 -1.2123  1.0751  0.9362
 8712TIP3   OH250330   3.388   1.959  11.525  0.0199  0.3224 -0.0977
 8712TIP3    H150331   3.444   1.980  11.599  0.2140  1.8940 -0.6531
 8712TIP3    H250332   3.426   2.007  11.451  0.6623 -2.3000 -1.5772
 8713TIP3   OH250333   1.947   5.358  10.654 -0.4269 -0.3429 -0.6794
 8713TIP3    H150334   1.921   5.441  10.614  0.0331  2.5861  4.2317
 8713TIP3    H250335   2.035   5.342  10.621  0.3541  2.4468 -0.2767
 8714TIP3   OH250336   1.168   1.387  10.201  0.1506  0.6647 -0.2829
 8714TIP3    H150337   1.113   1.371  10.125  1.1930 -1.3001 -0.6679
 8714TIP3    H250338   1.131   1.330  10.269 -0.8059  2.4364  0.7689
 8715TIP3   OH250339   3.178   5.769  11.059  0.0293 -0.4698 -0.5617
 8715TIP3    H150340   3.212   5.847  11.015  2.7786 -0.9294  0.5203
 8715TIP3    H250341   3.251   5.707  11.057 -0.5244 -1.3734  2.4872
 8716TIP3   OH250342   2.997   4.152  11.883  0.1317 -0.0352 -0.1266
 8716TIP3    H150343   3.056   4.098  11.831  1.0182 -0.3807  1.1703
 8716TIP3    H250344   2.913   4.146  11.838  0.6697 -0.9378 -1.0675
 8717TIP3   OH250345   1.254   5.553   9.660 -0.3200  0.4020  0.1590
 8717TIP3    H150346   1.178   5.560   9.718  0.1795  1.8446  0.6681
 8717TIP3    H250347   1.247   5.629   9.602 -1.1603 -1.3373 -2.1569
 8718TIP3   OH250348   3.651   6.010  11.197 -0.4369 -0.2411 -0.4418
 8718TIP3    H150349   3.654   6.085  11.137 -2.4882  0.3174  0.0983
 8718TIP3    H250350   3.650   5.934  11.139 -1.5895  0.2682 -1.1186
 8719TIP3   OH250351   2.909   4.288  10.309 -0.0262  0.5779  0.3592
 8719TIP3    H150352   2.965   4.212  10.328 -1.1943 -0.4775 -0.3020
 8719TIP3    H250353   2.900   4.332  10.394  1.7591  0.7701  0.4886
 8720TIP3   OH250354   3.454   1.782   9.732  0.6465  0.1701  0.1326
 8720TIP3    H150355   3.417   1.712   9.787  1.3049 -0.7097 -0.5105
 8720TIP3    H250356   3.411   1.861   9.762 -0.6326 -0.6060  0.4383
 8721TIP3   OH250357   6.417   5.652  11.187 -0.3315 -0.3242 -0.4193
 8721TIP3    H150358   6.401   5.705  11.109 -0.1194  0.3981  0.0198
 8721TIP3    H250359   6.467   5.709  11.246  0.0448 -1.0686 -0.0011
 8722TIP3   OH250360   0.741   2.297  11.648 -0.2219 -0.3685  0.4634
 8722TIP3    H150361   0.783   2.333  11.726  1.1400 -0.6615 -0.1066
 8722TIP3    H250362   0.805   2.310  11.578 -0.1481 -2.7537 -0.0038
 8723TIP3   OH250363   5.441   1.264  12.899  0.6063  0.2377  0.0418
 8723TIP3    H150364   5.476   1.175  12.901  1.1654  0.4146 -1.0028
 8723TIP3    H250365   5.454   1.292  12.808 -0.8725  0.8728  0.0020
 8724TIP3   OH250366   5.027   1.487  10.896 -0.3542 -0.1918  0.2200
 8724TIP3    H150367   5.008   1.452  10.809 -1.5372 -1.4226  0.9272
 8724TIP3    H250368   5.037   1.409  10.951 -0.5217  0.5621  1.3550
 8725TIP3   OH250369   4.987   4.937   9.886 -0.1833 -0.1910 -0.1046
 8725TIP3    H150370   5.058   4.952   9.823 -0.7928 -0.4855 -0.8863
 8725TIP3    H250371   4.976   4.842   9.886  0.5176 -0.2849  1.2627
 8726TIP3   OH250372   3.447   2.424   9.903 -0.4603  0.5726  0.5752
 8726TIP3    H150373   3.383   2.353   9.907 -0.8562  0.9396  0.7521
 8726TIP3    H250374   3.529   2.383   9.931 -0.7512  0.2537  0.9737
 8727TIP3   OH250375   2.001   5.791   9.855 -0.5514 -0.6500  0.0858
 8727TIP3    H150376   1.909   5.815   9.863 -0.6400 -0.2291 -1.9043
 8727TIP3    H250377   2.043   5.829   9.933 -1.8470  0.1531  0.4089
 8728TIP3   OH250378   4.211   4.288  10.344  0.3140 -0.0183  0.1498
 8728TIP3    H150379   4.272   4.283  10.271 -0.8183  0.8463 -0.8987
 8728TIP3    H250380   4.267   4.294  10.422  1.6134  1.8562 -0.8425
 8729TIP3   OH250381   6.236   0.585  11.874 -0.5021  0.0520  0.0631
 8729TIP3    H150382   6.196   0.662  11.913 -0.0331  0.2701  0.1247
 8729TIP3    H250383   6.255   0.610  11.784  1.3436  0.6787  0.5701
 8730TIP3   OH250384   1.198   5.372  10.010  0.4045  0.1676 -0.5848
 8730TIP3    H150385   1.190   5.334   9.922 -0.4038  0.5804 -0.7004
 8730TIP3    H250386   1.108   5.390  10.036  0.1525 -3.7696  2.0651
 8731TIP3   OH250387   2.881   2.329  10.177 -0.1749  0.1294 -0.1423
 8731TIP3    H150388   2.948   2.397  10.165 -2.2572  2.4422  0.6667
 8731TIP3    H250389   2.866   2.326  10.272 -0.6512 -0.9533 -0.2373
 8732TIP3   OH250390   2.783   3.204  12.853  0.4888  0.1509  0.2224
 8732TIP3    H150391   2.809   3.117  12.823 -0.5119 -0.4271  0.9430
 8732TIP3    H250392   2.862   3.240  12.895  2.1511  1.2726 -3.4855
 8733TIP3   OH250393   1.210   1.125  12.073  0.5704  0.7193 -0.5818
 8733TIP3    H150394   1.211   1.112  12.168 -0.1019  1.0877 -0.5249
 8733TIP3    H250395   1.131   1.082  12.043  0.7766  0.6110 -0.9787
 8734TIP3   OH250396   3.254   0.633  10.746 -0.0794 -1.0547 -0.4279
 8734TIP3    H150397   3.219   0.641  10.657 -1.7051 -1.3115  0.1501
 8734TIP3    H250398   3.178   0.648  10.803  0.9631 -0.6913  0.9277
 8735TIP3   OH250399   0.074   5.958  10.227  0.0936  0.1443  0.2771
 8735TIP3    H150400   0.140   6.005  10.177 -0.1975  0.2164 -0.0453
 8735TIP3    H250401   0.049   5.885  10.171  1.2171 -0.9511  1.1679
 8736TIP3   OH250402   5.673   3.723  10.787  0.6727  0.7567  0.4129
 8736TIP3    H150403   5.617   3.775  10.729 -0.4860  0.1398  0.9600
 8736TIP3    H250404   5.700   3.785  10.855  1.2141  1.2215 -0.2048
 8737TIP3   OH250405   4.240   5.255   9.700 -0.2489 -0.3018 -0.1992
 8737TIP3    H150406   4.214   5.164   9.687 -0.7863 -0.3118  0.8367
 8737TIP3    H250407   4.191   5.283   9.778  1.3060  0.3107  0.5919
 8738TIP3   OH250408   2.629   4.072  11.451 -0.4097  0.1815 -0.0562
 8738TIP3    H150409   2.611   4.114  11.367  1.7002  0.0086 -0.6528
 8738TIP3    H250410   2.702   4.123  11.488  0.1857 -1.1198  0.6094
 8739TIP3   OH250411   4.670   6.481  10.107 -0.7508  1.0170 -0.0430
 8739TIP3    H150412   4.627   6.401  10.137 -1.7811  1.8626  0.8085
 8739TIP3    H250413   4.701   6.460  10.019  0.8788 -1.0118  0.9119
 8740TIP3   OH250414   0.924   1.563  11.873  0.5034 -0.0282  0.8130
 8740TIP3    H150415   1.009   1.529  11.843  0.7476  0.6461  0.7198
 8740TIP3    H250416   0.917   1.650  11.833 -0.6725 -0.4556  0.0488
 8741TIP3   OH250417   0.687   1.496  11.572  0.0690 -0.0173 -0.1230
 8741TIP3    H150418   0.652   1.409  11.555  1.9769 -0.9475  0.4699
 8741TIP3    H250419   0.782   1.483  11.579  0.7237  2.5260 -2.7091
 8742TIP3   OH250420   2.024   2.701  10.642 -0.2913  0.2733  0.4702
 8742TIP3    H150421   1.999   2.785  10.682 -0.5404  0.5927 -0.3262
 8742TIP3    H250422   2.026   2.719  10.548  2.6485  0.1742  0.4194
 8743TIP3   OH250423   4.058   2.427  11.385 -0.0205  0.2261 -0.3278
 8743TIP3    H150424   4.088   2.489  11.450  0.9907  0.9436 -1.4460
 8743TIP3    H250425   4.021   2.355  11.436  3.1512 -0.5179  1.1486
 8744TIP3   OH250426   4.608   2.063  11.095 -0.4082  0.2335  0.0016
 8744TIP3    H150427   4.560   2.067  11.012 -0.0916  1.4081 -0.1392
 8744TIP3    H250428   4.563   1.994  11.145 -1.6634  0.6632 -0.4851
 8745TIP3   OH250429   5.071   0.787  11.359 -0.0968 -0.1691 -0.1938
 8745TIP3    H150430   5.161   0.815  11.345  0.6518 -0.3553  3.4360
 8745TIP3    H250431   5.077   0.714  11.420 -2.7265  1.2730  2.0169
 8746TIP3   OH250432   3.336   4.990  11.258  0.6219  0.2984 -0.4294
 8746TIP3    H150433   3.259   4.939  11.284  1.1134 -0.5189 -0.5688
 8746TIP3    H250434   3.408   4.928  11.259  2.2124  1.8546  3.8210
 8747TIP3   OH250435   4.188   1.280  11.137  0.1257  0.2713  0.0136
 8747TIP3    H150436   4.229   1.319  11.214  1.5804 -0.7246 -0.2124
 8747TIP3    H250437   4.099   1.259  11.165  0.6382 -0.0892  1.4331
 8748TIP3   OH250438   6.155   4.778  10.913 -0.2214 -0.4645  0.3996
 8748TIP3    H150439   6.191   4.743  10.994  0.3483  2.1380  1.3688
 8748TIP3    H250440   6.119   4.702  10.868  0.9317 -2.2402  2.2973
 8749TIP3   OH250441   3.638   3.003  10.617 -0.0365  0.2039  0.1052
 8749TIP3    H150442   3.660   2.955  10.697  1.2404  0.1296 -0.2578
 8749TIP3    H250443   3.645   2.938  10.547 -0.9760  0.3094 -0.0979
 8750TIP3   OH250444   2.524   2.816  12.303  0.2960  0.3286 -0.2992
 8750TIP3    H150445   2.569   2.732  12.311 -0.4870 -0.0142  0.8015
 8750TIP3    H250446   2.454   2.800  12.240 -1.0406 -0.4092  1.3245
 8751TIP3   OH250447   4.834   0.075  11.890  0.6241 -0.1165 -0.5004
 8751TIP3    H150448   4.796   0.159  11.914  3.3810  1.1739 -0.3351
 8751TIP3    H250449   4.774   0.039  11.824 -2.1478  0.5588  1.4823
 8752TIP3   OH250450   3.513   1.797  10.268 -0.4521  0.6137  0.1457
 8752TIP3    H150451   3.578   1.863  10.292  1.1554 -1.2146  1.1608
 8752TIP3    H250452   3.446   1.845  10.220  1.6995  2.6160 -1.0590
 8753TIP3   OH250453   1.523   0.507   9.420 -0.2224  0.0407 -0.4086
 8753TIP3    H150454   1.566   0.471   9.497 -0.8554  3.8806  2.0526
 8753TIP3    H250455   1.591   0.509   9.353  0.3253 -3.4922 -0.1422
 8754TIP3   OH250456   0.163   4.478  11.866 -0.0755 -0.6047 -0.6559
 8754TIP3    H150457   0.207   4.447  11.787 -0.0802 -2.1159 -0.0968
 8754TIP3    H250458   0.225   4.459  11.937 -0.8022 -0.9429 -0.0914
 8755TIP3   OH250459   1.278   3.896   9.592 -0.4001  0.2507  0.2459
 8755TIP3    H150460   1.360   3.851   9.571 -0.5299  0.1553 -0.0568
 8755TIP3    H250461   1.292   3.932   9.680 -1.0905 -2.2999  1.5065
 8756TIP3   OH250462   3.422   5.683  12.032  0.1503 -0.0108 -0.1088
 8756TIP3    H150463   3.494   5.619  12.025  0.3266  0.0607  0.8901
 8756TIP3    H250464   3.385   5.667  12.119  1.7024  2.7708  1.2112
 8757TIP3   OH250465   5.795   2.178  11.098  0.0800  0.7953  0.2060
 8757TIP3    H150466   5.707   2.148  11.122  0.0422  0.6561 -0.0999
 8757TIP3    H250467   5.853   2.118  11.145  0.0037  0.3017 -0.3236
 8758TIP3   OH250468   4.276   1.407  10.836 -0.4832  0.0569 -0.1763
 8758TIP3    H150469   4.245   1.369  10.917 -0.1397 -0.1413 -0.1369
 8758TIP3    H250470   4.228   1.490  10.828 -0.6775 -0.0290  0.1126
 8759TIP3   OH250471   5.776   2.755  10.602  0.4247 -0.0501 -0.4167
 8759TIP3    H150472   5.801   2.779  10.692 -0.0447 -0.0598 -0.2785
 8759TIP3    H250473   5.722   2.677  10.613 -2.8355  2.0097 -0.3167
 8760TIP3   OH250474   6.201   4.929  12.110 -0.2621  0.0973 -0.8351
 8760TIP3    H150475   6.163   4.844  12.090  0.5770 -0.1247 -1.5638
 8760TIP3    H250476   6.215   4.928  12.205  0.5040 -0.9159 -0.9388
 8761TIP3   OH250477   3.087   0.449  12.759  0.2132  0.4259  0.5003
 8761TIP3    H150478   3.001   0.462  12.720  0.1847  1.6342  0.9104
 8761TIP3    H250479   3.104   0.355  12.749 -0.2994  0.4902 -1.3089
 8762TIP3   OH250480   5.610   4.563   9.526 -0.5363 -0.1713  0.2952
 8762TIP3    H150481   5.528   4.517   9.504 -0.0491 -1.1254  0.4050
 8762TIP3    H250482   5.601   4.584   9.619 -0.2801 -1.1045  0.5396
 8763TIP3   OH250483   0.389   2.045  11.739  0.2890  0.2966 -0.2405
 8763TIP3    H150484   0.310   1.998  11.763  0.2688  0.0068 -0.8677
 8763TIP3    H250485   0.394   2.118  11.802 -0.5853  0.4462 -0.3370
 8764TIP3   OH250486   5.364   3.677  18.957  0.0775 -0.4356  0.0995
 8764TIP3    H150487   5.454   3.645  18.949 -0.2417 -1.2704 -0.1839
 8764TIP3    H250488   5.358   3.707  19.048 -0.0994 -2.7240  0.9032
 8765TIP3   OH250489   5.351   2.670  12.515  0.4477 -0.2389 -0.1217
 8765TIP3    H150490   5.399   2.745  12.550 -1.6699  0.9953  0.2395
 8765TIP3    H250491   5.390   2.655  12.428  1.0798  1.0990 -0.0864
 8766TIP3   OH250492   6.591   3.064  12.009 -0.1864 -0.4764  0.6276
 8766TIP3    H150493   6.502   3.061  11.973  0.4498  1.0329 -1.3252
 8766TIP3    H250494   6.608   3.158  12.022  0.6448 -0.8279  2.2850
 8767TIP3   OH250495   3.070   6.431  12.204 -0.2364  0.8448 -0.4163
 8767TIP3    H150496   3.132   6.358  12.195 -0.3013  0.7028  0.2690
 8767TIP3    H250497   3.115   6.494  12.259 -0.1903  1.3234 -0.9919
 8768TIP3   OH250498   1.131   2.110  11.353  0.5074  0.4970 -0.1466
 8768TIP3    H150499   1.162   2.163  11.426 -0.0289  0.8638 -0.1834
 8768TIP3    H250500   1.187   2.136  11.279 -0.7017  2.1220 -0.5426
 8769TIP3   OH250501   0.140   5.211  12.267 -0.3522 -0.3084 -0.1189
 8769TIP3    H150502   0.232   5.219  12.294 -0.6935  0.5975  0.8804
 8769TIP3    H250503   0.143   5.208  12.172  0.7640 -1.1338 -0.0728
 8770TIP3   OH250504   4.491   0.223   9.761  0.0164 -0.1825  0.6760
 8770TIP3    H150505   4.564   0.274   9.725  0.3948  0.6022  2.4081
 8770TIP3    H250506   4.413   0.275   9.740  0.1277 -0.2098  0.1891
 8771TIP3   OH250507   6.629   3.691   9.344  0.1842 -0.0745 -0.1788
 8771TIP3    H150508   6.545   3.698   9.299 -0.4460  0.2482  1.0277
 8771TIP3    H250509   6.674   3.773   9.326 -0.8727  0.8861  1.3371
 8772TIP3   OH250510   5.199   5.509  11.131 -0.1495 -0.3158  0.2605
 8772TIP3    H150511   5.200   5.604  11.119 -2.9644 -0.0021  1.7057
 8772TIP3    H250512   5.158   5.475  11.051 -1.8786  0.0273  0.9576
 8773TIP3   OH250513   1.655   5.752  12.300 -0.8209  0.0953 -0.4231
 8773TIP3    H150514   1.653   5.843  12.271 -1.1618 -0.0879 -0.9929
 8773TIP3    H250515   1.571   5.738  12.344 -0.0130  0.5786  1.3418
 8774TIP3   OH250516   0.869   1.387  12.332 -0.1960  0.3468  0.2342
 8774TIP3    H150517   0.956   1.419  12.356 -0.3046  0.2063  0.8320
 8774TIP3    H250518   0.844   1.328  12.404 -0.8905  0.5838  0.1938
 8775TIP3   OH250519   1.121   6.536  10.590 -0.1375  0.3743 -0.0158
 8775TIP3    H150520   1.158   6.539  10.502 -0.5711  0.9961 -0.1787
 8775TIP3    H250521   1.043   6.591  10.585 -0.8562 -0.5728  0.4295
 8776TIP3   OH250522   2.612   5.072  20.847  0.6443 -0.0208  0.1189
 8776TIP3    H150523   2.645   5.136  20.910 -0.6604  1.2304 -0.3795
 8776TIP3    H250524   2.558   5.012  20.899 -2.8221  2.6526  0.0513
 8777TIP3   OH250525   4.639   0.993  12.537  0.4119 -0.7549 -0.2875
 8777TIP3    H150526   4.681   0.984  12.451  0.1440 -1.1662 -0.3785
 8777TIP3    H250527   4.669   1.077  12.570  0.7888 -0.7515 -0.6390
 8778TIP3   OH250528   4.120   4.586  10.426  0.1810 -0.1224  0.5562
 8778TIP3    H150529   4.182   4.648  10.386  1.0222 -1.4614 -0.2967
 8778TIP3    H250530   4.062   4.641  10.479  0.9622  1.3767 -0.0789
 8779TIP3   OH250531   0.551   0.650  11.588 -0.0504  0.5215 -0.3654
 8779TIP3    H150532   0.479   0.685  11.534  0.4796  0.3808 -1.1840
 8779TIP3    H250533   0.534   0.556  11.593 -0.2474  0.5719 -0.0505
 8780TIP3   OH250534   5.063   3.034  11.051  0.2384  0.2574 -0.2982
 8780TIP3    H150535   4.990   2.973  11.061  0.1050  0.7465  2.7667
 8780TIP3    H250536   5.095   3.020  10.962 -1.3599 -2.4661 -0.5456
 8781TIP3   OH250537   6.211   0.385   9.003 -0.1305  0.5327 -0.1277
 8781TIP3    H150538   6.174   0.449   8.943  1.0462  1.4508  0.1010
 8781TIP3    H250539   6.211   0.303   8.954  2.2162  1.5444 -2.0240
 8782TIP3   OH250540   5.161   3.877  11.043  0.4087 -0.0328 -0.0270
 8782TIP3    H150541   5.089   3.858  10.983 -0.0185 -1.8550  0.9987
 8782TIP3    H250542   5.143   3.824  11.121  2.0008  0.7248  0.9140
 8783TIP3   OH250543   1.333   5.895  12.776 -0.0127  0.8773 -0.1674
 8783TIP3    H150544   1.265   5.935  12.830 -0.5563  1.6224 -1.3558
 8783TIP3    H250545   1.306   5.804  12.766  0.0620  0.7444  0.7298
 8784TIP3   OH250546   1.497   5.662  11.967  0.0964  0.4955  0.5451
 8784TIP3    H150547   1.591   5.646  11.963 -0.0346 -0.0248 -1.3423
 8784TIP3    H250548   1.488   5.744  12.017  1.7816  2.1663 -1.6882
 8785TIP3   OH250549   1.090   2.716  10.965  0.3424 -0.1318  0.2468
 8785TIP3    H150550   1.145   2.638  10.954 -0.2440 -0.4681 -0.3713
 8785TIP3    H250551   1.001   2.683  10.972  0.0250  0.5033 -0.5519
 8786TIP3   OH250552   1.758   0.122  12.402  0.3294  0.0262 -0.2955
 8786TIP3    H150553   1.850   0.099  12.416  0.4124  0.7865  0.4879
 8786TIP3    H250554   1.743   0.196  12.461 -0.4713  0.6632 -1.2760
 8787TIP3   OH250555   2.271   0.853  10.488  0.1493  0.5996  0.2481
 8787TIP3    H150556   2.217   0.921  10.528  1.6743  1.0911  1.5391
 8787TIP3    H250557   2.325   0.819  10.560  0.3926 -1.0265 -0.6566
 8788TIP3   OH250558   3.835   0.210   9.956  0.6854 -0.3933  0.5182
 8788TIP3    H150559   3.872   0.126   9.929  2.3571 -0.1019  1.7304
 8788TIP3    H250560   3.788   0.190  10.037  0.0825 -0.3456  0.1898
 8789TIP3   OH250561   1.814   2.672  12.994 -0.0770  0.3956 -0.2158
 8789TIP3    H150562   1.808   2.754  13.044  0.0684  0.8948 -1.0132
 8789TIP3    H250563   1.840   2.699  12.906  1.9471 -0.6810  0.0095
 8790TIP3   OH250564   4.812   1.774  10.858  0.0040 -0.2224 -0.2752
 8790TIP3    H150565   4.741   1.710  10.848 -1.6437  0.5757  3.9568
 8790TIP3    H250566   4.770   1.849  10.900  3.0283  1.0089  0.8241
 8791TIP3   OH250567   4.709   1.423  10.693 -0.0696 -0.2744  0.1982
 8791TIP3    H150568   4.792   1.423  10.645 -0.6772 -2.7122 -0.9949
 8791TIP3    H250569   4.732   1.399  10.782  0.6408  0.3137  0.1762
 8792TIP3   OH250570   3.084   2.759  10.094  0.0042 -0.6461 -0.0555
 8792TIP3    H150571   3.076   2.664  10.104  2.5053 -0.7138  3.0117
 8792TIP3    H250572   3.172   2.778  10.126 -0.5887  2.7648 -0.1758
 8793TIP3   OH250573   3.573   2.062  11.335 -0.1337 -0.6873  0.0512
 8793TIP3    H150574   3.647   2.070  11.275  1.4293 -1.7771  1.7498
 8793TIP3    H250575   3.498   2.042  11.278  1.0496 -0.5449 -1.6231
 8794TIP3   OH250576   4.317   1.131  10.154  0.0181 -0.0298 -0.0955
 8794TIP3    H150577   4.379   1.064  10.182 -0.6743 -0.0202  1.5976
 8794TIP3    H250578   4.369   1.211  10.151  0.5459 -0.3900 -0.8012
 8795TIP3   OH250579   0.005   1.776  11.285 -0.0572  0.6027 -0.6328
 8795TIP3    H150580   0.046   1.692  11.305 -2.0239 -0.1747  0.5005
 8795TIP3    H250581  -0.006   1.776  11.190  0.2553 -0.2770 -0.6783
 8796TIP3   OH250582   6.351   5.707  10.004 -0.6415  0.2827 -0.0728
 8796TIP3    H150583   6.403   5.781  10.035 -0.8651 -0.5483  2.5052
 8796TIP3    H250584   6.269   5.746   9.975  0.0938  1.2527 -0.9167
 8797TIP3   OH250585   4.239   0.193  12.425  0.1172  0.4539  0.3527
 8797TIP3    H150586   4.326   0.230  12.438  1.6285 -2.3353 -0.8305
 8797TIP3    H250587   4.181   0.244  12.481  2.4643  2.5645  0.9796
 8798TIP3   OH250588   0.403   5.189   9.892  0.4681 -0.0195 -0.4608
 8798TIP3    H150589   0.409   5.108   9.942  0.0490  0.2928  0.1072
 8798TIP3    H250590   0.491   5.226   9.896  0.3479  0.2036  0.4100
 8799TIP3   OH250591   4.168   6.057  10.981 -0.0632 -0.1726 -0.1542
 8799TIP3    H150592   4.261   6.066  10.958  0.9320 -0.2961  3.3087
 8799TIP3    H250593   4.167   6.002  11.059 -3.3172 -2.1026 -1.3718
 8800TIP3   OH250594   5.264   1.692  10.079 -0.1797 -0.4760 -0.1036
 8800TIP3    H150595   5.286   1.761  10.142 -3.0182 -0.4059  0.9306
 8800TIP3    H250596   5.303   1.613  10.116 -1.4073 -0.3524  1.5974
 8801TIP3   OH250597   1.019   5.284  10.510 -0.1287  0.1196  0.1129
 8801TIP3    H150598   1.095   5.342  10.518 -1.2092  1.4112  1.6874
 8801TIP3    H250599   0.952   5.337  10.467 -1.3512  0.3293  2.1650
 8802TIP3   OH250600   0.817   4.572  10.875 -0.2786  0.7834 -0.2143
 8802TIP3    H150601   0.856   4.638  10.932  0.6158 -1.5809  2.1392
 8802TIP3    H250602   0.731   4.555  10.913 -0.3396  0.3315 -0.5426
 8803TIP3   OH250603   4.688   6.604  11.675  0.3939 -0.3892 -0.5463
 8803TIP3    H150604   4.596   6.589  11.694 -0.2651  0.9593 -2.4416
 8803TIP3    H250605   4.703   6.560  11.592  1.2318  0.1794 -0.7134
 8804TIP3   OH250606   5.722   4.049  11.874 -0.2857  0.2159 -0.0712
 8804TIP3    H150607   5.666   4.025  11.800  0.5077  0.0513 -0.6279
 8804TIP3    H250608   5.665   4.099  11.932 -0.9059  0.4069 -0.8286
 8805TIP3   OH250609   1.869   1.704  10.379  0.0940 -0.0704  0.2842
 8805TIP3    H150610   1.900   1.672  10.294 -0.2807 -1.6068  0.7097
 8805TIP3    H250611   1.801   1.767  10.357 -1.1270 -1.6210 -0.5687
 8806TIP3   OH250612   1.012   4.102  12.968  0.2107 -0.0208 -0.1111
 8806TIP3    H150613   0.986   4.182  13.015 -0.1303 -1.4895  2.3265
 8806TIP3    H250614   1.097   4.123  12.931  0.1766  1.4469  0.5648
 8807TIP3   OH250615   4.827   0.847  12.012  0.4423 -0.4104 -0.0489
 8807TIP3    H150616   4.901   0.838  12.072  0.8516 -1.0315 -0.6382
 8807TIP3    H250617   4.757   0.796  12.053  0.4194 -0.0522  0.3699
 8808TIP3   OH250618   2.966   0.620   9.415 -0.4203  0.3564  0.9096
 8808TIP3    H150619   3.051   0.661   9.400 -1.0097  0.8300 -1.6811
 8808TIP3    H250620   2.912   0.688   9.455 -0.8921  1.6961 -1.8056
 8809TIP3   OH250621   5.510   4.631  10.863  0.0365 -0.2651 -0.5122
 8809TIP3    H150622   5.602   4.611  10.879  0.0068 -0.5928 -0.7401
 8809TIP3    H250623   5.495   4.606  10.772  0.1465  1.3510 -1.0024
 8810TIP3   OH250624   0.954   0.701   9.700 -0.2146  0.0804 -0.0292
 8810TIP3    H150625   0.863   0.672   9.697  0.0031 -0.7904  1.2459
 8810TIP3    H250626   0.979   0.694   9.792  0.6388  1.9515 -0.0609
 8811TIP3   OH250627   0.094   5.424  10.026 -0.5643  0.0076  0.0289
 8811TIP3    H150628   0.128   5.433   9.937 -0.7439  1.1361  0.0685
 8811TIP3    H250629   0.038   5.346  10.021  1.8377 -1.8436 -0.0562
 8812TIP3   OH250630   0.547   6.039  10.000 -0.3477 -0.2461  0.5561
 8812TIP3    H150631   0.528   6.129   9.972  1.6471  0.7027  1.9936
 8812TIP3    H250632   0.622   6.013   9.947  0.2765 -0.3329  1.4691
 8813TIP3   OH250633   4.371   6.603  10.154  0.3200  0.5725 -0.0229
 8813TIP3    H150634   4.292   6.562  10.188  1.0551  1.2558  2.7549
 8813TIP3    H250635   4.349   6.697  10.148  0.9423  0.7790  0.8710
 8814TIP3   OH250636   3.742   4.560  12.020  0.5505  0.0349  0.0146
 8814TIP3    H150637   3.678   4.572  12.090  0.1893  1.4565 -0.5334
 8814TIP3    H250638   3.816   4.517  12.063 -0.1400 -0.2405  0.9868
 8815TIP3   OH250639   1.481   3.711  11.490  0.0320  0.5918 -0.5523
 8815TIP3    H150640   1.569   3.718  11.453 -0.4420  0.4323 -1.7437
 8815TIP3    H250641   1.468   3.617  11.504  0.1954  0.6489 -0.0126
 8816TIP3   OH250642   5.833   5.924  12.238  0.1129 -0.4693  0.2313
 8816TIP3    H150643   5.891   5.885  12.172 -0.5759 -2.0036  0.4718
 8816TIP3    H250644   5.798   6.002  12.196  1.5129 -0.1021 -0.3155
 8817TIP3   OH250645   2.104   4.398  12.772 -0.3165 -0.2391  0.1757
 8817TIP3    H150646   2.061   4.313  12.766 -1.2671  0.3078 -1.8164
 8817TIP3    H250647   2.032   4.461  12.766  0.5671  0.6899 -1.5864
 8818TIP3   OH250648   3.877   2.281  11.787 -0.1060  0.6440 -0.7810
 8818TIP3    H150649   3.877   2.254  11.696 -1.8769  0.2517 -0.7137
 8818TIP3    H250650   3.913   2.207  11.835 -0.9088  0.0834 -1.0142
 8819TIP3   OH250651   3.892   5.226  11.062 -0.0640 -0.0451  0.3318
 8819TIP3    H150652   3.889   5.316  11.093 -0.8819 -0.3774  1.2721
 8819TIP3    H250653   3.805   5.210  11.026 -0.6912 -1.1333  2.2102
 8820TIP3   OH250654   0.328   3.039  12.100  0.0170 -0.4733  0.3545
 8820TIP3    H150655   0.377   2.975  12.049  0.7647  0.6700 -0.4243
 8820TIP3    H250656   0.388   3.068  12.169  0.0585  0.1108  0.0846
 8821TIP3   OH250657   2.645   4.269   9.807  0.3199 -0.3267  0.8072
 8821TIP3    H150658   2.683   4.193   9.764 -0.5104 -1.0481  1.3008
 8821TIP3    H250659   2.580   4.302   9.745  1.4482  0.6695  0.1271
 8822TIP3   OH250660   1.046   6.188   9.794  0.1911 -0.0106  0.2095
 8822TIP3    H150661   0.953   6.179   9.770 -0.0620  1.5635  0.4765
 8822TIP3    H250662   1.044   6.230   9.880  1.1564 -1.5359  1.0097
 8823TIP3   OH250663   1.313   5.882  11.675 -0.3128  0.2349 -0.1415
 8823TIP3    H150664   1.304   5.836  11.758 -1.5005 -0.4896 -0.6442
 8823TIP3    H250665   1.349   5.817  11.615  1.1385  0.9312 -0.0716
 8824TIP3   OH250666   3.510   2.786  12.190 -0.3350 -0.2519  0.4796
 8824TIP3    H150667   3.552   2.857  12.142 -1.8662 -0.0938 -0.6941
 8824TIP3    H250668   3.425   2.822  12.217 -1.1913 -1.6308 -0.2477
 8825TIP3   OH250669   1.502   3.913  11.091  0.0988 -0.0294  0.1792
 8825TIP3    H150670   1.438   3.970  11.048  0.2086  0.6772  0.9147
 8825TIP3    H250671   1.466   3.899  11.179  0.4840 -0.4128  0.2794
 8826TIP3   OH250672   4.050   5.412  11.760 -0.4284 -0.9430 -0.7905
 8826TIP3    H150673   4.014   5.343  11.703 -1.6065 -0.9842 -0.0263
 8826TIP3    H250674   4.039   5.377  11.848 -0.1052 -0.1911 -0.4527
 8827TIP3   OH250675   4.443   1.346  10.623  0.1827 -0.0381  0.0047
 8827TIP3    H150676   4.535   1.367  10.639  0.5773 -2.6136  1.7453
 8827TIP3    H250677   4.400   1.362  10.707  0.1336 -3.6106  0.8228
 8828TIP3   OH250678   0.065   1.070  10.378  0.2263 -0.5214  0.1470
 8828TIP3    H150679   0.019   1.117  10.448 -0.8340  0.7812 -1.3487
 8828TIP3    H250680   0.006   0.999  10.354 -0.4046  0.3090 -0.8264
 8829TIP3   OH250681   1.895   2.533  10.063 -0.0889 -0.1127 -0.2174
 8829TIP3    H150682   1.981   2.553  10.025  0.8962 -1.4855  1.1622
 8829TIP3    H250683   1.862   2.460  10.010  0.7966 -1.3052  0.8155
 8830TIP3   OH250684   5.804   0.533   9.552  0.5154 -0.2731 -0.0509
 8830TIP3    H150685   5.724   0.556   9.505  0.1536 -0.2481  0.5598
 8830TIP3    H250686   5.782   0.548   9.644  0.8095 -1.4606  0.2313
 8831TIP3   OH250687   4.190   0.244  10.379  0.1930  0.6295  0.1496
 8831TIP3    H150688   4.191   0.201  10.294  0.1286  0.2316  0.3483
 8831TIP3    H250689   4.270   0.214  10.422 -0.6076 -0.5281  0.8892
 8832TIP3   OH250690   5.521   1.026  12.260  0.0010 -0.7725  0.3026
 8832TIP3    H150691   5.457   0.967  12.301 -0.6777 -0.4282 -0.2455
 8832TIP3    H250692   5.469   1.098  12.224  0.7844 -0.0158  0.6387
 8833TIP3   OH250693   5.953   5.948   9.552  0.4402  1.0335 -0.4932
 8833TIP3    H150694   5.945   6.038   9.584  1.4240  1.0431 -0.2277
 8833TIP3    H250695   5.895   5.944   9.476 -2.0808  0.9538  1.3219
 8834TIP3   OH250696   0.168   3.464   9.785 -0.2848  0.0326  0.2329
 8834TIP3    H150697   0.164   3.458   9.689 -0.6515  0.5941  0.2079
 8834TIP3    H250698   0.224   3.391   9.811 -2.3854 -1.8281 -0.1996
 8835TIP3   OH250699   4.006   3.181   9.626  0.3202 -0.0560  0.3007
 8835TIP3    H150700   4.054   3.176   9.544  1.2920 -0.2360  0.8585
 8835TIP3    H250701   3.914   3.178   9.601  0.5914  0.7231 -0.8291
 8836TIP3   OH250702   5.589   5.694  10.892 -0.2734  0.2072 -0.0226
 8836TIP3    H150703   5.626   5.649  10.815  0.4989  0.5848  0.1143
 8836TIP3    H250704   5.494   5.684  10.882 -0.1265 -1.5277  0.0589
 8837TIP3   OH250705   2.942   2.107  10.434  0.0025 -0.1048 -0.5424
 8837TIP3    H150706   2.849   2.130  10.425  0.2618  1.0679 -0.4463
 8837TIP3    H250707   2.988   2.191  10.425  1.1104 -0.7788 -1.3435
 8838TIP3   OH250708   6.456   3.905   9.512  0.0162 -0.3851 -0.3204
 8838TIP3    H150709   6.366   3.932   9.490  0.7953  2.3139 -0.5433
 8838TIP3    H250710   6.479   3.844   9.442 -1.1393  0.0729 -1.1541
 8839TIP3   OH250711   1.713   2.978  11.382 -0.1696 -0.0660  0.8006
 8839TIP3    H150712   1.668   3.053  11.420 -0.2535  0.6562 -0.6558
 8839TIP3    H250713   1.722   2.999  11.289  1.1932 -1.1707  0.6329
 8840TIP3   OH250714   2.193   1.928   9.855 -0.0495 -0.5618 -0.8684
 8840TIP3    H150715   2.262   1.994   9.869 -0.4960 -0.2216 -0.2038
 8840TIP3    H250716   2.140   1.932   9.935 -0.3857 -1.3716 -1.0443
 8841TIP3   OH250717   3.050   6.193  12.834  0.3752  0.1340 -0.8588
 8841TIP3    H150718   3.082   6.252  12.766  1.9275  3.1661  2.1713
 8841TIP3    H250719   3.125   6.183  12.893 -1.0284 -1.9113  0.7259
 8842TIP3   OH250720   2.359   3.629  12.334 -0.2861 -0.0341  0.1114
 8842TIP3    H150721   2.305   3.600  12.407  1.4316  0.0419  1.4929
 8842TIP3    H250722   2.347   3.724  12.332  0.2345  0.0529  0.8033
 8843TIP3   OH250723   2.907   3.972  12.474 -0.5335 -0.1062 -0.6017
 8843TIP3    H150724   2.885   3.991  12.566 -3.0893  0.2219 -1.2027
 8843TIP3    H250725   2.954   4.050  12.444 -1.1717  0.5353  0.0017
 8844TIP3   OH250726   2.833   2.849  10.164 -0.2253  0.0430 -0.1915
 8844TIP3    H150727   2.860   2.913  10.230 -0.3490 -1.2529  1.1767
 8844TIP3    H250728   2.916   2.809  10.134 -0.2934 -1.4366  1.4070
 8845TIP3   OH250729   3.712   0.492   9.487  0.2498 -0.1157  0.1996
 8845TIP3    H150730   3.700   0.563   9.550 -0.0947  1.7186 -1.8166
 8845TIP3    H250731   3.795   0.452   9.511  0.4232  0.9200  1.4305
 8846TIP3   OH250732   3.813   4.274  10.340 -0.0033  0.4049  0.0136
 8846TIP3    H150733   3.856   4.253  10.423  2.1847  1.1958 -0.8504
 8846TIP3    H250734   3.811   4.370  10.338 -0.6113  0.3867 -0.5816
 8847TIP3   OH250735   3.882   4.109  12.903  0.4348  0.1920 -0.1121
 8847TIP3    H150736   3.793   4.129  12.875 -0.5700 -1.6506  1.5474
 8847TIP3    H250737   3.905   4.180  12.962  0.4847  1.2006 -1.3038
 8848TIP3   OH250738   5.933   6.301  11.213  0.0072  0.3602 -0.1111
 8848TIP3    H150739   5.858   6.351  11.245 -1.0206 -1.0580 -0.2333
 8848TIP3    H250740   5.963   6.251  11.289  0.6687  0.6979 -0.1389
 8849TIP3   OH250741   3.535   0.300  10.964  0.1215  0.6993  0.4146
 8849TIP3    H150742   3.548   0.378  11.019 -3.1703  0.1850  2.1772
 8849TIP3    H250743   3.475   0.329  10.896 -0.5085 -0.1117  0.6211
 8850TIP3   OH250744   4.033   1.916  10.250  0.3124  0.5319  0.0881
 8850TIP3    H150745   4.022   1.883  10.161  1.7748  0.6217 -0.1564
 8850TIP3    H250746   4.128   1.916  10.264  0.3839  3.7600  0.4063
 8851TIP3   OH250747   3.033   6.467   9.529 -0.3825  0.5627 -0.1430
 8851TIP3    H150748   3.048   6.497   9.439  0.3902 -0.7315 -0.4703
 8851TIP3    H250749   3.074   6.534   9.583  0.4045  0.6567 -0.8193
 8852TIP3   OH250750   5.222   6.418  13.463  0.2184  0.5891 -0.9204
 8852TIP3    H150751   5.195   6.339  13.509 -0.2338  1.3368  0.1609
 8852TIP3    H250752   5.150   6.480  13.477  0.6419  1.2545 -1.5762
 8853TIP3   OH250753   5.882   4.117  10.525 -0.2875 -0.7045 -0.2760
 8853TIP3    H150754   5.795   4.157  10.534 -0.2117 -0.9768  2.8487
 8853TIP3    H250755   5.891   4.064  10.604  1.8460 -2.4987 -1.6545
 8854TIP3   OH250756   0.796   0.537  12.128 -0.0324  0.2074 -0.1822
 8854TIP3    H150757   0.713   0.580  12.106 -0.7348 -1.5046 -1.0652
 8854TIP3    H250758   0.774   0.444  12.133  1.5091 -0.1308  1.2991
 8855TIP3   OH250759   1.639   0.682  10.608  0.5802  0.4692  0.2306
 8855TIP3    H150760   1.646   0.671  10.513 -1.6039  2.5103 -0.2710
 8855TIP3    H250761   1.717   0.731  10.633  1.4600 -0.5799 -0.3923
 8856TIP3   OH250762   6.208   3.095  10.024 -0.0584 -0.6009 -0.3882
 8856TIP3    H150763   6.192   3.165  10.087  0.2378 -0.2906 -0.6506
 8856TIP3    H250764   6.241   3.022  10.076 -1.6188 -1.0183  0.0755
 8857TIP3   OH250765   5.688   3.429   9.777 -0.1047 -0.2429 -0.1464
 8857TIP3    H150766   5.722   3.498   9.720 -0.6417 -1.1685 -1.6479
 8857TIP3    H250767   5.595   3.449   9.786 -0.1719 -0.5179 -0.2187
 8858TIP3   OH250768   1.630   0.175  12.061 -0.2028  0.4289  0.0580
 8858TIP3    H150769   1.539   0.176  12.032 -0.2666  2.4357  0.1606
 8858TIP3    H250770   1.629   0.129  12.145 -1.2129  0.8679  0.2957
 8859TIP3   OH250771   5.341   5.251  10.424 -0.5113  0.0995  0.3770
 8859TIP3    H150772   5.368   5.258  10.332 -0.0550  1.3684  0.5949
 8859TIP3    H250773   5.423   5.260  10.473 -0.9876  1.3074  0.9615
 8860TIP3   OH250774   6.516   4.007  10.768 -0.2599  0.1144 -0.2319
 8860TIP3    H150775   6.532   3.926  10.719 -1.1569  0.3726 -0.9908
 8860TIP3    H250776   6.485   3.977  10.853 -2.3128 -0.3964 -1.0836
 8861TIP3   OH250777   4.116   0.486  11.512  0.1723  0.0730  0.1040
 8861TIP3    H150778   4.020   0.476  11.517  0.1683  0.2092  0.3215
 8861TIP3    H250779   4.149   0.401  11.541  0.1114 -0.3476 -1.0020
 8862TIP3   OH250780   4.622   6.605  11.258 -0.2857  0.5612 -0.0609
 8862TIP3    H150781   4.698   6.663  11.245 -1.1346  1.9260  0.8050
 8862TIP3    H250782   4.632   6.573  11.347  0.3569 -0.9595 -0.6435
 8863TIP3   OH250783   2.056   0.451  11.428 -0.2211 -0.1394  0.2927
 8863TIP3    H150784   1.995   0.440  11.355  0.1076 -3.3864  0.3522
 8863TIP3    H250785   2.024   0.527  11.476 -3.0348 -0.5260 -0.8127
 8864TIP3   OH250786   0.517   6.549  13.170 -0.3555 -0.2397  0.9356
 8864TIP3    H150787   0.567   6.619  13.127 -0.5932 -0.7737 -0.2440
 8864TIP3    H250788   0.435   6.591  13.194 -0.6137 -0.1647 -0.0236
 8865TIP3   OH250789   0.711   1.334  11.247  0.0875 -1.1215  0.6701
 8865TIP3    H150790   0.707   1.407  11.185 -0.0792 -0.3222  1.5999
 8865TIP3    H250791   0.803   1.330  11.273 -0.1876 -0.1120  1.9044
 8866TIP3   OH250792   2.055   3.581  11.093 -0.6145  0.5565 -0.1761
 8866TIP3    H150793   2.140   3.625  11.086 -0.5148  0.3713 -0.1418
 8866TIP3    H250794   2.003   3.639  11.148 -0.7062  0.9711 -0.6864
 8867TIP3   OH250795   0.557   5.741   9.691 -0.2842  0.7772  0.6197
 8867TIP3    H150796   0.490   5.786   9.639 -1.7086  0.3465  1.9977
 8867TIP3    H250797   0.507   5.684   9.750  1.3742 -1.4822 -0.0071
 8868TIP3   OH250798   0.905   3.255   9.931  0.1602 -0.1973  0.1299
 8868TIP3    H150799   0.857   3.295   9.859  0.1336  0.8972  0.7320
 8868TIP3    H250800   0.981   3.214   9.890 -0.9775 -1.4559 -0.7598
 8869TIP3   OH250801   0.926   2.900  11.195  0.3990  0.2923  0.1051
 8869TIP3    H150802   0.955   2.966  11.259 -0.0209  1.3623 -0.7714
 8869TIP3    H250803   1.000   2.892  11.134 -1.1010  3.3199 -2.3657
 8870TIP3   OH250804   2.145   1.617  11.948  0.2180 -0.0279 -0.2785
 8870TIP3    H150805   2.194   1.591  11.870 -0.5752  0.1022 -0.8272
 8870TIP3    H250806   2.161   1.546  12.011  1.1150  0.0202 -0.4342
 8871TIP3   OH250807   1.478   5.420  10.427  0.1801  0.1502  0.1317
 8871TIP3    H150808   1.481   5.509  10.462  0.7330  0.4812 -0.7195
 8871TIP3    H250809   1.399   5.417  10.374 -1.0853 -0.5915  1.9558
 8872TIP3   OH250810   5.854   6.552  11.785  0.7876  0.6535 -0.1189
 8872TIP3    H150811   5.902   6.566  11.704  1.4743  1.2733  0.3889
 8872TIP3    H250812   5.787   6.621  11.785  0.4002  0.2887 -0.4307
 8873TIP3   OH250813   2.203   6.114  10.846  0.2554  0.0718  0.0162
 8873TIP3    H150814   2.236   6.146  10.930  1.2329  2.2824 -1.1197
 8873TIP3    H250815   2.115   6.152  10.839 -0.2127 -0.9127  0.4424
 8874TIP3   OH250816   2.762   2.310  11.854 -0.3248 -0.2563  0.4070
 8874TIP3    H150817   2.806   2.374  11.798  0.9493 -0.3942  1.2156
 8874TIP3    H250818   2.681   2.354  11.881 -0.2127  0.4017 -0.2999
 8875TIP3   OH250819   4.521   5.032  10.546 -0.0025  0.4126 -0.0150
 8875TIP3    H150820   4.573   4.959  10.513  0.3491  0.8816 -0.5264
 8875TIP3    H250821   4.431   4.998  10.551  0.3538 -0.4242  0.9422
 8876TIP3   OH250822   4.630   3.619  10.242  0.5754  0.0869 -0.0529
 8876TIP3    H150823   4.666   3.615  10.153  0.0656 -0.4561 -0.2376
 8876TIP3    H250824   4.543   3.579  10.235  0.2555  0.6568  0.5536
 8877TIP3   OH250825   1.980   5.679  12.645 -0.2642 -0.1975 -0.1725
 8877TIP3    H150826   2.038   5.753  12.666  0.5131 -0.8674  0.0840
 8877TIP3    H250827   1.958   5.692  12.553  0.4320 -0.0210 -0.3185
 8878TIP3   OH250828   3.305   1.720  12.529  0.5969 -0.3259  0.2856
 8878TIP3    H150829   3.369   1.744  12.461  0.2645 -0.2394  0.0005
 8878TIP3    H250830   3.243   1.793  12.529  0.6745 -0.2605  0.7815
 8879TIP3   OH250831   2.987   1.794  11.049  0.6146  0.4859 -0.0615
 8879TIP3    H150832   2.919   1.861  11.044 -0.1768 -0.1983  0.9207
 8879TIP3    H250833   2.988   1.753  10.963  0.1821  0.8917 -0.2623
 8880TIP3   OH250834   5.161   5.302  10.607  0.0657 -0.1756  0.1839
 8880TIP3    H150835   5.127   5.218  10.637 -1.1619 -0.3203 -1.4465
 8880TIP3    H250836   5.222   5.279  10.536  0.5114  0.2777  0.4109
 8881TIP3   OH250837   0.835   3.836  11.396  0.0642  0.3167  0.2124
 8881TIP3    H150838   0.756   3.792  11.427 -0.6395 -0.7095 -2.7200
 8881TIP3    H250839   0.891   3.841  11.473 -1.9632 -0.9479  1.8780
 8882TIP3   OH250840   0.141   5.706  11.220  0.0430  0.1333 -0.2235
 8882TIP3    H150841   0.203   5.765  11.263  0.0994  0.4488 -0.7341
 8882TIP3    H250842   0.178   5.619  11.232  1.4181  0.4451 -1.8702
 8883TIP3   OH250843   6.655   6.257  11.942 -0.0671  0.3713  0.1956
 8883TIP3    H150844   6.702   6.227  12.020  1.3537 -0.5170 -0.9389
 8883TIP3    H250845   6.562   6.247  11.964  0.3164 -0.8038  1.4253
 8884TIP3   OH250846   4.618   1.284   9.567  0.0901  0.6236  0.0633
 8884TIP3    H150847   4.638   1.225   9.640 -0.2322 -0.9334 -1.0622
 8884TIP3    H250848   4.550   1.239   9.518 -2.5482  3.3979  0.8711
 8885TIP3   OH250849   0.100   6.603  13.743 -0.2303  0.7813  0.4896
 8885TIP3    H150850   0.169   6.603  13.676 -0.7225  2.6106 -0.0770
 8885TIP3    H250851   0.026   6.560  13.701  0.0046  0.4044  0.4601
 8886TIP3   OH250852   4.982   3.240  10.258  0.2564  0.1014 -0.3100
 8886TIP3    H150853   4.950   3.255  10.347  0.2108 -0.5277 -0.2178
 8886TIP3    H250854   4.911   3.194  10.214  0.5505 -0.2165 -0.4597
 8887TIP3   OH250855   3.678   4.716  11.759  0.2857 -0.0357 -0.7919
 8887TIP3    H150856   3.771   4.709  11.741  0.2947  2.2692 -1.8971
 8887TIP3    H250857   3.673   4.751  11.848  0.4596 -0.3577 -0.6542
 8888TIP3   OH250858   1.125   3.423  12.480  0.2725  0.0606 -0.4502
 8888TIP3    H150859   1.065   3.432  12.554 -0.5011  0.2469 -1.0760
 8888TIP3    H250860   1.212   3.417  12.519 -0.1010  0.4082  0.4555
 8889TIP3   OH250861   2.235   1.497  11.712  0.2041 -0.0178 -0.4493
 8889TIP3    H150862   2.185   1.531  11.637  1.4521  0.4471 -1.1136
 8889TIP3    H250863   2.323   1.485  11.677  0.5130 -1.0185  0.6289
 8890TIP3   OH250864   2.663   5.686   9.379 -0.1407 -0.3150 -0.0086
 8890TIP3    H150865   2.679   5.602   9.336  0.3655  0.2088 -0.8613
 8890TIP3    H250866   2.569   5.684   9.400 -0.4527 -0.4931 -1.3347
 8891TIP3   OH250867   4.542   2.929  10.346  0.0716 -0.3548 -0.2227
 8891TIP3    H150868   4.535   2.863  10.277 -0.2976 -1.2862  0.6836
 8891TIP3    H250869   4.636   2.946  10.352  0.2419 -1.2856 -0.0342
 8892TIP3   OH250870   0.602   5.521  12.372 -0.1599  0.4051  0.5148
 8892TIP3    H150871   0.541   5.592  12.393 -0.0578  0.7648 -0.3766
 8892TIP3    H250872   0.664   5.560  12.310  0.3090 -0.2745  0.5425
 8893TIP3   OH250873   1.567   0.475  10.355 -0.5155 -0.0059  0.3307
 8893TIP3    H150874   1.475   0.497  10.373 -1.0431 -0.4652 -1.5977
 8893TIP3    H250875   1.611   0.560  10.349 -1.3941  0.3819 -1.4137
 8894TIP3   OH250876   0.416   2.524  10.196  0.0568  0.2164 -0.1732
 8894TIP3    H150877   0.493   2.581  10.191  0.1241  0.1234 -0.2069
 8894TIP3    H250878   0.344   2.583  10.217  0.0534  0.3784 -0.6174
 8895TIP3   OH250879   6.144   1.619  10.386 -0.1900 -0.1020 -0.3361
 8895TIP3    H150880   6.172   1.610  10.477  0.7136  1.5907 -0.4109
 8895TIP3    H250881   6.187   1.547  10.341  1.0095  0.2272  0.2313
 8896TIP3   OH250882   1.933   4.153  12.023  0.0439  0.1284 -0.1416
 8896TIP3    H150883   1.961   4.227  11.970  1.3245  0.1786  0.5700
 8896TIP3    H250884   2.013   4.101  12.035 -0.7713 -1.2226 -0.3951
 8897TIP3   OH250885   6.082   6.332  10.408 -0.5655  0.1362  0.6593
 8897TIP3    H150886   6.145   6.288  10.466 -2.4831 -0.9404  2.0433
 8897TIP3    H250887   6.046   6.263  10.354 -1.4262  0.5131  0.7323
 8898TIP3   OH250888   2.221   3.725  12.034 -0.1501 -0.2223 -0.3296
 8898TIP3    H150889   2.315   3.744  12.038  0.3344 -2.4891  1.6095
 8898TIP3    H250890   2.179   3.799  12.077  1.1100 -0.6830  1.8505
 8899TIP3   OH250891   6.531   3.187  10.905 -0.3049  0.2141  0.2158
 8899TIP3    H150892   6.606   3.132  10.928 -1.0922 -1.9894 -1.9948
 8899TIP3    H250893   6.522   3.248  10.978  1.8756 -1.3145  1.8849
 8900TIP3   OH250894   3.268   0.008  10.958  0.1167  0.1844 -0.3000
 8900TIP3    H150895   3.272   0.074  11.027  0.2067 -0.0580 -0.0694
 8900TIP3    H250896   3.304   0.051  10.881  0.6703  0.2414 -0.0147
 8901TIP3   OH250897   1.639   0.543  11.173 -0.0404  0.3472 -0.0589
 8901TIP3    H150898   1.654   0.637  11.169  1.1864  0.1979  0.5447
 8901TIP3    H250899   1.593   0.522  11.092 -1.6263  1.6711  0.4588
 8902TIP3   OH250900   3.162   3.307  11.144  0.3114 -0.4198  0.1784
 8902TIP3    H150901   3.234   3.367  11.125  0.0615 -0.3081 -0.4378
 8902TIP3    H250902   3.093   3.362  11.180 -0.0322 -0.2826 -0.6765
 8903TIP3   OH250903   5.507   0.323   9.499  0.3952 -0.2539  0.5124
 8903TIP3    H150904   5.490   0.416   9.482 -0.9333 -0.1942  1.9180
 8903TIP3    H250905   5.569   0.323   9.572  0.3133 -0.4670  0.5829
 8904TIP3   OH250906   0.052   3.019  11.037  0.3636  0.0315 -0.3661
 8904TIP3    H150907   0.127   3.065  11.000  1.0086 -0.3859  0.3912
 8904TIP3    H250908   0.084   2.930  11.054  0.3282  0.3769  1.8048
 8905TIP3   OH250909   2.521   3.968  12.822  0.2565 -0.2921 -0.5554
 8905TIP3    H150910   2.499   3.910  12.749 -0.6799 -1.0024  0.2462
 8905TIP3    H250911   2.436   3.995  12.857  0.6719  1.6492 -0.9342
 8906TIP3   OH250912   0.763   5.557   9.800  0.0875  0.5657  0.1649
 8906TIP3    H150913   0.697   5.610   9.756  0.0070  0.1005 -0.2753
 8906TIP3    H250914   0.847   5.591   9.768  0.0585  0.9222  0.4575
 8907TIP3   OH250915   1.630   4.567  12.183 -0.4026 -0.1140  0.2562
 8907TIP3    H150916   1.660   4.650  12.219  0.7494 -1.1423  1.8005
 8907TIP3    H250917   1.535   4.576  12.178 -0.3012  1.2726  0.3964
 8908TIP3   OH250918   3.420   2.704  11.042 -0.6562 -0.1040 -0.3016
 8908TIP3    H150919   3.390   2.771  10.982 -0.9889  0.5131  0.5350
 8908TIP3    H250920   3.409   2.622  10.995  0.8147  0.4926 -1.7747
 8909TIP3   OH250921   2.628   2.679  10.145 -0.1967 -0.3878  0.2781
 8909TIP3    H150922   2.694   2.747  10.134 -0.2003 -0.4066  0.1419
 8909TIP3    H250923   2.548   2.726  10.168  0.1528 -0.4469  1.6727
 8910TIP3   OH250924   4.028   0.409   9.860  0.0205  0.1380  0.2075
 8910TIP3    H150925   3.957   0.354   9.892 -0.6869  1.4105  0.8869
 8910TIP3    H250926   4.092   0.410   9.932 -0.6513  1.3636  0.8311
 8911TIP3   OH250927   1.694   2.520  10.960 -0.1446 -0.2951  0.2999
 8911TIP3    H150928   1.647   2.593  10.999 -1.7819 -0.8703 -0.5076
 8911TIP3    H250929   1.678   2.446  11.019 -1.0353 -0.7032 -0.4184
 8912TIP3   OH250930   5.349   5.975  11.340 -0.0145 -0.1056 -0.0774
 8912TIP3    H150931   5.435   5.971  11.299 -0.1038  0.9580 -0.4033
 8912TIP3    H250932   5.362   6.027  11.419 -0.7156  1.7810 -1.1572
 8913TIP3   OH250933   2.264   4.102   9.541 -0.0577 -0.5623  0.2229
 8913TIP3    H150934   2.329   4.135   9.479  1.0050 -0.1786  1.5144
 8913TIP3    H250935   2.283   4.147   9.623 -2.1416 -0.2242  0.5808
 8914TIP3   OH250936   1.524   4.891   9.535 -0.2072  0.2927 -0.1138
 8914TIP3    H150937   1.552   4.806   9.502  0.7381  1.4090 -2.4115
 8914TIP3    H250938   1.588   4.953   9.500 -1.9231  2.1858 -0.1228
 8915TIP3   OH250939   0.950   3.874  10.392  0.2279 -0.0325 -0.1905
 8915TIP3    H150940   0.886   3.883  10.322  0.0812  0.4836  0.0000
 8915TIP3    H250941   1.033   3.857  10.347  0.3145  1.2578 -0.5592
 8916TIP3   OH250942   0.174   5.109  10.047 -0.0138  0.3235  0.1718
 8916TIP3    H150943   0.103   5.075   9.993  0.9227 -1.0723 -0.2233
 8916TIP3    H250944   0.210   5.182   9.996 -0.6807  0.5555  0.0316
 8917TIP3   OH250945   2.951   5.998  12.366  0.6590 -0.3957 -0.3076
 8917TIP3    H150946   2.856   6.013  12.365  0.6937  0.3087 -3.3260
 8917TIP3    H250947   2.985   6.063  12.427 -0.8834 -1.9502  2.4039
 8918TIP3   OH250948   2.568   3.448  12.486 -0.4985 -0.1275 -0.1316
 8918TIP3    H150949   2.544   3.539  12.466  1.7627  0.0940 -2.2402
 8918TIP3    H250950   2.619   3.455  12.567 -0.4638  0.4656 -0.1970
 8919TIP3   OH250951   1.329   5.046  10.204 -0.1027 -0.9919 -0.3452
 8919TIP3    H150952   1.292   5.119  10.253 -0.8513 -1.2326 -0.5353
 8919TIP3    H250953   1.390   5.005  10.265  1.2210  0.4774 -0.6339
 8920TIP3   OH250954   3.839   0.563  11.618 -0.2167 -0.3162 -0.2554
 8920TIP3    H150955   3.769   0.589  11.679 -0.9136 -0.8441 -0.8140
 8920TIP3    H250956   3.909   0.626  11.634 -0.5952 -0.1178  0.7204
 8921TIP3   OH250957   3.924   6.654  12.516  0.0369 -0.0662 -0.2208
 8921TIP3    H150958   3.942   6.564  12.489  0.9469  0.6585 -2.1725
 8921TIP3    H250959   3.999   6.679  12.569 -0.1907 -0.4242  0.2785
 8922TIP3   OH250960   2.392   6.483  11.286  0.1728  0.1848 -0.3395
 8922TIP3    H150961   2.477   6.526  11.276  0.3474 -0.4256 -1.8149
 8922TIP3    H250962   2.413   6.398  11.324 -0.0306  0.8473  1.3172
 8923TIP3   OH250963   1.864   4.096  10.903  0.5555 -0.2165 -0.0511
 8923TIP3    H150964   1.955   4.112  10.880  0.1251  0.5353 -1.3256
 8923TIP3    H250965   1.815   4.165  10.859 -0.6657 -0.8100  0.3190
 8924TIP3   OH250966   0.487   4.378  10.594  0.1289 -0.3509 -0.0412
 8924TIP3    H150967   0.410   4.416  10.551 -0.7804 -2.0268  0.0086
 8924TIP3    H250968   0.451   4.327  10.667  1.3878 -0.3019  0.6392
 8925TIP3   OH250969   6.167   1.219  10.057  0.3744  0.1304  0.5823
 8925TIP3    H150970   6.135   1.289  10.001 -0.6419  0.3896  1.4345
 8925TIP3    H250971   6.262   1.220  10.046  0.4666  2.1910  1.1834
 8926TIP3   OH250972   1.481   6.526  11.603 -0.3764  0.3216  0.3208
 8926TIP3    H150973   1.400   6.481  11.579  0.2121 -0.9239  0.5826
 8926TIP3    H250974   1.452   6.609  11.642 -1.5209 -0.1637  0.5398
 8927TIP3   OH250975   0.319   3.112  12.753  0.3634 -0.3250 -0.0275
 8927TIP3    H150976   0.256   3.179  12.727  1.6049  0.9976  0.2316
 8927TIP3    H250977   0.355   3.079  12.670  0.2749 -0.1483 -0.1359
 8928TIP3   OH250978   1.626   5.490  12.235  0.6587 -0.5021  0.6724
 8928TIP3    H150979   1.641   5.585  12.231  2.4351 -0.7812 -0.2175
 8928TIP3    H250980   1.537   5.482  12.269  0.1403  1.5073 -0.0392
 8929TIP3   OH250981   0.306   0.426   9.765 -0.1819 -0.1194 -0.0378
 8929TIP3    H150982   0.394   0.438   9.730  0.1422  0.3611  0.8954
 8929TIP3    H250983   0.307   0.340   9.805 -0.4492 -0.5249 -0.8691
 8930TIP3   OH250984   6.597   3.327  11.635  0.3373  0.4946  0.5120
 8930TIP3    H150985   6.590   3.398  11.699  1.9438  0.9688  0.1955
 8930TIP3    H250986   6.665   3.269  11.671 -0.7099 -0.7331  0.6013
 8931TIP3   OH250987   2.527   3.814  11.480 -0.3590  0.0639  0.1246
 8931TIP3    H150988   2.555   3.895  11.523  1.5211  0.2357 -1.2994
 8931TIP3    H250989   2.500   3.841  11.392  1.0525 -0.9220 -0.6460
 8932TIP3   OH250990   3.243   6.398   9.933  0.2864  0.5432  0.0338
 8932TIP3    H150991   3.171   6.352   9.890 -1.7575  2.0594  1.6139
 8932TIP3    H250992   3.244   6.484   9.891  0.1611  1.0407  1.0232
 8933TIP3   OH250993   1.015   3.582  10.533  0.3096  0.0542  0.1854
 8933TIP3    H150994   0.947   3.609  10.471 -0.0336  0.5778  0.7740
 8933TIP3    H250995   1.026   3.657  10.591  2.0316  0.3181 -0.4272
 8934TIP3   OH250996   1.498   0.465  12.283  0.2641 -0.3415  0.1359
 8934TIP3    H150997   1.564   0.512  12.333 -0.6848 -0.0111  1.0950
 8934TIP3    H250998   1.453   0.410  12.347 -1.9603  1.1871 -0.0129
 8935TIP3   OH250999   5.371   3.689  12.405 -0.6340  0.1174  0.3199
 8935TIP3    H151000   5.279   3.666  12.397 -0.8648  0.8280  0.8306
 8935TIP3    H251001   5.397   3.657  12.491 -0.2420 -0.6007 -0.0562
 8936TIP3   OH251002   6.071   4.888   9.683 -0.2343 -0.8872 -0.1395
 8936TIP3    H151003   6.007   4.853   9.745  0.2342 -1.3622  0.0889
 8936TIP3    H251004   6.026   4.888   9.599 -0.3378 -1.7921 -0.0917
 8937TIP3   OH251005   2.164   3.894  11.010 -0.4996 -0.4287 -0.1203
 8937TIP3    H151006   2.165   3.888  10.915 -0.9991 -1.7909 -0.0496
 8937TIP3    H251007   2.172   3.988  11.028  1.8980 -0.2865 -1.4542
 8938TIP3   OH251008   6.563   4.360  10.083 -0.0974 -0.3213  0.5366
 8938TIP3    H151009   6.472   4.353  10.054 -0.7725 -1.3147  2.6689
 8938TIP3    H251010   6.615   4.344  10.004 -1.7878 -2.3322 -0.2519
 8939TIP3   OH251011   2.708   0.105  10.517 -0.4981 -0.3908  0.3881
 8939TIP3    H151012   2.723   0.100  10.611 -1.3699  2.6463  0.8213
 8939TIP3    H251013   2.796   0.103  10.478  0.2546  2.2632  1.6741
 8940TIP3   OH251014   1.924   1.577  10.823  0.1982 -0.0933 -0.4548
 8940TIP3    H151015   1.931   1.597  10.917  1.2549  1.5383 -0.8432
 8940TIP3    H251016   1.923   1.662  10.780 -1.1222 -0.7928 -1.9057
 8941TIP3   OH251017   4.658   6.144  11.909  0.1548  0.3419 -0.2197
 8941TIP3    H151018   4.563   6.133  11.914  0.1728  0.6500  1.1023
 8941TIP3    H251019   4.684   6.170  11.998  1.5028  0.0336 -0.5031
 8942TIP3   OH251020   1.804   1.742  11.331 -0.0025  0.0567  0.3461
 8942TIP3    H151021   1.837   1.823  11.370 -2.1766  0.7770  0.8121
 8942TIP3    H251022   1.783   1.687  11.406 -0.1144 -0.2905  0.0619
 8943TIP3   OH251023   4.840   0.140  11.572 -0.3938 -0.7132  0.3936
 8943TIP3    H151024   4.867   0.212  11.629  1.3921 -0.6669 -0.4577
 8943TIP3    H251025   4.830   0.065  11.632 -1.0069 -0.0966  1.0936
 8944TIP3   OH251026   3.906   4.890  11.274 -0.0665 -0.4127 -0.0778
 8944TIP3    H151027   3.979   4.851  11.322  0.1138  0.5218  0.4437
 8944TIP3    H251028   3.905   4.845  11.190 -1.0086 -2.8035  1.1250
 8945TIP3   OH251029   2.577   0.295  12.820 -0.0867 -0.4054  0.1048
 8945TIP3    H151030   2.594   0.355  12.748  1.9817  0.4840  1.2411
 8945TIP3    H251031   2.535   0.350  12.887  2.9685  0.2553  1.6593
 8946TIP3   OH251032   6.218   1.952   9.554 -0.1331 -0.1893 -0.2391
 8946TIP3    H151033   6.172   1.987   9.478 -1.5912 -0.8638  0.3033
 8946TIP3    H251034   6.247   1.865   9.527 -0.2120 -0.2319 -0.1855
 8947TIP3   OH251035   4.904   2.091  12.344 -0.1674  0.3155 -0.0548
 8947TIP3    H151036   4.997   2.074  12.330 -0.4403 -2.0943  0.6579
 8947TIP3    H251037   4.898   2.117  12.436 -0.4451 -2.5524  0.8445
 8948TIP3   OH251038   1.385   0.298  12.483 -0.2037  0.3841 -0.8176
 8948TIP3    H151039   1.292   0.287  12.503 -0.8153  3.7646 -1.1469
 8948TIP3    H251040   1.429   0.285  12.567 -1.0585 -0.4368 -0.4787
 8949TIP3   OH251041   3.895   2.568  11.718  0.3751 -0.1665  0.3724
 8949TIP3    H151042   3.900   2.476  11.744 -0.0085 -0.2763  0.0732
 8949TIP3    H251043   3.986   2.598  11.715  0.5839 -0.8756 -0.7340
 8950TIP3   OH251044   0.216   5.211  11.631  0.2620 -0.0071  0.2478
 8950TIP3    H151045   0.149   5.276  11.613  1.1874  0.3757 -2.1016
 8950TIP3    H251046   0.298   5.260  11.633  0.8402 -0.9135 -0.3472
 8951TIP3   OH251047   4.150   0.318  10.815 -1.1697  0.0526 -0.1524
 8951TIP3    H151048   4.221   0.316  10.752 -0.2419  1.5141  0.7922
 8951TIP3    H251049   4.149   0.230  10.853 -0.8592 -0.4258 -1.2176
 8952TIP3   OH251050   0.893   4.423  11.876 -0.7454 -0.3092  0.0011
 8952TIP3    H151051   0.806   4.399  11.844 -0.6168  0.3089 -0.8575
 8952TIP3    H251052   0.886   4.418  11.971 -2.1210  1.0443  0.0124
 8953TIP3   OH251053   6.229   3.467   9.468  0.3179  0.4654  0.4881
 8953TIP3    H151054   6.222   3.500   9.558  1.0519  0.7150  0.4615
 8953TIP3    H251055   6.201   3.376   9.473 -0.5632  0.7436  0.7927
 8954TIP3   OH251056   4.629   4.266  12.366 -0.4911  0.2317 -0.2802
 8954TIP3    H151057   4.608   4.357  12.345  0.8901  0.2766 -1.6017
 8954TIP3    H251058   4.544   4.224  12.379 -1.1694  1.5274 -0.4049
 8955TIP3   OH251059   6.157   3.851  11.924 -0.0583 -0.2776 -0.6079
 8955TIP3    H151060   6.198   3.919  11.870  2.7675  0.0551  1.7254
 8955TIP3    H251061   6.143   3.894  12.008 -0.3915 -1.9578  0.2237
 8956TIP3   OH251062   3.618   3.416  11.442 -0.4151 -0.0976  0.2588
 8956TIP3    H151063   3.575   3.471  11.376 -1.2817 -1.0840 -0.0202
 8956TIP3    H251064   3.547   3.385  11.498  0.0748 -0.7764  0.5199
 8957TIP3   OH251065   4.816   5.901  12.273 -0.0373 -0.1905 -0.0543
 8957TIP3    H151066   4.910   5.883  12.271  0.0769  0.4173 -0.2735
 8957TIP3    H251067   4.777   5.820  12.305  0.6086 -0.2639  0.5617
 8958TIP3   OH251068   6.025   1.055   9.480  0.0204  0.2496  0.6026
 8958TIP3    H151069   5.975   1.116   9.424  1.1124  1.3687  0.7985
 8958TIP3    H251070   5.962   1.024   9.544 -0.5217  1.3369  0.6126
 8959TIP3   OH251071   1.557   4.621  10.445 -0.7298  0.0710 -0.0970
 8959TIP3    H151072   1.536   4.625  10.538  0.7676  0.6739  0.2450
 8959TIP3    H251073   1.649   4.647  10.440 -0.6797 -0.2991 -1.7115
 8960TIP3   OH251074   0.496   5.190  10.265 -0.5021  0.4993 -0.5055
 8960TIP3    H151075   0.471   5.110  10.218 -0.8761  1.1389 -1.4028
 8960TIP3    H251076   0.574   5.165  10.314 -0.0833 -0.1748 -1.4827
 8961TIP3   OH251077   5.157   5.594  12.724  0.7819 -0.1689 -0.6311
 8961TIP3    H151078   5.185   5.683  12.748 -0.8345  0.9167 -2.4303
 8961TIP3    H251079   5.131   5.554  12.806  0.9633  1.2536  0.1621
 8962TIP3   OH251080   0.926   5.397  11.435 -0.0967  0.1075  0.4958
 8962TIP3    H151081   0.878   5.356  11.364  0.0146  0.3040  0.3044
 8962TIP3    H251082   0.911   5.340  11.511  2.4947 -1.9807 -0.4121
 8963TIP3   OH251083   0.989   6.031  11.152  0.6079  0.5542  1.1107
 8963TIP3    H151084   0.955   6.098  11.092 -0.6632 -2.0595 -1.2998
 8963TIP3    H251085   0.912   5.983  11.181  1.6145 -1.4653  0.6557
 8964TIP3   OH251086   2.850   1.248  12.550  0.0873 -0.0496  0.1139
 8964TIP3    H151087   2.893   1.330  12.575 -0.2366 -0.0211  0.5759
 8964TIP3    H251088   2.921   1.183  12.551  0.6817  0.4841 -1.7426
 8965TIP3   OH251089   3.208   2.260   9.939 -0.3681  0.2356  0.3014
 8965TIP3    H151090   3.202   2.285   9.847  1.1894 -1.6874 -0.4147
 8965TIP3    H251091   3.147   2.186   9.947 -0.4185  0.3306  0.7728
 8966TIP3   OH251092   2.804   3.251   9.980 -0.3807 -0.1985  0.0194
 8966TIP3    H151093   2.799   3.222   9.889 -0.3553  0.6118 -0.2537
 8966TIP3    H251094   2.838   3.340   9.974 -0.9597  0.0828  0.7816
 8967TIP3   OH251095   4.437   2.991  10.903  0.4637 -0.8571 -0.9103
 8967TIP3    H151096   4.495   2.945  10.965 -0.4641  0.9522  1.4466
 8967TIP3    H251097   4.368   2.928  10.883 -0.5377 -0.7779  1.8992
 8968TIP3   OH251098   6.178   0.870  11.950  0.1800 -0.0699 -0.3550
 8968TIP3    H151099   6.262   0.901  11.984 -0.0707 -0.7121  0.9043
 8968TIP3    H251100   6.116   0.941  11.972 -0.0029 -0.5327  0.6670
 8969TIP3   OH251101   2.844   2.259  12.209 -0.2453 -0.0712 -0.2055
 8969TIP3    H151102   2.822   2.271  12.302 -0.2343  1.0049 -0.3291
 8969TIP3    H251103   2.772   2.302  12.162  0.4111  0.5169 -0.6759
 8970TIP3   OH251104   6.569   2.964  11.452  0.1795  0.4796 -0.1947
 8970TIP3    H151105   6.514   2.999  11.522  1.6303  2.0915  0.2155
 8970TIP3    H251106   6.582   3.038  11.392  1.1312 -0.1292 -0.7634
 8971TIP3   OH251107   4.193   2.627  11.100  0.3553  0.5623  0.1358
 8971TIP3    H151108   4.110   2.664  11.130 -0.0486  0.7865 -1.1891
 8971TIP3    H251109   4.206   2.550  11.154  0.0431  1.3429  1.3676
 8972TIP3   OH251110   4.297   1.820   9.948  0.2775 -0.4628 -0.7562
 8972TIP3    H151111   4.282   1.746   9.889 -0.9636  0.5730 -1.7930
 8972TIP3    H251112   4.258   1.895   9.903  0.8979  0.7014  0.5797
 8973TIP3   OH251113   0.558   6.372  11.770 -0.4581 -0.0734  0.5223
 8973TIP3    H151114   0.479   6.387  11.718 -0.5961  0.4782  0.8790
 8973TIP3    H251115   0.540   6.416  11.853 -0.1504 -0.7543  0.9550
 8974TIP3   OH251116   4.081   4.950  10.992 -0.1431  0.0707 -0.4507
 8974TIP3    H151117   4.167   4.963  10.953  1.5004 -1.4569  2.3707
 8974TIP3    H251118   4.034   4.896  10.929  0.8652  1.0720 -2.1289
 8975TIP3   OH251119   0.972   3.043  10.647  0.6092  0.1855  0.3597
 8975TIP3    H151120   0.925   3.057  10.565  1.8099 -0.9137 -0.5629
 8975TIP3    H251121   1.058   3.083  10.633  0.0113  2.2993  2.0636
 8976TIP3   OH251122   3.191   1.655   9.656 -0.3886 -0.1027  0.5840
 8976TIP3    H151123   3.208   1.562   9.644 -1.1267 -0.0598 -1.1986
 8976TIP3    H251124   3.275   1.692   9.683 -0.0696 -1.2666  1.2116
 8977TIP3   OH251125   4.079   1.619  10.817  0.1348 -0.3231  0.7491
 8977TIP3    H151126   4.070   1.636  10.724 -0.9251  2.7915  1.3233
 8977TIP3    H251127   3.989   1.612  10.849  0.4050  0.8085  1.8365
 8978TIP3   OH251128   5.998   2.042  11.195 -0.1360  0.5142 -0.4438
 8978TIP3    H151129   6.081   2.024  11.239 -0.6956  1.7287  1.2098
 8978TIP3    H251130   5.986   1.968  11.136  1.7221 -0.0930 -0.1492
 8979TIP3   OH251131   6.191   5.817   9.485  0.6475  0.3961  0.1178
 8979TIP3    H151132   6.261   5.882   9.475 -0.3235  1.2471 -1.4375
 8979TIP3    H251133   6.111   5.869   9.491 -0.0794 -0.6455 -0.3747
 8980TIP3   OH251134   3.209   3.035  11.113 -0.5292 -0.0234 -0.2223
 8980TIP3    H151135   3.198   3.128  11.132 -0.6818 -0.4205  1.8522
 8980TIP3    H251136   3.271   3.032  11.040 -1.5569  1.7228 -1.2340
 8981TIP3   OH251137   1.853   2.317  10.675 -0.1984  0.2161  0.0917
 8981TIP3    H151138   1.788   2.370  10.629  0.9223  1.3315 -0.2590
 8981TIP3    H251139   1.904   2.380  10.727  3.1758  0.0473 -2.6694
 8982TIP3   OH251140   5.527   4.471  11.486  0.0311 -0.0310  0.1831
 8982TIP3    H151141   5.490   4.391  11.450 -0.1995 -0.6241  1.6615
 8982TIP3    H251142   5.616   4.474  11.452 -0.0791 -0.7159 -0.1850
 8983TIP3   OH251143   4.847   4.180  10.518 -0.1657  0.1262 -0.2996
 8983TIP3    H151144   4.855   4.099  10.568 -2.1800  0.0019 -0.1145
 8983TIP3    H251145   4.755   4.206  10.528  0.3228  2.1974 -0.7271
 8984TIP3   OH251146   5.301   6.154   9.534  0.0342 -0.2080 -0.1730
 8984TIP3    H151147   5.311   6.247   9.515  1.3016 -0.2939  0.0319
 8984TIP3    H251148   5.340   6.142   9.621 -0.5621 -0.8470  0.0219
 8985TIP3   OH251149   2.892   6.571  12.563 -0.5168 -0.7749 -0.7160
 8985TIP3    H151150   2.880   6.493  12.616 -1.0873 -0.3669 -0.2243
 8985TIP3    H251151   2.985   6.572  12.542  0.4475  0.6333  2.8770
 8986TIP3   OH251152   0.953   1.688  10.577 -0.0088  0.1195 -0.1948
 8986TIP3    H151153   0.933   1.633  10.501 -0.6048  1.4806 -1.0504
 8986TIP3    H251154   0.994   1.628  10.640 -2.1859 -1.6891 -0.3894
 8987TIP3   OH251155   6.248   3.436  11.775  0.3389 -0.1083  0.1127
 8987TIP3    H151156   6.198   3.515  11.753 -1.6628 -1.2636  0.2321
 8987TIP3    H251157   6.234   3.425  11.869  0.5558 -0.6362  0.0864
 8988TIP3   OH251158   3.234   0.692   9.455 -0.1469  0.2775  0.8241
 8988TIP3    H151159   3.229   0.614   9.511 -0.7474  0.6023  1.2365
 8988TIP3    H251160   3.307   0.742   9.491  1.0185 -0.6249 -0.1660
 8989TIP3   OH251161   1.403   0.450  10.585 -0.1987 -0.2005  0.0882
 8989TIP3    H151162   1.401   0.536  10.542 -0.5469 -0.5599 -0.6194
 8989TIP3    H251163   1.313   0.436  10.616  0.0898  0.1479  1.1515
 8990TIP3   OH251164   5.882   0.330   9.370 -0.4252 -0.1015 -0.4524
 8990TIP3    H151165   5.852   0.402   9.427  1.1953 -0.1791  0.5635
 8990TIP3    H251166   5.961   0.364   9.329 -0.6307 -0.6906 -1.3425
 8991TIP3   OH251167   2.324   6.267  10.397 -0.1972 -0.5946 -0.6252
 8991TIP3    H151168   2.323   6.225  10.483 -0.1556  0.0449 -0.3095
 8991TIP3    H251169   2.336   6.194  10.336  1.4711 -0.8870  0.0031
 8992TIP3   OH251170   6.536   1.003  12.951 -0.0706  0.4472 -0.1626
 8992TIP3    H151171   6.563   1.068  12.886 -0.7265  0.0452 -0.8596
 8992TIP3    H251172   6.618   0.976  12.993  0.3442  0.8785 -0.6733
 8993TIP3   OH251173   6.166   3.513  10.011 -0.0341 -0.2133 -0.2565
 8993TIP3    H151174   6.092   3.552   9.964  1.1781 -0.9445 -2.9704
 8993TIP3    H251175   6.190   3.579  10.076 -1.9983  0.7443 -0.4277
 8994TIP3   OH251176   2.916   0.244  12.573 -0.0971 -0.4187  0.5390
 8994TIP3    H151177   2.999   0.241  12.620  0.2759 -0.4052 -0.1090
 8994TIP3    H251178   2.862   0.305  12.624  0.3668 -0.2477  0.8376
 8995TIP3   OH251179   2.712   0.821  10.465 -0.1469  0.1726 -0.1298
 8995TIP3    H151180   2.731   0.731  10.438  0.5514  0.3096 -0.1128
 8995TIP3    H251181   2.701   0.816  10.559  2.8179  0.5339  0.3453
 8996TIP3   OH251182   3.073   5.887  12.615  0.3537 -0.3509  0.2651
 8996TIP3    H151183   3.047   5.903  12.524 -1.5864  1.2691  1.0263
 8996TIP3    H251184   3.163   5.920  12.621 -0.1970  1.4217 -0.6125
 8997TIP3   OH251185   4.105   3.262   9.986  0.0955  0.2348 -0.0550
 8997TIP3    H151186   4.178   3.200   9.990  1.6792  1.8408 -1.8597
 8997TIP3    H251187   4.115   3.305   9.901 -2.8576  0.7142 -0.2635
 8998TIP3   OH251188   4.443   2.584  11.488 -0.2145  0.1809  0.5423
 8998TIP3    H151189   4.361   2.601  11.535 -1.9166 -2.6716 -1.1046
 8998TIP3    H251190   4.507   2.567  11.557 -1.8271 -0.7421  1.8870
 8999TIP3   OH251191   4.548   1.561   9.692  0.4343 -0.3368  0.2715
 8999TIP3    H151192   4.513   1.472   9.690  0.6595 -0.4133 -0.4741
 8999TIP3    H251193   4.623   1.559   9.633 -0.3949  0.6848 -0.8585
 9000TIP3   OH251194   2.671   6.469   9.580 -0.4300 -0.5469 -0.1508
 9000TIP3    H151195   2.675   6.507   9.492 -0.4910  0.3002  0.2033
 9000TIP3    H251196   2.656   6.375   9.565  1.9884 -0.8570 -1.0930
 9001TIP3   OH251197   4.634   0.028   9.899 -0.6155 -0.5028 -0.8568
 9001TIP3    H151198   4.725   0.049   9.879 -1.1140  1.6823 -1.0369
 9001TIP3    H251199   4.583   0.093   9.852 -2.2524 -1.1109 -0.0079
 9002TIP3   OH251200   4.570   4.139  11.133  0.5460 -0.3049  0.0099
 9002TIP3    H151201   4.528   4.206  11.187  0.1154  0.1202 -0.8337
 9002TIP3    H251202   4.526   4.145  11.048  0.9520 -1.2152 -0.2803
 9003TIP3   OH251203   2.072   1.008  10.644 -0.1324  0.1077 -0.2856
 9003TIP3    H151204   2.043   1.099  10.655 -0.3394  0.1169 -0.8364
 9003TIP3    H251205   2.080   0.974  10.733  1.7450  1.2207  0.0173
 9004TIP3   OH251206   3.434   2.965  12.483 -0.1570  0.6690  0.5228
 9004TIP3    H151207   3.396   2.965  12.396  0.2831  1.2030  0.3205
 9004TIP3    H251208   3.520   3.005  12.471  1.1870 -1.9511  0.6549
 9005TIP3   OH251209   3.097   5.166  12.498 -0.0980  0.5268  0.4146
 9005TIP3    H151210   3.182   5.184  12.458 -0.4807  0.0261 -0.6721
 9005TIP3    H251211   3.116   5.107  12.571  0.3405 -1.0846 -0.9325
 9006TIP3   OH251212   1.530   3.447  11.303  0.1525 -0.1341  0.5377
 9006TIP3    H151213   1.469   3.379  11.273 -0.4989  1.2081 -1.3739
 9006TIP3    H251214   1.487   3.530  11.279  2.5497  0.8819 -0.5222
 9007TIP3   OH251215   4.877   3.297  10.917 -0.3694  0.3873  0.0510
 9007TIP3    H151216   4.799   3.259  10.876  0.0784 -2.2634  1.4130
 9007TIP3    H251217   4.950   3.264  10.865 -0.0425  3.2996 -1.5537
 9008TIP3   OH251218   4.176   3.885  11.281 -0.2449 -0.3633  0.0288
 9008TIP3    H151219   4.210   3.889  11.192 -1.4147 -0.4544 -0.4449
 9008TIP3    H251220   4.174   3.792  11.302 -2.2451 -0.5497 -0.7991
 9009TIP3   OH251221   3.511   1.405  12.088  0.3334  0.0542  0.3808
 9009TIP3    H151222   3.437   1.344  12.079 -0.5052  1.2778 -1.4950
 9009TIP3    H251223   3.587   1.354  12.061 -0.2719 -0.3608 -0.6143
 9010TIP3   OH251224   6.264   2.658  12.905 -0.1863 -0.2328 -0.1067
 9010TIP3    H151225   6.326   2.708  12.851  0.9646 -0.8955  0.5514
 9010TIP3    H251226   6.180   2.668  12.860 -0.2788  3.1507  0.5231
 9011TIP3   OH251227   5.637   5.657  13.173  0.1120 -0.2520 -0.0863
 9011TIP3    H151228   5.717   5.649  13.120  0.8005 -1.5955  1.0943
 9011TIP3    H251229   5.566   5.655  13.109  0.9944  1.3801 -1.2037
 9012TIP3   OH251230   4.379   3.375  11.686 -0.4106  0.4362  0.4858
 9012TIP3    H151231   4.382   3.315  11.612  0.3644  1.0658 -0.0155
 9012TIP3    H251232   4.423   3.454  11.654  0.0217  0.6802  1.6588
 9013TIP3   OH251233   3.212   2.313  12.299  0.0592  0.4688 -0.0185
 9013TIP3    H151234   3.145   2.335  12.363  0.1849 -0.7295  0.5615
 9013TIP3    H251235   3.254   2.235  12.335 -1.5221 -1.8317 -2.7223
 9014TIP3   OH251236   4.250   6.299  11.401 -0.0791 -0.1655 -0.0315
 9014TIP3    H151237   4.241   6.375  11.459  1.4131  0.5024 -0.6100
 9014TIP3    H251238   4.234   6.334  11.313  5.0364  0.7204 -0.9235
 9015TIP3   OH251239   0.585   5.407  12.038 -0.4956  0.1761 -0.2738
 9015TIP3    H151240   0.528   5.342  12.078 -1.3914  0.2271 -1.4183
 9015TIP3    H251241   0.633   5.358  11.970  0.6915  0.1782  0.5334
 9016TIP3   OH251242   3.520   3.884  11.163  0.2772 -0.0849 -0.0606
 9016TIP3    H151243   3.584   3.949  11.136 -0.2577  1.5511  2.2943
 9016TIP3    H251244   3.548   3.857  11.250 -1.3656 -0.4873  0.3814
 9017TIP3   OH251245   6.329   2.919  12.609 -0.2955  0.4990 -0.4759
 9017TIP3    H151246   6.336   3.013  12.621 -1.8952  0.7305 -1.0900
 9017TIP3    H251247   6.376   2.881  12.683 -2.2060  1.7915  1.5262
 9018TIP3   OH251248   0.026   4.905  11.376 -0.1531 -0.2404  0.2784
 9018TIP3    H151249  -0.042   4.865  11.430 -1.0389 -1.0334 -1.3642
 9018TIP3    H251250  -0.010   4.989  11.349 -0.7118 -0.8704 -0.9899
 9019TIP3   OH251251   5.909   6.187  12.639  0.5953  0.4622  0.7317
 9019TIP3    H151252   6.003   6.192  12.657  0.8382 -0.7236 -0.0679
 9019TIP3    H251253   5.878   6.117  12.697  0.3501  0.3786  0.5018
 9020TIP3   OH251254   2.790   2.861  10.562 -0.2705  0.8049 -0.7607
 9020TIP3    H151255   2.874   2.838  10.523  0.6646 -0.0900  1.5501
 9020TIP3    H251256   2.796   2.828  10.652 -1.9695  3.2786  0.3864
 9021TIP3   OH251257   5.613   4.971  12.028 -0.3212  0.0941 -0.3490
 9021TIP3    H151258   5.666   4.961  11.949  0.3354  2.1213 -0.2270
 9021TIP3    H251259   5.536   5.019  11.999  0.1925  1.3645  0.2931
 9022TIP3   OH251260   5.673   6.338  11.355  0.0180  0.0790  0.6710
 9022TIP3    H151261   5.630   6.280  11.418 -0.0791  0.1352  0.6567
 9022TIP3    H251262   5.738   6.386  11.407  0.5834 -0.5448  0.5474
 9023TIP3   OH251263   5.165   4.241  12.907  0.1313  0.2082 -0.6275
 9023TIP3    H151264   5.081   4.198  12.895 -0.2917  1.2817 -1.7882
 9023TIP3    H251265   5.189   4.271  12.819  1.6731  0.0190 -0.2906
 9024TIP3   OH251266   5.772   4.712  11.046  0.5295 -0.2247  0.6107
 9024TIP3    H151267   5.752   4.762  10.967 -0.3532 -0.5311  0.6253
 9024TIP3    H251268   5.781   4.778  11.115 -0.5296 -0.0537  0.6106
 9025TIP3   OH251269   2.290   2.816  10.540  0.4073  0.3209  0.3165
 9025TIP3    H151270   2.240   2.863  10.473  1.0833  1.1119  0.3535
 9025TIP3    H251271   2.283   2.871  10.618  2.2511  1.0455  0.0226
 9026TIP3   OH251272   0.900   2.672   9.854  0.3159 -0.5208  0.0704
 9026TIP3    H151273   0.862   2.590   9.886  0.2909 -1.4562 -2.1630
 9026TIP3    H251274   0.858   2.687   9.769 -0.3406  2.3402  0.7801
 9027TIP3   OH251275   1.315   0.161  13.345  0.2268  0.0875 -0.2954
 9027TIP3    H151276   1.278   0.074  13.330  0.6031 -0.4319  1.5570
 9027TIP3    H251277   1.278   0.215  13.275 -1.9271 -1.0097 -0.0904
 9028TIP3   OH251278   5.335   1.218   9.722  0.5221  0.3112 -0.5952
 9028TIP3    H151279   5.278   1.206   9.645 -0.8020  1.0596  0.2288
 9028TIP3    H251280   5.277   1.254   9.789  1.4106 -1.2357  1.0830
 9029TIP3   OH251281   4.290   3.048  10.048 -0.2375 -0.0189 -0.3184
 9029TIP3    H151282   4.313   2.966  10.005  3.2030 -0.0223  1.2005
 9029TIP3    H251283   4.294   3.028  10.141 -0.6803  1.5545  0.0605
 9030TIP3   OH251284   5.457   3.390  11.259  0.3539 -0.3997 -0.5011
 9030TIP3    H151285   5.395   3.454  11.226 -0.7913 -2.0711 -1.7822
 9030TIP3    H251286   5.412   3.347  11.331  2.1030  1.8831  2.1624
 9031TIP3   OH251287   1.559   0.244  10.035 -0.5157  0.2863 -0.2779
 9031TIP3    H151288   1.618   0.311  10.001 -0.1143  0.5299  0.8405
 9031TIP3    H251289   1.526   0.282  10.117 -0.5178 -0.7577  0.2128
 9032TIP3   OH251290   5.548   0.346  11.230  0.1525 -0.4026 -0.5344
 9032TIP3    H151291   5.522   0.368  11.319  0.8861 -1.0276 -0.1501
 9032TIP3    H251292   5.470   0.362  11.177 -0.6036 -0.9708  0.3782
 9033TIP3   OH251293   3.414   3.181  10.636  0.1870  0.3935 -0.0734
 9033TIP3    H151294   3.430   3.243  10.707 -0.2089 -0.8614  1.1583
 9033TIP3    H251295   3.488   3.121  10.640  0.3917  0.5673 -1.0304
 9034TIP3   OH251296   1.962   4.546  10.052 -0.0021  0.0097 -0.6703
 9034TIP3    H151297   1.975   4.544  10.146 -0.7056  1.8243 -0.4849
 9034TIP3    H251298   2.038   4.501  10.016  1.4569  1.2519  0.7060
 9035TIP3   OH251299   0.371   0.856  12.014 -0.0716  0.0208 -0.5750
 9035TIP3    H151300   0.343   0.769  11.985 -1.4335  0.6531 -1.2505
 9035TIP3    H251301   0.385   0.905  11.933  0.6133  0.4579 -0.2012
 9036TIP3   OH251302   4.960   3.291   9.746 -0.1726  0.0444 -0.2576
 9036TIP3    H151303   4.908   3.248   9.814  0.0790  1.0039  0.5550
 9036TIP3    H251304   4.917   3.267   9.664 -1.6852  0.5457  0.3728
 9037TIP3   OH251305   1.211   0.895  10.082  0.0532 -0.5015 -0.0916
 9037TIP3    H151306   1.278   0.850  10.031 -1.3255 -1.6748 -0.9676
 9037TIP3    H251307   1.247   0.901  10.170  1.8946  0.2495 -0.8704
 9038TIP3   OH251308   2.508   1.006  11.769  0.2582 -0.7104  0.2659
 9038TIP3    H151309   2.470   1.081  11.814 -0.8156 -0.9734 -0.1492
 9038TIP3    H251310   2.497   1.026  11.676  1.8767 -0.4517  0.1076
 9039TIP3   OH251311   2.397   5.595  11.324 -0.1151 -0.4084 -0.3039
 9039TIP3    H151312   2.425   5.673  11.277  0.9933 -1.1069 -0.8479
 9039TIP3    H251313   2.302   5.605  11.334  0.3301  2.7700  2.8703
 9040TIP3   OH251314   5.581   1.904  12.377 -0.3605 -0.0407 -0.7079
 9040TIP3    H151315   5.515   1.862  12.432 -0.3244  2.6478  1.6140
 9040TIP3    H251316   5.658   1.912  12.434  0.2788  1.3516 -1.7019
 9041TIP3   OH251317   1.129   0.508  11.618 -0.5965 -0.4154 -0.2698
 9041TIP3    H151318   1.036   0.489  11.629 -0.3727 -0.9702  0.7343
 9041TIP3    H251319   1.166   0.502  11.706  0.1629  1.0903 -0.4549
 9042TIP3   OH251320   1.511   6.310  10.778 -0.3458 -0.3865 -0.1062
 9042TIP3    H151321   1.544   6.372  10.712  0.3089  0.6540  1.1334
 9042TIP3    H251322   1.585   6.251  10.793  1.0863  1.7884  2.4831
 9043TIP3   OH251323   3.736   5.563  11.284  0.1630  0.1098  0.2064
 9043TIP3    H151324   3.680   5.624  11.331  0.0277  0.5138 -0.4547
 9043TIP3    H251325   3.795   5.619  11.233 -1.2329 -0.2347 -1.9310
 9044TIP3   OH251326   6.564   4.141   9.889 -0.1926  0.4203 -0.1435
 9044TIP3    H151327   6.526   4.191   9.817 -0.5112 -2.1135 -1.8482
 9044TIP3    H251328   6.658   4.142   9.873  0.0193  2.1261  1.0007
 9045TIP3   OH251329   3.480   0.228  11.637  0.1058 -0.4260 -0.2104
 9045TIP3    H151330   3.551   0.260  11.581  0.8360 -1.5226  0.0491
 9045TIP3    H251331   3.446   0.151  11.592  0.6161 -1.2502  0.7416
 9046TIP3   OH251332   2.963   0.397   9.793 -0.0590  0.7276  0.1364
 9046TIP3    H151333   2.920   0.482   9.792 -0.1404  0.6874  0.4468
 9046TIP3    H251334   3.039   0.409   9.850 -0.1334  0.5580  0.2685
 9047TIP3   OH251335   2.643   1.663  10.837 -0.5169 -0.0489  0.2654
 9047TIP3    H151336   2.567   1.709  10.872 -0.9115  0.2163 -0.8912
 9047TIP3    H251337   2.606   1.592  10.785  0.0327 -0.0730 -0.1024
 9048TIP3   OH251338   3.653   3.749   9.922  0.0560  0.0880  0.3676
 9048TIP3    H151339   3.632   3.778  10.010  2.3226  1.5211  0.5208
 9048TIP3    H251340   3.628   3.823   9.866 -1.5308 -0.8732 -0.2672
 9049TIP3   OH251341   4.960   1.329  11.521  0.0417  0.7379 -0.5948
 9049TIP3    H151342   4.926   1.337  11.609  0.7038  1.9626 -0.4241
 9049TIP3    H251343   4.983   1.237  11.512  0.7205  0.7490  0.8026
 9050TIP3   OH251344   2.590   0.669  10.102 -0.1450 -0.0088 -0.5329
 9050TIP3    H151345   2.508   0.707  10.132  0.6003  1.7385 -0.5578
 9050TIP3    H251346   2.574   0.644  10.011 -0.4247  1.1666 -0.8289
 9051TIP3   OH251347   5.027   3.616  10.935  0.2792 -0.3842  0.2363
 9051TIP3    H151348   5.114   3.648  10.909  0.8149  0.3197  2.6927
 9051TIP3    H251349   5.045   3.534  10.981 -0.6907 -1.8943 -1.9048
 9052TIP3   OH251350   1.737   4.511  10.981 -0.2056 -0.5317 -0.5005
 9052TIP3    H151351   1.695   4.435  10.941 -0.7424 -1.6838  2.0207
 9052TIP3    H251352   1.665   4.574  10.994 -0.5433 -1.1511  0.7851
 9053TIP3   OH251353   3.939   1.175  10.075  0.7115  0.4186  0.3490
 9053TIP3    H151354   3.976   1.201  10.160  1.1003 -1.1442  0.6960
 9053TIP3    H251355   3.934   1.079  10.080  0.2802  0.3373 -1.2139
 9054TIP3   OH251356   1.722   1.600  10.580  0.0133 -0.0313  0.2511
 9054TIP3    H151357   1.758   1.658  10.646 -1.1716 -1.0699  1.8771
 9054TIP3    H251358   1.768   1.624  10.499  0.2335  2.4877  1.0453
 9055TIP3   OH251359   2.243   6.247  12.913 -0.1993  0.0019 -1.0996
 9055TIP3    H151360   2.185   6.242  12.837  0.5221  0.5712 -1.7020
 9055TIP3    H251361   2.186   6.232  12.988 -1.2443  1.1909 -1.6313
 9056TIP3   OH251362   0.810   4.864  10.607 -0.5538 -0.0773 -0.1003
 9056TIP3    H151363   0.759   4.939  10.638 -0.4718 -0.4260  0.9112
 9056TIP3    H251364   0.772   4.788  10.652  1.1142 -0.2935  1.0576
 9057TIP3   OH251365   1.376   5.731  10.406  0.1496  0.6014 -0.2677
 9057TIP3    H151366   1.406   5.760  10.320 -2.0875  0.3135 -1.2295
 9057TIP3    H251367   1.343   5.810  10.448 -0.5986  0.4307 -0.5158
 9058TIP3   OH251368   6.331   5.904  12.698 -0.1401 -0.1228  0.3965
 9058TIP3    H151369   6.341   5.910  12.603 -0.0739  0.1688  0.4221
 9058TIP3    H251370   6.245   5.944  12.715 -0.3228 -0.5195  0.4207
 9059TIP3   OH251371   2.306   1.594   9.799  0.1820  0.1743  0.6036
 9059TIP3    H151372   2.226   1.597   9.746  0.2940  2.8756  0.4459
 9059TIP3    H251373   2.280   1.632   9.883  0.8262 -0.9006  1.3077
 9060TIP3   OH251374   5.456   0.383  10.722  0.6660  0.3703  0.2860
 9060TIP3    H151375   5.489   0.296  10.701 -1.0299 -0.3572  0.4942
 9060TIP3    H251376   5.370   0.368  10.761 -0.8814  2.2071 -2.0858
 9061TIP3   OH251377   4.510   5.788  10.346  0.5382 -0.1120  0.1910
 9061TIP3    H151378   4.503   5.766  10.439  2.3477 -0.2265  0.3411
 9061TIP3    H251379   4.476   5.878  10.341 -0.4506 -0.4319  0.7759
 9062TIP3   OH251380   1.825   4.131   9.966  0.1767  0.6112 -0.4304
 9062TIP3    H151381   1.846   4.127  10.059 -0.7532  1.1533 -0.1848
 9062TIP3    H251382   1.879   4.202   9.931 -0.0597  0.9427 -0.1304
 9063TIP3   OH251383   5.179   1.315  10.515  0.0466  0.2002  0.2684
 9063TIP3    H151384   5.250   1.257  10.489  1.3456 -0.1097  3.9045
 9063TIP3    H251385   5.101   1.260  10.514  0.6543 -0.6707  0.3579
 9064TIP3   OH251386   5.993   6.232  12.034  0.3236 -0.1248 -0.3270
 9064TIP3    H151387   6.039   6.301  11.987 -1.8715  0.5145 -1.6707
 9064TIP3    H251388   5.967   6.169  11.967 -1.5539  0.0340  0.1866
 9065TIP3   OH251389   1.021   0.655   9.961 -0.4541 -0.3363  0.0310
 9065TIP3    H151390   1.082   0.587   9.988  1.0495  0.5328 -1.0235
 9065TIP3    H251391   1.038   0.728  10.020 -0.8853 -0.2809  0.0911
 9066TIP3   OH251392   2.011   2.351   9.606 -0.0437  0.1874  0.1595
 9066TIP3    H151393   2.095   2.335   9.563  0.2517  1.8894  0.0448
 9066TIP3    H251394   2.025   2.327   9.698  0.2744 -0.4127 -0.0424
 9067TIP3   OH251395   5.077   4.949  10.970 -0.2854 -0.5762  0.0637
 9067TIP3    H151396   5.168   4.974  10.955 -0.7668 -0.2331 -2.8950
 9067TIP3    H251397   5.036   5.027  11.007 -0.1027  0.6008 -2.0258
 9068TIP3   OH251398   6.340   3.196   9.787 -0.6100  0.2031  0.2036
 9068TIP3    H151399   6.292   3.146   9.853  0.8976  0.4440  1.5312
 9068TIP3    H251400   6.422   3.148   9.775  1.9223  3.2792  3.1503
 9069TIP3   OH251401   2.149   5.183  11.659  0.7537  0.3362 -0.2837
 9069TIP3    H151402   2.233   5.140  11.674  1.3122  1.5542  0.2260
 9069TIP3    H251403   2.161   5.230  11.577  0.8482  1.1439  0.1849
 9070TIP3   OH251404   1.243   5.356  11.583 -0.4908  0.0295  0.4930
 9070TIP3    H151405   1.210   5.445  11.597  0.9418  0.9444 -1.5128
 9070TIP3    H251406   1.167   5.307  11.552 -0.6569  1.4105 -1.4752
 9071TIP3   OH251407   4.919   4.686   9.813 -0.1519  0.5403  0.3471
 9071TIP3    H151408   4.923   4.594   9.837 -0.5197  0.1744 -0.9045
 9071TIP3    H251409   4.826   4.704   9.801  0.0351  0.3850 -1.7879
 9072TIP3   OH251410   5.529   2.630  11.269  0.2621 -0.0943 -0.1870
 9072TIP3    H151411   5.549   2.724  11.279  2.8341 -0.7233  2.0685
 9072TIP3    H251412   5.446   2.618  11.315 -0.6746  1.2184 -1.4706
 9073TIP3   OH251413   3.956   4.891   9.639  0.3635  0.2977  0.1249
 9073TIP3    H151414   4.050   4.912   9.637  0.3730  0.8612  2.5574
 9073TIP3    H251415   3.953   4.799   9.664  0.2763  0.1282 -0.5183
 9074TIP3   OH251416   2.489   4.116  10.069 -0.3604 -0.4616 -0.1557
 9074TIP3    H151417   2.530   4.195  10.106 -1.4147  0.8703 -1.7201
 9074TIP3    H251418   2.549   4.088  10.000 -0.4198 -0.4932 -0.1946
 9075TIP3   OH251419   6.458   4.856  11.172 -0.6453 -0.2601 -0.3994
 9075TIP3    H151420   6.484   4.947  11.158 -0.2940 -0.1827  0.6934
 9075TIP3    H251421   6.363   4.859  11.181 -0.5663  0.1077  0.3683
 9076TIP3   OH251422   5.108   0.029  11.354 -0.9409 -0.2968  0.5713
 9076TIP3    H151423   5.201   0.037  11.334 -0.7188  0.8436  1.9130
 9076TIP3    H251424   5.105  -0.020  11.437 -1.4271  1.1152  1.4116
 9077TIP3   OH251425   5.272   1.629  11.691  0.0464  0.1225 -0.0243
 9077TIP3    H151426   5.342   1.587  11.641  0.4014  0.2868  0.3346
 9077TIP3    H251427   5.195   1.623  11.634  0.3062 -0.2267 -0.3392
 9078TIP3   OH251428   0.543   6.670  11.958 -0.0320  0.1190 -0.0813
 9078TIP3    H151429   0.502   6.585  11.975  1.7490 -1.1344 -1.7749
 9078TIP3    H251430   0.479   6.716  11.903 -0.5729 -0.5123 -0.0016
 9079TIP3   OH251431   6.376   5.275  13.074  0.1606 -0.0967 -0.4594
 9079TIP3    H151432   6.333   5.205  13.025 -0.0901  0.2001 -0.6685
 9079TIP3    H251433   6.423   5.230  13.144  1.4824 -0.6264 -1.6524
 9080TIP3   OH251434   1.492   2.700  11.704  0.5242 -0.8027  0.4324
 9080TIP3    H151435   1.559   2.758  11.668 -0.5161 -1.1441 -2.3147
 9080TIP3    H251436   1.541   2.627  11.742  1.7509  0.5683  1.5830
 9081TIP3   OH251437   0.256   2.549  11.009 -0.0821  0.0456 -0.3799
 9081TIP3    H151438   0.347   2.543  10.980 -0.3643  0.1183 -1.3157
 9081TIP3    H251439   0.215   2.469  10.976 -0.1591 -0.4429  0.8356
 9082TIP3   OH251440   3.311   4.458  12.689  0.5831  0.7939 -0.4660
 9082TIP3    H151441   3.271   4.372  12.702  1.5601  0.5931  1.6773
 9082TIP3    H251442   3.401   4.439  12.662  0.3935  1.1899 -1.4210
 9083TIP3   OH251443   3.298   6.684   9.863  0.5167  0.9656 -0.0886
 9083TIP3    H151444   3.272   6.676   9.955 -1.4848 -0.5413 -0.7186
 9083TIP3    H251445   3.364   6.754   9.863 -0.8681  2.4124  2.2174
 9084TIP3   OH251446   4.129   6.233  12.752 -0.0187 -0.3967  0.1999
 9084TIP3    H151447   4.127   6.317  12.797  0.0975 -0.4918  0.3837
 9084TIP3    H251448   4.166   6.253  12.666  2.0958 -0.6086  1.0058
 9085TIP3   OH251449   3.029   4.942  11.378 -0.3044  0.0793  0.2804
 9085TIP3    H151450   2.977   4.923  11.456  0.4520  0.0285  0.7843
 9085TIP3    H251451   3.098   4.877  11.379 -0.0374  0.3498 -0.2026
 9086TIP3   OH251452   3.894   1.171  11.505  0.4847  0.1165 -0.1878
 9086TIP3    H151453   3.923   1.163  11.414  0.9143 -0.9235  0.0280
 9086TIP3    H251454   3.893   1.081  11.537  0.9256  0.5375  1.0269
 9087TIP3   OH251455   6.163   0.010  13.415 -0.8543 -0.0803  0.1833
 9087TIP3    H151456   6.072   0.003  13.388 -0.5247  1.6343 -1.5007
 9087TIP3    H251457   6.210  -0.048  13.355 -0.7614 -0.7692  0.8922
 9088TIP3   OH251458   4.585   3.325  10.004  0.1469 -0.0398  0.1855
 9088TIP3    H151459   4.515   3.330   9.939  0.3810 -2.1295 -0.2961
 9088TIP3    H251460   4.630   3.409   9.997 -0.9731  0.4960 -1.0214
 9089TIP3   OH251461   0.703   0.824  11.866 -0.0006  0.2049 -0.7163
 9089TIP3    H151462   0.705   0.878  11.786  0.3345 -0.0569 -0.8886
 9089TIP3    H251463   0.794   0.802  11.881 -0.2297 -1.2143 -1.2658
 9090TIP3   OH251464   5.325   5.248  11.387 -0.1047 -0.1964  0.5119
 9090TIP3    H151465   5.302   5.311  11.456 -0.2836 -0.5512  0.7754
 9090TIP3    H251466   5.360   5.173  11.434 -0.8482 -0.7122  0.2560
 9091TIP3   OH251467   5.898   4.816  10.547  0.1323  0.3488  0.1028
 9091TIP3    H151468   5.945   4.733  10.553 -0.2525  0.0370 -0.8728
 9091TIP3    H251469   5.930   4.867  10.621  2.3940  0.3556 -0.7865
 9092TIP3   OH251470   4.705   1.872  12.372  0.6838  0.0584 -0.2775
 9092TIP3    H151471   4.678   1.859  12.463 -1.1455  2.2429 -0.4254
 9092TIP3    H251472   4.773   1.940  12.377  0.7311  0.0288 -0.5254
 9093TIP3   OH251473   4.913   3.000   9.435 -0.6766 -0.0048 -0.4074
 9093TIP3    H151474   4.878   2.926   9.484 -0.1556  0.4801  0.7527
 9093TIP3    H251475   4.976   2.962   9.374 -0.2475 -0.5047  0.3312
 9094TIP3   OH251476   0.361   4.589  12.531 -0.4130 -0.1763  0.3801
 9094TIP3    H151477   0.370   4.671  12.578  0.6451  0.7652 -1.3395
 9094TIP3    H251478   0.272   4.589  12.497 -0.6029 -0.0243  0.8773
 9095TIP3   OH251479   3.156   5.243   9.458  0.6193  0.0765 -0.4008
 9095TIP3    H151480   3.122   5.317   9.407 -2.2945 -0.9673 -0.1100
 9095TIP3    H251481   3.247   5.268   9.478 -0.0550  3.2761 -0.8318
 9096TIP3   OH251482   3.363   0.470  11.485 -0.1406  0.7062 -0.4384
 9096TIP3    H151483   3.427   0.420  11.536 -1.3350 -1.5129 -0.9673
 9096TIP3    H251484   3.292   0.488  11.547  0.0431  1.2968 -0.3928
 9097TIP3   OH251485   0.005   2.372  10.441  0.0504  0.1492 -0.0762
 9097TIP3    H151486  -0.056   2.300  10.429  0.6300 -0.2715 -0.5315
 9097TIP3    H251487  -0.048   2.451  10.429 -0.3303 -0.2126 -0.7951
 9098TIP3   OH251488   3.876   1.726  11.207  0.3423 -0.0422  0.0640
 9098TIP3    H151489   3.941   1.792  11.182  1.3252 -1.1929 -0.4589
 9098TIP3    H251490   3.843   1.757  11.291  0.0603  1.6426 -0.6232
 9099TIP3   OH251491   0.426   0.215  10.054  0.3865  0.1379  0.0661
 9099TIP3    H151492   0.334   0.241  10.059  1.0486  2.5380  3.3465
 9099TIP3    H251493   0.428   0.129  10.097 -0.4178 -0.4409 -1.0110
 9100TIP3   OH251494   3.349   4.116  10.213  0.0335  0.5058 -0.2938
 9100TIP3    H151495   3.389   4.136  10.128  0.4618  1.2666  0.0740
 9100TIP3    H251496   3.302   4.035  10.198  3.4107 -1.6587 -0.2510
 9101TIP3   OH251497   0.501   1.159  10.825 -0.6741 -0.0202 -0.0896
 9101TIP3    H151498   0.586   1.180  10.865 -1.5653 -0.3486  2.0988
 9101TIP3    H251499   0.448   1.237  10.837 -0.8027  0.0934 -1.2254
 9102TIP3   OH251500   5.084   5.818  11.640 -0.3246  0.5003 -0.2065
 9102TIP3    H151501   5.039   5.787  11.719  0.6139 -1.6262 -0.4441
 9102TIP3    H251502   5.046   5.765  11.569  2.6526 -1.6479 -0.3690
 9103TIP3   OH251503   0.637   6.622   9.651 -0.1042  0.1390  0.2949
 9103TIP3    H151504   0.665   6.680   9.579 -1.2795  0.0214 -0.2710
 9103TIP3    H251505   0.656   6.534   9.620  1.0094  0.1515  0.8655
 9104TIP3   OH251506   2.866   2.638  11.869  0.2536  0.0568 -0.0497
 9104TIP3    H151507   2.923   2.607  11.939  0.4297 -0.3373 -0.3667
 9104TIP3    H251508   2.916   2.621  11.788 -0.9060 -1.6583 -0.4511
 9105TIP3   OH251509   3.781   5.474  10.636 -0.3397 -0.1418 -0.3970
 9105TIP3    H151510   3.760   5.423  10.715 -1.5866  1.8048  0.6107
 9105TIP3    H251511   3.874   5.492  10.643 -0.8301  2.1355  2.0784
 9106TIP3   OH251512   5.344   0.553   9.793  0.1888  0.0849  0.5583
 9106TIP3    H151513   5.341   0.629   9.852  0.2305  1.8417 -1.5606
 9106TIP3    H251514   5.433   0.552   9.760  0.4691 -1.5393  1.2779
 9107TIP3   OH251515   3.015   1.868  11.428 -0.5273 -0.3063 -0.5409
 9107TIP3    H151516   3.086   1.822  11.384  0.4998 -0.5239  1.2843
 9107TIP3    H251517   2.995   1.942  11.370 -1.9611 -2.6945 -3.3605
 9108TIP3   OH251518   1.085   0.629  13.193  0.3967 -0.0004  0.0082
 9108TIP3    H151519   1.067   0.697  13.127  2.1963  0.6894  0.1863
 9108TIP3    H251520   1.173   0.649  13.225  1.3595 -2.9050 -0.5285
 9109TIP3   OH251521   1.491   3.827  12.176 -0.1481  0.2575  0.2576
 9109TIP3    H151522   1.576   3.806  12.214 -0.8464 -2.3532  0.6051
 9109TIP3    H251523   1.446   3.876  12.245 -0.1186 -1.3441  1.4837
 9110TIP3   OH251524   2.010   1.424  10.441 -0.1285  0.3216  0.4469
 9110TIP3    H151525   2.082   1.366  10.464  0.0195  0.4012  0.1956
 9110TIP3    H251526   1.931   1.378  10.469 -0.1232 -0.6601 -1.0394
 9111TIP3   OH251527   0.997   4.780  11.609  0.4979 -0.1466  0.0177
 9111TIP3    H151528   1.063   4.829  11.658  1.7753  1.8611 -3.3518
 9111TIP3    H251529   0.915   4.826  11.627  0.9832  0.7148  0.0845
 9112TIP3   OH251530   3.174   6.474  10.593  0.1940  0.1147 -0.3359
 9112TIP3    H151531   3.119   6.408  10.550 -0.0885 -1.1367  1.7874
 9112TIP3    H251532   3.262   6.457  10.560  0.4062 -2.4580  1.2954
 9113TIP3   OH251533   3.900   0.872  10.143  0.1167 -0.0493 -0.1392
 9113TIP3    H151534   3.812   0.842  10.164  0.1369 -1.7827 -2.2220
 9113TIP3    H251535   3.958   0.812  10.189  0.2335  0.4796  0.4234
 9114TIP3   OH251536   5.307   0.023  10.317 -0.2328 -0.0196 -0.2576
 9114TIP3    H151537   5.339  -0.010  10.401 -0.6322  0.4131  0.0701
 9114TIP3    H251538   5.386   0.033  10.264 -0.1428 -2.0607 -0.5969
 9115TIP3   OH251539   1.488   1.743  11.617  0.2833 -0.1530  0.4238
 9115TIP3    H151540   1.565   1.709  11.571 -0.9069 -2.0284 -0.2823
 9115TIP3    H251541   1.502   1.720  11.709  0.4819 -0.6525  0.2687
 9116TIP3   OH251542   3.282   6.136  11.122  0.0360 -0.2827 -0.2194
 9116TIP3    H151543   3.332   6.206  11.166  0.9167 -1.1876  0.2493
 9116TIP3    H251544   3.212   6.115  11.184  1.0889 -1.3359  0.6640
 9117TIP3   OH251545   6.266   6.447   9.437  0.0132  0.2811  0.2477
 9117TIP3    H151546   6.201   6.420   9.502 -0.7709  1.4468 -0.0225
 9117TIP3    H251547   6.215   6.491   9.369  0.9985  0.5030 -0.3625
 9118TIP3   OH251548   3.054   0.477  10.636  0.0465 -0.2315  0.0832
 9118TIP3    H151549   3.069   0.392  10.677  1.3269 -0.0990 -0.0615
 9118TIP3    H251550   3.104   0.474  10.554 -0.4100  0.4336 -0.2358
 9119TIP3   OH251551   3.361   3.690  12.294  0.3776 -0.3179  0.4458
 9119TIP3    H151552   3.360   3.707  12.200 -0.2219  0.3109  0.5603
 9119TIP3    H251553   3.330   3.771  12.334 -2.0699 -1.4484  1.0387
 9120TIP3   OH251554   6.152   0.785  12.579  0.0450 -0.5267 -0.0530
 9120TIP3    H151555   6.208   0.715  12.545  1.5078  0.3232  0.5397
 9120TIP3    H251556   6.207   0.833  12.641  0.2609  3.1242 -2.7109
 9121TIP3   OH251557   6.413   6.398  11.719  0.1771 -0.0026 -0.4888
 9121TIP3    H151558   6.506   6.392  11.699  0.5258  0.8765  0.7543
 9121TIP3    H251559   6.385   6.307  11.732  1.6614 -0.1751  2.3875
 9122TIP3   OH251560   5.872   0.302  10.299 -0.4930 -0.3786  0.5892
 9122TIP3    H151561   5.896   0.378  10.353  0.2857 -0.8324  0.8986
 9122TIP3    H251562   5.800   0.334  10.245 -0.8749  0.2737  1.4458
 9123TIP3   OH251563   1.599   1.405  12.289 -0.2989  0.3800 -0.3954
 9123TIP3    H151564   1.553   1.368  12.365  0.2311 -5.8562 -2.5425
 9123TIP3    H251565   1.529   1.427  12.227 -0.6033  2.9455  0.7352
 9124TIP3   OH251566   4.862   3.653  11.350  0.3421 -0.1028 -0.0734
 9124TIP3    H151567   4.830   3.602  11.275  2.1764  0.1662 -1.1202
 9124TIP3    H251568   4.837   3.602  11.427 -1.4246 -0.4870 -0.8551
 9125TIP3   OH251569   1.146   0.628   9.476 -0.1327 -0.1586  0.3796
 9125TIP3    H151570   1.222   0.679   9.502 -0.9422  1.2695  0.0460
 9125TIP3    H251571   1.072   0.670   9.520 -0.5093 -3.0483  2.7861
 9126TIP3   OH251572   5.171   0.895  10.497 -0.0783 -0.5440  0.6931
 9126TIP3    H151573   5.134   0.912  10.410  0.0936 -1.7313  0.3788
 9126TIP3    H251574   5.195   0.982  10.529  1.1854 -0.1771 -1.0519
 9127TIP3   OH251575   5.039   1.252  11.048  0.5179  0.3753  0.0674
 9127TIP3    H151576   4.968   1.190  11.032  0.2464  0.4051  1.1074
 9127TIP3    H251577   5.015   1.296  11.130  0.4219  2.2255 -0.8820
 9128TIP3   OH251578   2.074   5.968  13.028  0.0871 -0.0166  0.0186
 9128TIP3    H151579   2.067   6.061  13.050  0.2757 -0.1399  0.6249
 9128TIP3    H251580   2.029   5.924  13.100  0.2200 -0.4090 -0.1396
 9129TIP3   OH251581   4.007   3.495  12.096 -0.2057 -0.3464 -0.4751
 9129TIP3    H151582   3.978   3.531  12.180  2.0240 -0.0584  0.2216
 9129TIP3    H251583   3.926   3.486  12.045 -1.4781  0.4994  1.2936
 9130TIP3   OH251584   0.147   6.414  10.553  0.7364 -0.4247  0.3039
 9130TIP3    H151585   0.057   6.413  10.521  0.8798 -0.1552 -0.1186
 9130TIP3    H251586   0.201   6.423  10.474  1.1397 -0.6875  0.5430
 9131TIP3   OH251587   1.073   4.255  11.426 -0.2456  0.1565 -0.2347
 9131TIP3    H151588   1.042   4.287  11.511  1.6552 -2.2918  1.5321
 9131TIP3    H251589   1.092   4.334  11.376  0.0009  1.7285  2.1936
 9132TIP3   OH251590   0.812   4.111   9.929 -0.1251  0.5535 -0.1241
 9132TIP3    H151591   0.814   4.132  10.023  0.0568 -0.4661  0.1125
 9132TIP3    H251592   0.901   4.081   9.911  0.0317  1.3851 -0.7892
 9133TIP3   OH251593   5.598   2.975  12.402  0.1327  0.1720 -0.2649
 9133TIP3    H151594   5.555   2.935  12.477 -2.3161  2.7296 -0.1314
 9133TIP3    H251595   5.533   2.968  12.331  0.4884  1.7957 -0.8071
 9134TIP3   OH251596   1.047   2.579  12.230  0.0057 -0.2392 -0.0060
 9134TIP3    H151597   1.061   2.596  12.323 -0.4589 -0.4826  0.1097
 9134TIP3    H251598   1.016   2.662  12.194 -0.6004 -0.3675  0.2178
 9135TIP3   OH251599   4.300   1.075  10.660 -0.6885  0.0894 -0.2509
 9135TIP3    H151600   4.348   1.082  10.743 -2.2204 -0.4051  0.7153
 9135TIP3    H251601   4.368   1.084  10.593  0.4105  2.1783  1.0063
 9136TIP3   OH251602   0.728   0.967  11.169  0.2637  0.1506 -0.4859
 9136TIP3    H151603   0.721   0.926  11.083  2.1163 -1.4781  0.0552
 9136TIP3    H251604   0.823   0.970  11.186 -0.0787 -1.4109  2.2902
 9137TIP3   OH251605   0.965   0.970  12.427  0.3756 -0.2900 -0.0535
 9137TIP3    H151606   1.042   1.027  12.431  0.2906 -0.1223 -0.7257
 9137TIP3    H251607   0.907   1.004  12.496  0.1660  0.6758 -0.6898
 9138TIP3   OH251608   4.036   2.013  11.717  0.0114 -0.2553 -0.2530
 9138TIP3    H151609   4.075   1.929  11.743 -1.2874 -1.1946 -1.2572
 9138TIP3    H251610   4.099   2.049  11.655 -0.0542 -1.1252 -0.8466
 9139TIP3   OH251611   1.148   1.346  10.947 -0.0469 -0.4615  0.5324
 9139TIP3    H151612   1.128   1.362  10.855  1.3552  0.7872  0.4012
 9139TIP3    H251613   1.239   1.315  10.947  0.1661  0.1091  1.5065
 9140TIP3   OH251614   0.492   6.294  10.536 -0.0773 -0.5453  0.0740
 9140TIP3    H151615   0.530   6.207  10.526  1.7249  0.3495 -1.1706
 9140TIP3    H251616   0.438   6.287  10.616  0.6597 -2.5539  0.4517
 9141TIP3   OH251617   6.246   5.098   9.682 -0.2210  0.0920  0.1447
 9141TIP3    H151618   6.208   5.010   9.691 -2.0966  0.9123  0.7820
 9141TIP3    H251619   6.258   5.110   9.588  0.7769 -1.1130  0.0934
 9142TIP3   OH251620   0.299   4.888  11.871  0.2628 -0.0842 -0.4510
 9142TIP3    H151621   0.314   4.889  11.777  0.0983  0.1492 -0.4747
 9142TIP3    H251622   0.387   4.887  11.909  0.3870 -2.9289 -0.6143
 9143TIP3   OH251623   5.276   1.795  12.361 -0.3184 -0.0363 -0.1598
 9143TIP3    H151624   5.216   1.816  12.290 -1.0806 -2.1183 -0.2255
 9143TIP3    H251625   5.219   1.764  12.432  0.5202  0.5902  0.8236
 9144TIP3   OH251626   6.458   1.222   9.485 -0.8836 -0.4814 -0.4039
 9144TIP3    H151627   6.483   1.188   9.400 -1.5885  0.5863 -1.0567
 9144TIP3    H251628   6.499   1.162   9.548  1.0660 -0.3187 -1.4505
 9145TIP3   OH251629   6.664   5.894  12.305  0.5447  0.0268 -0.6116
 9145TIP3    H151630   6.604   5.825  12.333  0.5310 -0.2494 -1.2917
 9145TIP3    H251631   6.709   5.921  12.385 -1.6161  1.3745  0.2254
 9146TIP3   OH251632   5.098   6.109  10.496  0.6710 -0.8690 -0.0710
 9146TIP3    H151633   5.082   6.015  10.503  1.5845 -0.9835  0.7590
 9146TIP3    H251634   5.153   6.130  10.572  2.2184 -0.0634 -1.3432
 9147TIP3   OH251635   0.218   1.908  11.073  0.2399 -0.1027 -0.0503
 9147TIP3    H151636   0.134   1.863  11.074 -1.0532  2.1052  1.2696
 9147TIP3    H251637   0.259   1.885  11.157  2.0113 -2.8072 -1.5277
 9148TIP3   OH251638   5.436   6.195  11.567 -0.5287 -0.0172  0.1116
 9148TIP3    H151639   5.428   6.244  11.648 -0.0167  0.1415  0.0705
 9148TIP3    H251640   5.394   6.251  11.501 -0.3219  0.1707  0.1399
 9149TIP3   OH251641   0.140   3.315  12.689  0.5534  1.0698  0.3446
 9149TIP3    H151642   0.107   3.349  12.772 -0.5932  2.2671 -0.5509
 9149TIP3    H251643   0.204   3.380  12.660  1.6202  0.2007  0.7033
 9150TIP3   OH251644   3.980   0.960  10.460  0.1933  0.6517 -0.1959
 9150TIP3    H151645   3.963   0.917  10.376  0.2588  2.3505 -1.1196
 9150TIP3    H251646   4.037   0.899  10.507  2.1366  0.6487 -2.3620
 9151TIP3   OH251647   5.320   5.624   9.306 -0.0612  0.2797 -0.2450
 9151TIP3    H151648   5.316   5.680   9.383 -1.4126  1.1448 -0.9188
 9151TIP3    H251649   5.323   5.535   9.341  2.5255  0.7123  0.8520
 9152TIP3   OH251650   3.422   5.887  12.449 -0.0637 -0.0811 -0.8608
 9152TIP3    H151651   3.384   5.934  12.523 -0.8367  0.9459 -1.8770
 9152TIP3    H251652   3.516   5.884  12.468 -0.2778 -0.0162  0.2544
 9153TIP3   OH251653   1.492   0.907  11.044  0.4371  0.1070  0.8551
 9153TIP3    H151654   1.451   0.849  11.108 -3.6108  1.9684  0.2437
 9153TIP3    H251655   1.468   0.870  10.959 -0.5145  1.5218  0.4706
 9154TIP3   OH251656   5.543   5.066  12.316  0.1470 -0.0966 -0.2628
 9154TIP3    H151657   5.529   5.044  12.409  0.4124  0.0306 -0.1896
 9154TIP3    H251658   5.462   5.106  12.288 -0.0066 -0.3170 -0.1383
 9155TIP3   OH251659   4.474   6.429  10.554  0.2031 -0.0203  0.1413
 9155TIP3    H151660   4.468   6.512  10.601  3.3257  0.3668  0.0356
 9155TIP3    H251661   4.557   6.433  10.507 -0.4919 -2.4097 -1.5168
 9156TIP3   OH251662   2.920   3.056  10.339  0.3467  0.6776  0.1563
 9156TIP3    H151663   3.001   3.106  10.349 -0.0585  1.9540 -2.2406
 9156TIP3    H251664   2.854   3.109  10.384  0.4755  0.6488  0.3835
 9157TIP3   OH251665   3.573   1.364  10.686 -0.4078 -0.2162 -0.1273
 9157TIP3    H151666   3.642   1.392  10.627 -1.4227  0.8670 -0.8430
 9157TIP3    H251667   3.611   1.371  10.774 -0.3844  2.8295 -0.2987
 9158TIP3   OH251668   1.337   6.307  10.064  0.0465  0.2816 -0.2504
 9158TIP3    H151669   1.421   6.348  10.083  1.4182 -1.9764 -0.9968
 9158TIP3    H251670   1.291   6.371  10.010  0.5028  2.2857  1.5814
 9159TIP3   OH251671   1.311   3.873  10.561 -0.1111 -0.2792  0.0667
 9159TIP3    H151672   1.317   3.806  10.493 -2.1723  0.9289 -1.4071
 9159TIP3    H251673   1.225   3.858  10.602 -1.4358  2.4213 -1.4721
 9160TIP3   OH251674   0.889   3.329  10.528  0.4044  0.0694  0.1503
 9160TIP3    H151675   0.935   3.283  10.458  1.8582 -1.0283  1.7412
 9160TIP3    H251676   0.940   3.408  10.542  0.5370 -0.0671  0.4447
 9161TIP3   OH251677   1.350   2.704  12.083  0.2344  0.0427 -0.3353
 9161TIP3    H151678   1.311   2.737  12.003 -1.4663 -1.6859 -0.3112
 9161TIP3    H251679   1.300   2.745  12.153  0.4597  0.1124 -0.2157
 9162TIP3   OH251680   5.827   6.055  10.848  0.5027  0.2642  0.8261
 9162TIP3    H151681   5.820   6.019  10.759  0.6765  2.3859 -0.1058
 9162TIP3    H251682   5.772   5.998  10.901  0.0786 -0.8404 -0.7208
 9163TIP3   OH251683   5.545   0.546  12.794  0.0085 -0.2749  0.3280
 9163TIP3    H151684   5.456   0.556  12.829  0.1809  1.5949  0.3229
 9163TIP3    H251685   5.600   0.539  12.872 -0.0916 -1.0638  0.3363
 9164TIP3   OH251686   0.301   1.842  10.795 -0.2957 -0.8406  0.6010
 9164TIP3    H151687   0.282   1.859  10.888 -1.5416 -0.9260  0.3863
 9164TIP3    H251688   0.288   1.926  10.752 -0.9251 -1.0538  0.3469
 9165TIP3   OH251689   2.505   5.764  13.777 -0.2644 -0.4696 -0.5658
 9165TIP3    H151690   2.588   5.801  13.748 -1.1316  0.7597 -1.6427
 9165TIP3    H251691   2.475   5.711  13.704  1.0106 -3.5894  1.0026
 9166TIP3   OH251692   0.117   5.026  12.033  0.5370 -0.2368  0.3118
 9166TIP3    H151693   0.186   5.005  11.970 -0.2864 -0.6185 -0.4825
 9166TIP3    H251694   0.037   4.989  11.994 -0.4162  1.6142  0.3898
 9167TIP3   OH251695   5.287   0.303  12.066 -0.0207  0.5379 -0.4494
 9167TIP3    H151696   5.305   0.283  11.975  0.1307 -0.5589 -0.1871
 9167TIP3    H251697   5.195   0.330  12.067 -0.2212 -0.1136 -0.8297
 9168TIP3   OH251698   3.472   5.321   9.457  0.2579 -0.0854  0.0956
 9168TIP3    H151699   3.529   5.324   9.534 -0.2208  0.7039  0.4405
 9168TIP3    H251700   3.464   5.412   9.429 -0.7509 -0.1858  0.0069
 9169TIP3   OH251701   6.200   0.424  13.374  0.2712 -0.2982 -0.2817
 9169TIP3    H151702   6.107   0.421  13.395  0.3915  0.7594  0.5003
 9169TIP3    H251703   6.206   0.482  13.298  0.1923 -1.3211 -1.0958
 9170TIP3   OH251704   2.914   2.844   9.702  0.0257 -0.1882  0.1710
 9170TIP3    H151705   2.980   2.795   9.653  0.2484  1.5332 -1.3661
 9170TIP3    H251706   2.962   2.881   9.777  0.4025 -0.3501  0.0101
 9171TIP3   OH251707   3.919   1.682  12.769 -0.3360  0.1408  0.4849
 9171TIP3    H151708   3.847   1.712  12.713 -0.8069 -0.8154  0.5579
 9171TIP3    H251709   3.943   1.760  12.820  2.1525  1.9606 -3.0627
 9172TIP3   OH251710   4.774   0.533   9.385  0.0168  0.8165  0.6360
 9172TIP3    H151711   4.869   0.536   9.382 -0.0303  3.1651 -0.5957
 9172TIP3    H251712   4.752   0.550   9.476  0.7733  1.4262  0.7128
 9173TIP3   OH251713   5.494   3.074  11.667 -0.5483  1.0461 -0.2409
 9173TIP3    H151714   5.499   3.130  11.590  0.4053  0.2793 -0.7636
 9173TIP3    H251715   5.450   2.995  11.636 -1.1365  1.1541  0.2846
 9174TIP3   OH251716   5.602   4.860  10.447  0.1988  0.4376  0.0380
 9174TIP3    H151717   5.562   4.894  10.527  0.5558 -0.1518  0.4763
 9174TIP3    H251718   5.685   4.823  10.476  0.5691  0.6795 -0.6911
 9175TIP3   OH251719   4.749   3.155  12.286  0.1479  0.5356 -0.4270
 9175TIP3    H151720   4.836   3.186  12.261  0.4154 -0.2390 -0.4755
 9175TIP3    H251721   4.748   3.063  12.261 -1.2543  0.9138 -1.9229
 9176TIP3   OH251722   6.342   5.594   9.683 -0.5019  0.2993 -0.2873
 9176TIP3    H151723   6.248   5.586   9.663 -0.8580  2.5386  0.1919
 9176TIP3    H251724   6.357   5.689   9.688  1.5733 -0.0331  0.6770
 9177TIP3   OH251725   4.611   0.365  10.516 -0.3583 -0.7531 -0.3686
 9177TIP3    H151726   4.604   0.270  10.520  3.1717 -1.1334 -0.0086
 9177TIP3    H251727   4.647   0.383  10.429 -3.2323  0.5770 -1.4170
 9178TIP3   OH251728   2.880   6.517  11.419 -0.7708  0.0586  0.0669
 9178TIP3    H151729   2.924   6.569  11.350 -2.7130  0.7437 -0.7263
 9178TIP3    H251730   2.896   6.566  11.499  2.5101 -1.3450  0.4136
 9179TIP3   OH251731   4.180   1.228   9.954 -0.1446  0.0870  0.1139
 9179TIP3    H151732   4.232   1.201  10.029  0.6249  1.2583  0.0255
 9179TIP3    H251733   4.090   1.231   9.986 -0.1647 -1.7260  0.3340
 9180TIP3   OH251734   5.826   2.390  10.089 -0.1926 -0.0652 -0.4875
 9180TIP3    H151735   5.777   2.330  10.144 -1.9269  1.2403 -0.5303
 9180TIP3    H251736   5.918   2.376  10.113 -0.7670 -0.7195  1.5081
 9181TIP3   OH251737   5.450   2.405  10.037  0.7535  0.1638 -0.1019
 9181TIP3    H151738   5.518   2.467  10.012  0.2017  0.9787  0.3652
 9181TIP3    H251739   5.457   2.398  10.132  1.1019 -0.8478 -0.1923
 9182TIP3   OH251740   3.500   4.705  10.201  0.0392  0.3386 -0.3708
 9182TIP3    H151741   3.437   4.649  10.156 -0.5226  0.5943  0.0669
 9182TIP3    H251742   3.475   4.794  10.174  0.2472  0.4366 -0.2376
 9183TIP3   OH251743   3.368   0.157  10.709 -0.3548 -0.1143 -0.1763
 9183TIP3    H151744   3.322   0.238  10.730 -0.8674 -0.4711  0.1215
 9183TIP3    H251745   3.408   0.173  10.624 -0.1498  0.5731  0.0472
 9184TIP3   OH251746   3.527   4.812  12.019  0.7067 -0.5005  0.2369
 9184TIP3    H151747   3.566   4.768  12.095  0.7346 -1.4943 -0.3378
 9184TIP3    H251748   3.590   4.880  11.996 -0.0878  1.0206  2.1439
 9185TIP3   OH251749   6.527   0.713   9.790  0.3600 -0.2572 -0.1023
 9185TIP3    H151750   6.444   0.666   9.801  0.0091  0.2265 -0.6564
 9185TIP3    H251751   6.586   0.648   9.751  0.1645 -0.5239  0.0438
 9186TIP3   OH251752   5.956   3.022   9.949  0.6309 -0.1056  0.5177
 9186TIP3    H151753   6.052   3.029   9.952  0.8330 -0.9439 -2.0398
 9186TIP3    H251754   5.927   3.106   9.913  0.2003  0.7303  2.6168
 9187TIP3   OH251755   5.843   0.769  13.141  0.1435 -0.4499 -1.2089
 9187TIP3    H151756   5.825   0.845  13.086  1.0993 -0.2260 -1.2352
 9187TIP3    H251757   5.863   0.699  13.079  1.8872 -0.0271 -1.1800
 9188TIP3   OH251758   0.992   1.584  10.337 -0.6496  0.1413 -0.1065
 9188TIP3    H151759   1.068   1.530  10.316  1.2138  2.3385  0.5166
 9188TIP3    H251760   0.930   1.568  10.266  1.0130 -0.6372 -1.4414
 9189TIP3   OH251761   1.041   1.297   9.940  0.1748 -0.3098  0.2735
 9189TIP3    H151762   1.078   1.209   9.934 -1.7727 -1.3799  2.3123
 9189TIP3    H251763   0.987   1.306   9.862  0.5453 -0.8328 -0.0468
 9190TIP3   OH251764   3.175   4.588  12.273 -0.2555 -0.4108  0.0088
 9190TIP3    H151765   3.140   4.553  12.191 -0.0623  1.3847 -0.8733
 9190TIP3    H251766   3.161   4.682  12.268 -0.7093 -0.2990  2.2887
 9191TIP3   OH251767   3.698   2.671   9.708 -0.4098 -0.2264 -0.4727
 9191TIP3    H151768   3.670   2.743   9.652 -3.1181 -0.6031  0.2356
 9191TIP3    H251769   3.793   2.681   9.715 -0.4713  2.1248 -1.9043
 9192TIP3   OH251770   5.046   6.092  10.885  0.6888  0.0710 -1.1490
 9192TIP3    H151771   5.128   6.133  10.858  1.5513 -0.9177 -0.1491
 9192TIP3    H251772   5.063   6.058  10.972 -0.6494 -0.5569 -1.0971
 9193TIP3   OH251773   2.154   5.006  10.553  0.2827  0.8000  0.3174
 9193TIP3    H151774   2.100   5.033  10.478 -2.1038 -0.4444  1.4771
 9193TIP3    H251775   2.215   4.942  10.516  1.5069  2.7014 -1.1571
 9194TIP3   OH251776   1.225   1.453   9.670 -0.0083 -0.3687 -0.7960
 9194TIP3    H151777   1.274   1.384   9.625 -0.2598 -0.5583 -0.7821
 9194TIP3    H251778   1.290   1.500   9.721 -0.0988 -1.6796  0.5824
 9195TIP3   OH251779   5.271   2.584   9.498 -0.2495  0.4507 -0.1981
 9195TIP3    H151780   5.280   2.500   9.454 -2.3186 -0.4093  0.9116
 9195TIP3    H251781   5.362   2.613   9.512  0.5250 -1.6684 -0.4512
 9196TIP3   OH251782   2.910   0.981  11.962  0.4073 -0.5952 -0.4884
 9196TIP3    H151783   2.873   0.935  11.886  2.1036 -0.4592 -1.4494
 9196TIP3    H251784   2.837   1.032  11.997 -1.2082 -2.9583 -0.1814
 9197TIP3   OH251785   4.453   5.245  11.444 -0.3066  0.1204 -0.0803
 9197TIP3    H151786   4.470   5.154  11.421  0.2450 -0.2371  1.5813
 9197TIP3    H251787   4.423   5.241  11.535 -1.8135  1.4688 -0.4915
 9198TIP3   OH251788   1.013   3.182  10.355 -0.0658  0.1276 -0.2238
 9198TIP3    H151789   1.019   3.248  10.285 -1.1563  0.1393 -0.3122
 9198TIP3    H251790   1.063   3.108  10.322  0.0661  0.4179 -0.6896
 9199TIP3   OH251791   2.719   1.994  11.018  0.0813 -0.0111  0.3354
 9199TIP3    H151792   2.703   1.994  10.923 -0.2891  1.2157  0.3760
 9199TIP3    H251793   2.648   2.047  11.053  0.3490 -0.2715  1.2907
 9200TIP3   OH251794   1.541   0.567  10.875  0.2024 -0.8049 -0.1606
 9200TIP3    H151795   1.510   0.655  10.898  0.8132 -0.8288  0.7986
 9200TIP3    H251796   1.566   0.574  10.783 -0.0823 -0.0715 -0.1889
 9201TIP3   OH251797   2.588   4.637   9.947  0.5238 -0.1394  0.3504
 9201TIP3    H151798   2.660   4.669   9.892  1.0427 -0.5688  0.7675
 9201TIP3    H251799   2.599   4.542   9.950  0.0041 -0.2006  0.5097
 9202TIP3   OH251800   0.103   1.167  13.151 -0.1562 -0.4356  0.6785
 9202TIP3    H151801   0.178   1.211  13.112 -0.9318  0.9763  0.7311
 9202TIP3    H251802   0.111   1.076  13.121 -0.0281  0.3061 -1.7115
 9203TIP3   OH251803   2.979   5.222  10.386  0.2298  0.4836  0.2877
 9203TIP3    H151804   3.028   5.155  10.340 -0.2698  1.4715 -1.7768
 9203TIP3    H251805   2.898   5.233  10.336 -0.8644  0.8749  2.0126
 9204TIP3   OH251806   1.449   2.281  10.901  0.4508 -0.3819 -0.2674
 9204TIP3    H151807   1.528   2.274  10.955 -0.7984 -0.6698  1.5816
 9204TIP3    H251808   1.449   2.201  10.848  0.2665 -1.5088  1.3558
 9205TIP3   OH251809   5.962   3.524  12.089  0.1290  0.0645 -0.6203
 9205TIP3    H151810   5.938   3.575  12.166  0.6918  0.6135 -0.7975
 9205TIP3    H251811   5.974   3.589  12.020  3.8866  0.1260 -0.1217
 9206TIP3   OH251812   3.066   0.752  11.914 -0.3132 -0.1379  0.6354
 9206TIP3    H151813   3.023   0.677  11.955  2.1244 -0.5466  2.6582
 9206TIP3    H251814   3.003   0.824  11.923 -1.6139 -1.3063  1.0774
 9207TIP3   OH251815   3.746   6.152  10.301  0.2056 -0.1399  0.2181
 9207TIP3    H151816   3.736   6.164  10.206  1.1284  1.0869  0.2481
 9207TIP3    H251817   3.659   6.127  10.331 -0.0217 -0.8946 -0.9933
 9208TIP3   OH251818   5.483   6.327  10.607 -0.1769 -0.1238  0.0199
 9208TIP3    H151819   5.542   6.324  10.531 -0.5705 -2.4755 -0.2779
 9208TIP3    H251820   5.541   6.321  10.683  0.0754 -1.3517 -0.2417
 9209TIP3   OH251821   5.606   0.728  12.066  0.1497  0.1309 -0.5612
 9209TIP3    H151822   5.700   0.728  12.046  0.2684 -0.0431 -0.0229
 9209TIP3    H251823   5.601   0.703  12.158 -0.3148  1.8587 -0.0752
 9210TIP3   OH251824   2.194   2.404  11.951  0.2343 -0.5104 -0.1143
 9210TIP3    H151825   2.270   2.350  11.976 -0.1105 -0.6966  0.5615
 9210TIP3    H251826   2.127   2.382  12.016  0.7717  2.3363  1.5846
 9211TIP3   OH251827   5.955   3.938  11.572 -0.4628  0.8442  0.2337
 9211TIP3    H151828   5.948   3.843  11.582  0.2640  0.5594 -1.5426
 9211TIP3    H251829   5.918   3.956  11.486 -0.7632  2.2074  0.6235
 9212TIP3   OH251830   3.901   4.771  10.860 -0.6894 -0.1727  0.2591
 9212TIP3    H151831   3.856   4.776  10.944  1.1281  1.8001  1.2125
 9212TIP3    H251832   3.951   4.690  10.863 -1.1431 -0.4352  0.7976
 9213TIP3   OH251833   4.953   3.032  12.008 -0.3127  0.1786 -0.7039
 9213TIP3    H151834   4.977   3.010  11.918  2.2618 -0.7006  0.1049
 9213TIP3    H251835   5.015   3.099  12.035 -0.0682 -0.6179  0.8650
 9214TIP3   OH251836   6.296   6.294  10.986 -0.4275 -0.1979  0.0474
 9214TIP3    H151837   6.215   6.242  10.991  0.2993 -1.2637  1.4978
 9214TIP3    H251838   6.341   6.275  11.068  0.8667  1.1220 -0.3304
 9215TIP3   OH251839   6.611   0.292  10.847  0.4875 -0.1798  0.7566
 9215TIP3    H151840   6.696   0.335  10.847  0.2542  0.2854  0.2244
 9215TIP3    H251841   6.631   0.199  10.861  1.1492 -0.2076 -0.3244
 9216TIP3   OH251842   1.468   5.231  11.800  0.3567  0.6172 -0.2985
 9216TIP3    H151843   1.465   5.218  11.895 -0.1835  1.2560 -0.2190
 9216TIP3    H251844   1.466   5.142  11.764  1.4402  0.3320  0.2945
 9217TIP3   OH251845   5.871   1.378  11.500  0.1697 -0.4338  0.0068
 9217TIP3    H151846   5.897   1.456  11.549  0.0149  0.3705 -1.1386
 9217TIP3    H251847   5.803   1.409  11.440 -1.4703 -1.9138  1.0077
 9218TIP3   OH251848   2.486   5.134  10.318  0.1090 -0.2333 -0.3434
 9218TIP3    H151849   2.443   5.066  10.266 -0.3905  0.6267 -1.0704
 9218TIP3    H251850   2.551   5.172  10.259  1.1040 -0.7567  0.3874
 9219TIP3   OH251851   3.720   4.166  10.772  0.5754  0.5112 -0.2711
 9219TIP3    H151852   3.684   4.078  10.761  0.4731  0.4729  0.3222
 9219TIP3    H251853   3.692   4.213  10.694 -0.3965  0.3527 -0.0394
 9220TIP3   OH251854   0.814   1.391  12.618 -0.7132 -0.1289 -0.6582
 9220TIP3    H151855   0.871   1.466  12.603 -1.3408  0.3734 -0.5392
 9220TIP3    H251856   0.726   1.427  12.621 -0.9885 -0.8166 -0.2173
 9221TIP3   OH251857   0.769   5.925   9.814 -0.8125  0.0896 -0.0140
 9221TIP3    H151858   0.751   5.871   9.738  2.6700 -1.6901  0.1999
 9221TIP3    H251859   0.798   6.009   9.778 -0.8758 -0.1285 -0.5783
 9222TIP3   OH251860   6.037   5.239   9.865  0.2603  0.2710  0.7216
 9222TIP3    H151861   6.106   5.182   9.830 -0.9259 -0.1152 -1.0712
 9222TIP3    H251862   6.082   5.322   9.881  1.6193 -0.5993  1.7147
 9223TIP3   OH251863   4.816   3.497  10.724  0.0955 -0.0429  0.6723
 9223TIP3    H151864   4.908   3.521  10.715 -0.5207  2.8204  1.1687
 9223TIP3    H251865   4.808   3.466  10.814  0.5734 -0.4021  0.5960
 9224TIP3   OH251866   1.090   6.234  10.355  0.3558 -0.1274  0.4532
 9224TIP3    H151867   1.151   6.195  10.292  1.0168  0.9657  0.4067
 9224TIP3    H251868   1.143   6.251  10.433  0.0019  0.3775  0.5900
 9225TIP3   OH251869   3.510   3.702  11.582  0.2310  0.2545 -0.0063
 9225TIP3    H151870   3.546   3.689  11.670 -2.2917  2.1700  1.4129
 9225TIP3    H251871   3.576   3.664  11.524  2.0906 -0.9039  2.6645
 9226TIP3   OH251872   2.712   5.667  10.466  0.7952 -0.3650  1.0702
 9226TIP3    H151873   2.761   5.748  10.451 -2.2164  1.6889  1.3994
 9226TIP3    H251874   2.718   5.653  10.561  1.3503 -0.5923  1.0082
 9227TIP3   OH251875   1.808   5.967  11.923 -0.3293  0.0081 -0.0052
 9227TIP3    H151876   1.869   6.005  11.860 -1.2069  1.2430 -0.1571
 9227TIP3    H251877   1.862   5.910  11.977  1.2739  2.1132  0.7595
 9228TIP3   OH251878   4.867   2.840  11.116 -0.2068  0.0682 -0.4160
 9228TIP3    H151879   4.799   2.845  11.049  1.8428 -0.8063 -2.6912
 9228TIP3    H251880   4.839   2.770  11.174 -1.8839  0.6361 -0.4929
 9229TIP3   OH251881   1.500   2.857  10.288  0.0114  0.3423 -0.6507
 9229TIP3    H151882   1.464   2.828  10.204 -2.4861  2.7218 -0.5438
 9229TIP3    H251883   1.441   2.819  10.353  0.0399  1.0927 -0.1811
 9230TIP3   OH251884   3.824   3.775  10.872  0.3216 -0.1574 -0.0861
 9230TIP3    H151885   3.806   3.687  10.839  0.2163  0.0131 -0.4917
 9230TIP3    H251886   3.892   3.809  10.814 -0.6408  0.5581 -0.8356
 9231TIP3   OH251887   3.348   2.778   9.400  0.1227  0.0733  0.3237
 9231TIP3    H151888   3.300   2.799   9.481 -0.4914 -0.3265  0.0715
 9231TIP3    H251889   3.304   2.701   9.366 -0.4848  1.0063 -1.1081
 9232TIP3   OH251890   0.780   0.610  10.998  0.2530 -0.9776  0.1850
 9232TIP3    H151891   0.716   0.593  11.067  1.3615 -1.7340  1.0907
 9232TIP3    H251892   0.777   0.704  10.984 -0.1859 -0.8452  1.0979
 9233TIP3   OH251893   5.822   1.707  11.293  0.2151  0.0870  0.1815
 9233TIP3    H151894   5.910   1.678  11.268  0.6081  1.4653 -0.1296
 9233TIP3    H251895   5.764   1.638  11.260  0.8992  0.7400 -2.7110
 9234TIP3   OH251896   5.333   2.085  10.593  0.0128  0.2724  0.0842
 9234TIP3    H151897   5.303   2.030  10.666  0.1755  0.3330  0.1994
 9234TIP3    H251898   5.287   2.168  10.606 -2.0002 -0.5550 -1.3940
 9235TIP3   OH251899   4.964   0.502  12.069  0.1452 -0.4093 -0.2302
 9235TIP3    H151900   4.990   0.592  12.051  1.2292 -0.5942  0.3318
 9235TIP3    H251901   4.928   0.504  12.157  0.6762 -0.6180 -0.0057
 9236TIP3   OH251902   2.508   3.822   9.830 -0.3460 -0.3810 -0.4840
 9236TIP3    H151903   2.496   3.747   9.888  1.5379 -0.9823 -0.7798
 9236TIP3    H251904   2.589   3.862   9.860 -2.2094  2.7053  0.8471
 9237TIP3   OH251905   5.548   5.469   9.899 -0.0397  0.1264 -0.4033
 9237TIP3    H151906   5.515   5.528   9.832  0.9896  0.8340 -0.3201
 9237TIP3    H251907   5.585   5.395   9.850  0.3150  0.4322 -0.6011
 9238TIP3   OH251908   1.121   4.267  11.001 -0.4001  0.2153 -0.2888
 9238TIP3    H151909   1.133   4.199  11.067 -0.7371  0.3421 -0.0931
 9238TIP3    H251910   1.171   4.342  11.034  1.0541 -0.3340 -1.1351
 9239TIP3   OH251911   3.844   4.789  12.337  0.1329 -0.1335 -0.2884
 9239TIP3    H151912   3.895   4.717  12.301 -0.0582 -0.0837 -0.6662
 9239TIP3    H251913   3.839   4.771  12.431 -1.6672 -1.7536 -0.6371
 9240TIP3   OH251914   2.259   6.313  11.800  0.3410 -0.1755 -0.9271
 9240TIP3    H151915   2.243   6.229  11.756 -0.4915 -0.8430  0.5589
 9240TIP3    H251916   2.337   6.297  11.853  2.4704  1.1738 -3.3950
 9241TIP3   OH251917   4.400   2.321  11.042 -0.2354  0.1474 -0.1211
 9241TIP3    H151918   4.412   2.234  11.002 -3.2042 -0.4305  0.0066
 9241TIP3    H251919   4.413   2.382  10.969 -0.7908 -0.5831 -0.8492
 9242TIP3   OH251920   4.019   4.958  12.101  0.1930 -0.0689  0.0607
 9242TIP3    H151921   4.045   5.041  12.141 -1.7228  0.8803 -0.5640
 9242TIP3    H251922   4.050   4.892  12.163  0.4082  1.1725  1.3516
 9243TIP3   OH251923   2.036   3.720  12.382  0.4486  0.1602  0.5154
 9243TIP3    H151924   2.027   3.682  12.470  0.1575 -0.7531  0.1000
 9243TIP3    H251925   2.109   3.781  12.391  0.5592 -0.0703  1.3498
 9244TIP3   OH251926   1.126   2.718  11.355  0.6076  0.4150 -0.2926
 9244TIP3    H151927   1.218   2.720  11.383  0.8436  1.2783 -1.0593
 9244TIP3    H251928   1.107   2.808  11.330 -0.0265 -0.0130 -1.4467
 9245TIP3   OH251929   2.150   2.093  12.430  0.8244  0.1574 -0.2593
 9245TIP3    H151930   2.085   2.111  12.498 -0.0118  1.3906 -1.3313
 9245TIP3    H251931   2.192   2.012  12.458  0.2191  0.3972  1.4956
 9246TIP3   OH251932   3.568   5.275  13.375  0.1453 -0.2387 -0.3681
 9246TIP3    H151933   3.559   5.188  13.337 -0.5834  0.0468 -0.8680
 9246TIP3    H251934   3.506   5.275  13.448 -1.3973  0.5272 -1.6172
 9247TIP3   OH251935   4.569   6.034  12.230  0.3867  0.2298 -0.3449
 9247TIP3    H151936   4.582   6.126  12.205  0.5422  0.0934 -0.7700
 9247TIP3    H251937   4.657   5.997  12.230  0.1796 -0.3234 -1.7678
 9248TIP3   OH251938   5.558   4.612  12.360  0.2518  0.2931 -0.0967
 9248TIP3    H151939   5.485   4.668  12.386  0.1101  0.6684 -1.2270
 9248TIP3    H251940   5.547   4.533  12.412 -1.6723 -0.1494 -1.0903
 9249TIP3   OH251941   5.720   1.108  11.761 -0.2485 -0.2281  0.1749
 9249TIP3    H151942   5.674   1.075  11.839 -1.2735  0.0368 -0.3076
 9249TIP3    H251943   5.752   1.029  11.717  0.8018 -0.3589  1.1291
 9250TIP3   OH251944   4.650   3.158  10.850  0.2906  0.9635  0.6648
 9250TIP3    H151945   4.569   3.108  10.863 -0.1974  1.8499  1.1822
 9250TIP3    H251946   4.706   3.101  10.798 -0.9448  0.6106 -0.3186
 9251TIP3   OH251947   4.988   4.577  11.764 -0.1255 -0.6556  0.2065
 9251TIP3    H151948   5.050   4.650  11.768 -0.0051 -0.6839 -0.8848
 9251TIP3    H251949   5.024   4.513  11.827  0.1201 -0.0528  0.6910
 9252TIP3   OH251950   5.238   6.481  10.611  0.1699 -0.0708 -0.0841
 9252TIP3    H151951   5.235   6.503  10.518  2.3345  0.1338 -0.1528
 9252TIP3    H251952   5.317   6.429  10.621 -1.1856 -2.0034  1.2992
 9253TIP3   OH251953   2.918   4.016  11.596  0.0464 -0.0764  0.4196
 9253TIP3    H151954   2.892   4.109  11.595 -1.1602 -0.4008  0.3358
 9253TIP3    H251955   2.845   3.972  11.640  1.3698 -0.7800  1.9784
 9254TIP3   OH251956   1.547   0.720  11.895 -0.3247  0.1922  0.2800
 9254TIP3    H151957   1.520   0.634  11.862  0.0733 -0.7447  2.2537
 9254TIP3    H251958   1.495   0.734  11.974  1.9179  0.1952  1.8665
 9255TIP3   OH251959   4.618   4.055  12.589 -0.2727  0.2518  0.2969
 9255TIP3    H151960   4.534   4.077  12.629 -1.0338 -2.9901  0.7245
 9255TIP3    H251961   4.627   3.961  12.603  4.5036  0.7314  2.3260
 9256TIP3   OH251962   3.957   2.748  11.187 -0.0854 -0.1563 -0.4464
 9256TIP3    H151963   3.871   2.765  11.148 -0.0332  3.0971  0.6393
 9256TIP3    H251964   3.939   2.734  11.280  0.5513  0.8646 -0.1547
 9257TIP3   OH251965   0.744   1.932  11.127  0.2412  0.2631  0.4065
 9257TIP3    H151966   0.703   2.017  11.111 -1.6573  0.1471  3.7724
 9257TIP3    H251967   0.801   1.946  11.202  0.3230 -1.2831  0.6657
 9258TIP3   OH251968   5.012   5.189  11.940 -0.4564  0.2554 -0.2695
 9258TIP3    H151969   4.957   5.256  11.981 -0.1907 -0.0678  0.6239
 9258TIP3    H251970   4.953   5.145  11.878 -0.7888  0.9154 -0.4375
 9259TIP3   OH251971   0.343   4.358  11.031  0.4947  0.0783  0.3142
 9259TIP3    H151972   0.349   4.435  10.974 -0.1169 -0.4352 -0.4686
 9259TIP3    H251973   0.285   4.385  11.102 -0.6582  0.0031 -0.5648
 9260TIP3   OH251974   5.608   5.018  11.118  0.1719 -0.4312  0.1990
 9260TIP3    H151975   5.675   5.072  11.077 -0.4895 -0.0071 -0.3547
 9260TIP3    H251976   5.654   4.971  11.187  1.1254 -0.4728 -0.4401
 9261TIP3   OH251977   4.684   3.194  11.605  0.3613  0.1229 -0.2078
 9261TIP3    H151978   4.686   3.112  11.556 -0.3672  0.0151 -0.0733
 9261TIP3    H251979   4.661   3.260  11.540 -0.5624 -0.0138 -0.0401
 9262TIP3   OH251980   5.228   1.264  10.817 -0.3010 -0.0211 -0.2978
 9262TIP3    H151981   5.173   1.291  10.744  0.3830 -2.3584 -1.8133
 9262TIP3    H251982   5.166   1.245  10.887 -1.5446 -2.2972 -1.8537
 9263TIP3   OH251983   5.280   3.285  10.508  0.4459 -0.2488 -0.1157
 9263TIP3    H151984   5.232   3.367  10.495 -0.1310 -0.3264  1.3899
 9263TIP3    H251985   5.231   3.221  10.457 -1.4818 -0.4480  1.8137
 9264TIP3   OH251986   4.611   0.370  11.105 -0.0545 -0.3025 -0.5058
 9264TIP3    H151987   4.568   0.301  11.055  0.4378  0.1129 -1.5370
 9264TIP3    H251988   4.541   0.410  11.156 -0.0863 -2.5606  1.3515
 9265TIP3   OH251989   6.282   1.665  11.344  0.3736  0.8918  0.1329
 9265TIP3    H151990   6.192   1.645  11.316  0.3337  1.6881 -0.3429
 9265TIP3    H251991   6.302   1.597  11.408 -0.3877  0.4040 -0.1204
 9266TIP3   OH251992   1.803   6.161  12.151 -0.1022 -0.4536  0.0021
 9266TIP3    H151993   1.801   6.101  12.076  2.1675  0.1168 -0.5876
 9266TIP3    H251994   1.778   6.245  12.115 -2.6151 -0.8404  0.6944
 9267TIP3   OH251995   4.719   6.689  12.677 -0.1755  0.4887 -0.4434
 9267TIP3    H151996   4.793   6.698  12.617 -0.1628 -1.0356 -0.6917
 9267TIP3    H251997   4.653   6.750  12.643  1.2847  2.6554  0.3831
 9268TIP3   OH251998   4.617   2.042  10.324  0.2681 -0.3779  0.1218
 9268TIP3    H151999   4.597   1.960  10.369  1.5924  0.1346  1.7540
 9268TIP3    H252000   4.614   2.021  10.231  0.6505 -2.2906  0.5095
 9269TIP3   OH252001   4.811   0.568  12.908 -0.6290  0.0451  0.1657
 9269TIP3    H152002   4.789   0.577  12.816  0.2348 -0.4257 -0.0938
 9269TIP3    H252003   4.900   0.604  12.916 -0.0281 -1.4420  0.4777
 9270TIP3   OH252004   1.955   2.031  12.177  0.3269  0.2110  0.0233
 9270TIP3    H152005   1.975   2.114  12.133 -0.4996  0.4796  0.1330
 9270TIP3    H252006   2.040   1.993  12.197  0.7278  0.3207 -1.3656
 9271TIP3   OH252007   3.932   0.161  12.844 -1.0743 -0.1130 -0.0090
 9271TIP3    H152008   3.938   0.128  12.934 -1.3482 -1.0926 -0.3456
 9271TIP3    H252009   3.840   0.148  12.821 -1.4228  1.7438  0.1649
 9272TIP3   OH252010   6.599   1.505  11.913  0.2211  0.0261 -0.4591
 9272TIP3    H152011   6.603   1.494  11.818  2.6449 -0.6485 -0.3392
 9272TIP3    H252012   6.686   1.536  11.938 -0.7816  1.6324  1.4169
 9273TIP3   OH252013   3.129   4.250   9.779  0.4614  0.7417 -0.6334
 9273TIP3    H152014   3.133   4.269   9.873  0.6564  1.2684 -0.7495
 9273TIP3    H252015   3.139   4.155   9.774  1.7429  0.8393 -0.2023
 9274TIP3   OH252016   2.212   6.575  10.308 -0.6135 -0.0736 -0.2926
 9274TIP3    H152017   2.277   6.641  10.334  0.5589 -1.1683 -0.3299
 9274TIP3    H252018   2.264   6.503  10.272 -1.9945  0.0084 -2.6517
 9275TIP3   OH252019   1.005   1.029  10.818  0.1944  0.4472  0.2202
 9275TIP3    H152020   1.010   1.052  10.725  1.9474  0.4253  0.2852
 9275TIP3    H252021   1.093   1.045  10.852 -0.5029  0.8251  1.9835
 9276TIP3   OH252022   5.077   1.819  12.164 -0.2548 -0.3082  0.0033
 9276TIP3    H152023   5.087   1.793  12.073 -2.0662 -0.1303 -0.2808
 9276TIP3    H252024   5.026   1.901  12.161 -1.3182 -0.8771  1.1826
 9277TIP3   OH252025   4.485   1.080  10.429  0.0349  0.3680  0.1583
 9277TIP3    H152026   4.557   1.085  10.491 -0.2581  0.0721  0.5213
 9277TIP3    H252027   4.477   1.169  10.395 -0.5110  0.7753  1.3397
 9278TIP3   OH252028   2.858   3.276  12.522  0.0211 -0.0051  0.0771
 9278TIP3    H152029   2.777   3.273  12.471 -1.4803  1.0077  2.2315
 9278TIP3    H252030   2.882   3.184  12.534 -0.4882 -0.3015 -1.0216
 9279TIP3   OH252031   0.355   6.006  12.005 -0.5869 -0.4368 -0.1263
 9279TIP3    H152032   0.391   5.986  11.919  0.4391 -0.5463  0.3174
 9279TIP3    H252033   0.425   6.055  12.050 -0.4034 -1.8828  1.2723
 9280TIP3   OH252034   0.071   5.426  11.542 -0.1488  0.0994 -1.0312
 9280TIP3    H152035   0.039   5.394  11.458 -0.2573 -0.2800 -0.8482
 9280TIP3    H252036   0.021   5.505  11.559  0.1521  0.4010 -1.5113
 9281TIP3   OH252037   0.978   1.778   9.727 -0.3256 -0.3752  0.5022
 9281TIP3    H152038   0.969   1.790   9.822 -0.6452 -0.8174  0.5351
 9281TIP3    H252039   0.905   1.720   9.704  0.6407 -1.5184  0.2426
 9282TIP3   OH252040   3.940   5.861   9.600 -0.7128  0.8150 -0.2630
 9282TIP3    H152041   3.853   5.867   9.641 -0.3684  1.4569  0.3853
 9282TIP3    H252042   3.928   5.797   9.529 -1.4495  0.0754  0.5055
 9283TIP3   OH252043   0.155   0.280  10.057  0.3709 -0.3043  0.1785
 9283TIP3    H152044   0.170   0.374  10.067 -1.7586  0.1351 -0.3832
 9283TIP3    H252045   0.065   0.266  10.086  0.1561 -1.9351 -1.1157
 9284TIP3   OH252046   4.196   2.056  11.468 -0.9648  0.8892  0.3806
 9284TIP3    H152047   4.207   2.107  11.388 -0.6433 -0.5832 -0.5675
 9284TIP3    H252048   4.275   2.003  11.473 -0.4727  1.7273  2.2947
 9285TIP3   OH252049   5.338   1.109  12.056  0.2586 -0.1170  0.4540
 9285TIP3    H152050   5.347   1.177  11.989 -0.7210 -1.2833 -0.9182
 9285TIP3    H252051   5.314   1.030  12.008 -0.9782 -0.8946  2.2057
 9286TIP3   OH252052   1.506   4.529  11.822  0.8597  0.1178  0.4712
 9286TIP3    H152053   1.527   4.608  11.873  2.1013 -0.7016  1.2907
 9286TIP3    H252054   1.443   4.559  11.757 -0.5350  1.3003  2.2376
 9287TIP3   OH252055   2.002   1.327   9.488  0.1181  0.2708  0.3680
 9287TIP3    H152056   2.006   1.420   9.511  2.0696  0.2622  0.2482
 9287TIP3    H252057   1.996   1.327   9.392 -1.6578  0.2448  0.4387
 9288TIP3   OH252058   0.395   4.950  10.119 -1.0296 -0.3414  0.9468
 9288TIP3    H152059   0.387   4.885  10.048  0.7851 -0.1068  0.4987
 9288TIP3    H252060   0.317   5.005  10.109 -1.9041 -1.5945  0.4871
 9289TIP3   OH252061   4.041   3.732  11.896  0.5477 -0.1219 -0.3556
 9289TIP3    H152062   4.074   3.647  11.867  3.2852  0.6331  0.3270
 9289TIP3    H252063   4.000   3.770  11.818 -0.5137 -1.9171 -0.7271
 9290TIP3   OH252064   2.968   4.609  12.851 -0.2863 -0.5251  0.4319
 9290TIP3    H152065   2.898   4.672  12.867 -0.2613 -0.1985 -0.6567
 9290TIP3    H252066   2.923   4.524  12.849 -0.3355 -0.5592  1.7809
 9291TIP3   OH252067   6.034   1.861  10.694 -0.5313  0.3281  0.3291
 9291TIP3    H152068   6.012   1.871  10.602  0.0101  2.1715  0.3623
 9291TIP3    H252069   6.068   1.946  10.720 -1.0920 -0.0106  2.3590
 9292TIP3   OH252070   2.903   4.800  11.596 -1.0037  0.2811  0.2149
 9292TIP3    H152071   2.941   4.751  11.669 -1.0656 -0.9101 -0.5335
 9292TIP3    H252072   2.810   4.807  11.617 -1.0130 -0.0233  0.2767
 9293TIP3   OH252073   2.128   5.136  10.942 -0.6955  0.0235 -0.1855
 9293TIP3    H152074   2.222   5.147  10.926 -0.5852  2.6755  1.5576
 9293TIP3    H252075   2.086   5.187  10.874 -0.7905  0.1833 -0.0082
 9294TIP3   OH252076   0.362   2.593  11.295  0.8855  0.2364  0.5517
 9294TIP3    H152077   0.445   2.571  11.253  0.1596 -0.2160 -0.7240
 9294TIP3    H252078   0.313   2.511  11.295  0.2103  0.6372  0.7049
 9295TIP3   OH252079   0.327   5.794   9.518 -0.1872  0.0872 -0.1792
 9295TIP3    H152080   0.268   5.771   9.590 -0.4922 -2.1778 -1.0742
 9295TIP3    H252081   0.300   5.738   9.446  1.1895  1.1059 -1.5523
 9296TIP3   OH252082   0.794   0.870  10.904 -0.6458 -0.4351 -0.3251
 9296TIP3    H152083   0.875   0.907  10.869 -1.1394 -0.2672 -1.3418
 9296TIP3    H252084   0.728   0.890  10.837 -1.7243  0.2228  0.8943
 9297TIP3   OH252085   6.071   0.454  12.044 -0.2847 -0.3351  0.2682
 9297TIP3    H152086   6.033   0.402  11.973  0.2341 -0.4455  0.0672
 9297TIP3    H252087   6.144   0.500  12.004  1.4893 -2.1639  1.2014
 9298TIP3   OH252088   2.017   2.235  12.693 -0.1543  0.7996 -0.0542
 9298TIP3    H152089   2.093   2.247  12.750 -1.0591  1.2152  1.1113
 9298TIP3    H252090   1.986   2.324  12.675 -0.9383  0.6128  0.3122
 9299TIP3   OH252091   2.527   5.010  12.904  0.9609 -0.3416 -0.0083
 9299TIP3    H152092   2.548   5.057  12.823 -1.3880  0.8968  0.0310
 9299TIP3    H252093   2.500   4.923  12.874  0.2947  0.0455 -0.5432
 9300TIP3   OH252094   4.544   3.235  10.416 -0.8114 -0.1459  0.1244
 9300TIP3    H152095   4.529   3.149  10.457  0.7589 -0.3429  0.3485
 9300TIP3    H252096   4.457   3.273  10.407 -1.7104 -2.3442 -1.2850
 9301TIP3   OH252097   4.641   0.893  11.169  0.6574  0.1282  0.1466
 9301TIP3    H152098   4.712   0.830  11.183  1.9070  1.8571  2.2325
 9301TIP3    H252099   4.566   0.839  11.142  2.5503 -1.8221 -1.6150
 9302TIP3   OH252100   3.943   3.842  11.654 -0.0734 -0.3893  0.0950
 9302TIP3    H152101   3.920   3.809  11.567  0.1479 -0.8070  0.1925
 9302TIP3    H252102   3.988   3.924  11.637 -0.0139 -0.4777 -0.1871
 9303TIP3   OH252103   3.999   2.996   9.843 -0.2936 -0.1973 -1.0110
 9303TIP3    H152104   4.030   3.053   9.772 -0.5274  0.4035 -0.6365
 9303TIP3    H252105   3.933   3.048   9.888 -0.6885 -0.8630 -0.8093
 9304TIP3   OH252106   4.602   3.716  10.721  0.5452  0.2046 -0.3266
 9304TIP3    H152107   4.601   3.643  10.658  1.8337  0.2749 -0.4378
 9304TIP3    H252108   4.649   3.682  10.797 -0.5594  0.2922  0.4202
 9305TIP3   OH252109   2.074   4.479  10.824 -0.1389 -1.0081 -0.5941
 9305TIP3    H152110   2.093   4.571  10.803 -0.7739 -0.8282 -0.4099
 9305TIP3    H252111   2.122   4.464  10.906 -0.8435 -0.5270 -0.0752
 9306TIP3   OH252112   3.343   6.170  10.873  0.1452  0.3432 -0.1144
 9306TIP3    H152113   3.367   6.261  10.893  1.9661 -0.3238  0.8970
 9306TIP3    H252114   3.333   6.129  10.958  1.5425 -0.9569 -0.5533
 9307TIP3   OH252115   3.958   5.778   9.901 -0.1878  0.2810 -0.2433
 9307TIP3    H152116   3.923   5.844   9.842 -1.7905  0.5862  0.9763
 9307TIP3    H252117   3.884   5.718   9.916  0.7399 -0.8481 -0.0068
 9308TIP3   OH252118   2.097   4.228  12.522  0.1977  0.3188  0.0181
 9308TIP3    H152119   2.126   4.319  12.533 -2.0295  1.1876 -0.7012
 9308TIP3    H252120   2.102   4.212  12.428  0.4571 -0.2826  0.1287
 9309TIP3   OH252121   4.115   1.014  11.738  1.2219 -0.5067 -0.1316
 9309TIP3    H152122   4.118   0.973  11.825  1.5939 -1.7739 -0.7206
 9309TIP3    H252123   4.183   1.080  11.741  0.2723  0.4720  1.0115
 9310TIP3   OH252124   0.658   3.896  11.177 -0.4795 -0.3314 -0.2663
 9310TIP3    H152125   0.721   3.868  11.243  0.4650  0.4476 -0.8117
 9310TIP3    H252126   0.704   3.963  11.126 -2.1781  1.2402  0.1433
 9311TIP3   OH252127   2.637   2.803  11.158  0.7921  0.8009  0.0365
 9311TIP3    H152128   2.579   2.865  11.203 -0.2284 -0.7256  0.8938
 9311TIP3    H252129   2.654   2.844  11.073  0.8077  2.6208  0.8684
 9312TIP3   OH252130   0.032   1.987  11.471 -0.2824 -0.1150  0.1184
 9312TIP3    H152131   0.042   1.908  11.417 -2.4310  0.1614 -0.7950
 9312TIP3    H252132   0.095   1.975  11.542  1.8189 -1.0626 -1.7582
 9313TIP3   OH252133   3.614   5.497  13.227 -0.0338  0.1944  0.4074
 9313TIP3    H152134   3.600   5.434  13.297 -1.1789 -0.5278 -0.4321
 9313TIP3    H252135   3.562   5.573  13.252  0.3653  0.3347  0.8202
 9314TIP3   OH252136   6.424   4.270   9.640 -0.1770 -0.3476 -0.2399
 9314TIP3    H152137   6.391   4.253   9.551 -1.1197  1.4053 -0.2664
 9314TIP3    H252138   6.347   4.300   9.688  0.2890 -1.4331  1.2475
 9315TIP3   OH252139   5.452   5.715  12.954 -0.2221 -0.4207  0.5783
 9315TIP3    H152140   5.443   5.625  12.923 -1.8431  0.4528 -1.7503
 9315TIP3    H252141   5.485   5.763  12.878  0.3018  1.0456  1.6821
 9316TIP3   OH252142   2.300   4.788  10.428  0.0003 -0.0022 -1.1469
 9316TIP3    H152143   2.344   4.703  10.421  0.8770  0.5032 -1.9192
 9316TIP3    H252144   2.217   4.775  10.383 -0.8439 -1.0486  0.5786
 9317TIP3   OH252145   3.481   5.936  12.011 -0.1814  0.2211  0.3685
 9317TIP3    H152146   3.538   5.943  12.087 -0.3370 -1.9897  0.7387
 9317TIP3    H252147   3.446   5.847  12.015 -2.9298  1.1688 -0.3642
 9318TIP3   OH252148   1.300   1.913  10.444 -0.1611 -0.6910  0.5583
 9318TIP3    H152149   1.366   1.860  10.490 -0.5503 -0.7943  0.9994
 9318TIP3    H252150   1.225   1.915  10.503  0.6269  2.3043  1.6351
 9319TIP3   OH252151   0.953   5.978  10.606 -0.0376  0.0561  0.6044
 9319TIP3    H152152   0.907   6.044  10.554 -0.5276 -1.2727 -0.7028
 9319TIP3    H252153   0.911   5.983  10.692 -1.2208  0.3098  0.0407
 9320TIP3   OH252154   3.365   1.530   9.870 -0.1936  0.1094  0.2980
 9320TIP3    H152155   3.376   1.552   9.963 -0.8609 -0.1668  0.4496
 9320TIP3    H252156   3.444   1.480   9.848 -0.6808 -1.0901  1.1216
 9321TIP3   OH252157   0.810   4.435   9.665 -0.2553  0.2266  0.1034
 9321TIP3    H152158   0.758   4.359   9.639 -0.7971  0.7686 -0.4102
 9321TIP3    H252159   0.870   4.401   9.732 -1.3894 -0.3776  0.8422
 9322TIP3   OH252160   3.718   6.231  10.025 -0.0286  0.2816  0.4979
 9322TIP3    H152161   3.623   6.223  10.032 -0.0943 -1.6037 -1.3525
 9322TIP3    H252162   3.731   6.302   9.962 -0.1153  1.4251  1.7158
 9323TIP3   OH252163   3.712   3.001  10.885 -0.6959  0.1652  0.0263
 9323TIP3    H152164   3.778   2.964  10.944 -0.4450 -1.4862 -1.1946
 9323TIP3    H252165   3.675   3.074  10.933  0.8830  0.1201  1.4118
 9324TIP3   OH252166   6.289   6.167  11.797 -0.2149 -0.1195 -0.1718
 9324TIP3    H152167   6.217   6.108  11.774 -1.3638  0.4740  1.6931
 9324TIP3    H252168   6.281   6.179  11.892  1.3734  1.2542 -0.1638
 9325TIP3   OH252169   2.861   6.239  12.532  0.8540 -0.5372  0.2280
 9325TIP3    H152170   2.936   6.220  12.589  0.8662  0.4580  0.5647
 9325TIP3    H252171   2.805   6.295  12.585  1.2059  1.0074 -0.9520
 9326TIP3   OH252172   2.994   1.006   9.945 -0.1727 -0.2518 -0.5126
 9326TIP3    H152173   2.931   0.947   9.988  0.1271  0.7235  1.3620
 9326TIP3    H252174   3.015   0.962   9.863 -1.7097 -1.6224 -0.2357
 9327TIP3   OH252175   5.839   4.595  10.753  0.3049 -0.2642  0.1810
 9327TIP3    H152176   5.932   4.593  10.732  0.1319  0.8021 -0.7910
 9327TIP3    H252177   5.822   4.685  10.779 -0.8985  0.1933 -1.9596
 9328TIP3   OH252178   0.606   4.580  12.715 -0.2243  0.2231  0.6502
 9328TIP3    H152179   0.657   4.636  12.657 -1.9814  1.0600 -0.1566
 9328TIP3    H252180   0.645   4.493  12.706  1.5681  0.9888  0.7341
 9329TIP3   OH252181   0.075   5.007  11.737 -0.1045 -0.0626 -0.1384
 9329TIP3    H152182   0.138   4.943  11.770  0.0433  0.0446 -0.2150
 9329TIP3    H252183   0.128   5.074  11.694 -0.1733  0.7425  0.9895
 9330TIP3   OH252184   6.461   6.238  12.131 -0.0781 -0.2487 -0.7158
 9330TIP3    H152185   6.535   6.276  12.178  0.3388 -0.6728 -1.0236
 9330TIP3    H252186   6.386   6.291  12.158  0.4618  0.6780 -1.0007
 9331TIP3   OH252187   4.378   6.626  11.121  0.0375 -0.4221  0.3476
 9331TIP3    H152188   4.393   6.531  11.120 -1.0265 -0.6117  0.8684
 9331TIP3    H252189   4.451   6.661  11.171  0.4467 -0.9667  0.1428
 9332TIP3   OH252190   3.823   3.120  10.032 -0.2146  0.1812  0.1479
 9332TIP3    H152191   3.795   3.094  10.119 -0.5694 -0.9975 -0.2956
 9332TIP3    H252192   3.898   3.177  10.046  0.3925 -0.8528  1.1934
 9333TIP3   OH252193   5.838   0.120  12.872 -0.3150  0.0274  0.1530
 9333TIP3    H152194   5.896   0.057  12.915 -0.5738  0.6033  1.4111
 9333TIP3    H252195   5.802   0.172  12.944 -0.6637  1.1428 -0.7970
 9334TIP3   OH252196   0.558   6.014  12.231 -0.2093 -0.5142 -0.1815
 9334TIP3    H152197   0.536   5.966  12.311  0.5610  0.1231  0.4266
 9334TIP3    H252198   0.584   6.101  12.261 -0.0298 -0.2186 -1.1407
 9335TIP3   OH252199   3.081   3.855  10.715  0.3747  0.0525 -0.5409
 9335TIP3    H152200   3.021   3.907  10.661 -0.5023  0.0537  0.3840
 9335TIP3    H252201   3.065   3.887  10.804  1.0591 -0.6337 -0.1675
 9336TIP3   OH252202   3.505   0.599   9.798  0.0166  0.3350  0.3550
 9336TIP3    H152203   3.540   0.532   9.856  0.9097  1.2308  0.8892
 9336TIP3    H252204   3.581   0.650   9.771 -0.5725  0.8153 -0.4650
 9337TIP3   OH252205   2.847   5.719  12.524  0.3480  0.2074 -0.2275
 9337TIP3    H152206   2.793   5.772  12.582 -1.5149 -0.3927 -1.3278
 9337TIP3    H252207   2.819   5.629  12.541  1.1770 -0.1391 -0.6556
 9338TIP3   OH252208   1.043   2.600  12.884 -0.6963 -0.0228 -0.0261
 9338TIP3    H152209   1.065   2.522  12.834 -0.6181  0.6194 -1.0430
 9338TIP3    H252210   1.116   2.612  12.944 -0.1579 -0.1116 -0.6451
 9339TIP3   OH252211   1.654   3.074  11.125  0.0332  0.0715  0.0736
 9339TIP3    H152212   1.719   3.019  11.081 -0.3829 -0.5315  0.2006
 9339TIP3    H252213   1.683   3.164  11.108  1.5469 -0.1877  1.0899
 9340TIP3   OH252214   3.134   5.591  11.936 -0.2770  0.1874 -0.1180
 9340TIP3    H152215   3.151   5.527  12.005  2.8060  0.0086 -0.9096
 9340TIP3    H252216   3.202   5.575  11.871 -2.2569  1.2290 -2.6206
 9341TIP3   OH252217   3.735   3.177   9.547 -0.9868  0.4677 -0.0125
 9341TIP3    H152218   3.707   3.085   9.541  0.3962 -0.1895  2.2091
 9341TIP3    H252219   3.675   3.216   9.611 -0.3665  0.5573  0.5273
 9342TIP3   OH252220   2.001   4.636  11.662  0.6888  0.3064 -0.0121
 9342TIP3    H152221   2.063   4.603  11.597 -0.5564 -3.0932  0.3383
 9342TIP3    H252222   1.923   4.658  11.612  0.0664 -1.3909  0.1676
 9343TIP3   OH252223   5.804   2.688  11.240 -0.2767  0.5466 -0.2069
 9343TIP3    H152224   5.795   2.771  11.287 -2.0667  1.1682 -1.5274
 9343TIP3    H252225   5.727   2.637  11.265 -0.9697  0.6657 -1.9626
 9344TIP3   OH252226   6.217   2.027  10.838 -0.0728  0.2522  0.0197
 9344TIP3    H152227   6.197   2.112  10.879 -0.6966 -0.2586  0.8138
 9344TIP3    H252228   6.286   2.047  10.775  1.5562  0.9733  1.8824
 9345TIP3   OH252229   0.555   1.479  12.527 -0.0627  0.4641  0.2784
 9345TIP3    H152230   0.470   1.520  12.538 -0.4123 -0.1109 -0.2621
 9345TIP3    H252231   0.582   1.501  12.438  0.2616  0.4621  0.3722
 9346TIP3   OH252232   5.190   0.046   9.889  0.1534  0.6700 -0.0259
 9346TIP3    H152233   5.214   0.139   9.880 -0.3647  0.8226  0.1194
 9346TIP3    H252234   5.214   0.007   9.805 -0.6634  1.1742 -0.5086
 9347TIP3   OH252235   0.190   2.229  10.265 -0.3273  0.2298 -0.2350
 9347TIP3    H152236   0.147   2.304  10.305 -0.7738  0.6387 -1.4180
 9347TIP3    H252237   0.198   2.164  10.335 -1.3905  0.7747  0.4030
 9348TIP3   OH252238   3.575   0.595  11.027 -0.3408  0.6730  0.1322
 9348TIP3    H152239   3.513   0.655  10.985 -0.7228  0.9615  1.0617
 9348TIP3    H252240   3.525   0.556  11.099  0.4159  0.5661  0.6139
 9349TIP3   OH252241   0.812   5.843  11.511  0.2979 -0.7369  0.0886
 9349TIP3    H152242   0.743   5.869  11.450 -0.6937 -0.1220  1.3997
 9349TIP3    H252243   0.847   5.762  11.475 -0.6108 -0.6676 -1.0053
 9350TIP3   OH252244   0.076   4.618   9.634 -0.1081 -0.0028  0.2153
 9350TIP3    H152245   0.014   4.566   9.583  0.5053 -2.0742  1.4398
 9350TIP3    H252246   0.134   4.657   9.568  0.0790 -1.8132 -0.7622
 9351TIP3   OH252247   0.309   0.734  10.700 -0.7754 -0.4073 -0.0102
 9351TIP3    H152248   0.239   0.789  10.735 -0.4309  0.1313 -0.1457
 9351TIP3    H252249   0.296   0.735  10.605 -1.8628 -2.0762  0.0824
 9352TIP3   OH252250   6.340   3.498  11.223 -0.7420 -0.2066  0.1229
 9352TIP3    H152251   6.377   3.461  11.143 -0.1008 -0.9087  0.7257
 9352TIP3    H252252   6.413   3.546  11.262 -0.5157 -1.3990  1.2037
 9353TIP3   OH252253   1.114   1.802  11.106 -0.1871 -0.2856  0.1822
 9353TIP3    H152254   1.194   1.848  11.133 -0.5373 -0.1033  0.9243
 9353TIP3    H252255   1.136   1.766  11.020 -0.0625  1.6686 -0.6706
 9354TIP3   OH252256   1.510   4.546  12.547 -0.4545 -0.2400  0.0541
 9354TIP3    H152257   1.531   4.621  12.491 -0.6055 -0.6958 -0.6316
 9354TIP3    H252258   1.504   4.582  12.635  0.4102  0.3897 -0.1329
 9355TIP3   OH252259   4.737   6.578   9.241 -0.5541 -0.5843  0.1179
 9355TIP3    H152260   4.647   6.546   9.240 -0.5553 -0.5766 -0.0127
 9355TIP3    H252261   4.732   6.668   9.209 -0.6778 -0.1093  1.3786
 9356TIP3   OH252262   1.451   3.598  12.022 -0.1077  0.0001 -0.4021
 9356TIP3    H152263   1.443   3.673  12.081  1.2489 -2.5664  3.3939
 9356TIP3    H252264   1.522   3.623  11.962 -1.0229  2.4301 -0.5905
 9357TIP3   OH252265   0.500   2.924  11.918  0.0458 -0.0409  0.5592
 9357TIP3    H152266   0.540   2.843  11.886 -0.1351 -0.3920  1.2121
 9357TIP3    H252267   0.483   2.975  11.839  0.2071 -0.6209  0.1458
 9358TIP3   OH252268   1.493   6.066  11.069  0.1307  0.4617 -0.0374
 9358TIP3    H152269   1.478   5.981  11.112  0.6808  0.8033  0.8710
 9358TIP3    H252270   1.407   6.094  11.040 -0.1408 -0.1522  0.1570
 9359TIP3   OH252271   5.995   5.366   9.112  0.2939  0.4608 -0.3533
 9359TIP3    H152272   5.926   5.376   9.046  0.5344  1.9550 -0.4122
 9359TIP3    H252273   5.950   5.377   9.196 -0.2849 -2.8619 -0.0849
 9360TIP3   OH252274   1.388   5.448  12.329  0.0940  0.2272 -0.2719
 9360TIP3    H152275   1.345   5.369  12.294  0.8228 -0.9436  1.3540
 9360TIP3    H252276   1.332   5.474  12.402 -0.3195  1.4617 -0.9953
 9361TIP3   OH252277   3.063   0.124  11.786  0.2807  0.1832 -0.3914
 9361TIP3    H152278   3.158   0.130  11.799  0.6244 -0.7618 -2.1451
 9361TIP3    H252279   3.037   0.212  11.758  0.6419  0.4164 -0.0089
 9362TIP3   OH252280   5.018   2.331  10.143  0.3812  0.6120  0.2517
 9362TIP3    H152281   4.989   2.259  10.087  0.3136  0.1326  0.8930
 9362TIP3    H252282   5.114   2.322  10.144  0.4386  1.0423 -0.3273
 9363TIP3   OH252283   1.960   1.603   9.556  0.2267  0.2982  0.3933
 9363TIP3    H152284   1.976   1.691   9.522  0.6448  0.4372  0.9293
 9363TIP3    H252285   1.996   1.605   9.645  0.2219 -0.4105  0.4165
 9364TIP3   OH252286   1.347   5.706  10.060 -0.3075  0.2980 -0.1304
 9364TIP3    H152287   1.309   5.789  10.030 -0.9260 -0.2326 -0.8442
 9364TIP3    H252288   1.284   5.639  10.032  0.9715 -0.5754 -1.0550
 9365TIP3   OH252289   3.939   2.622  10.512  0.4787 -0.4497 -0.0993
 9365TIP3    H152290   4.001   2.593  10.578 -1.0153  0.6931  1.9162
 9365TIP3    H252291   3.877   2.549  10.504  0.7539 -0.6554 -0.3818
 9366TIP3   OH252292   1.874   3.426   9.890  0.1345  0.3207  0.0950
 9366TIP3    H152293   1.930   3.349   9.885  0.2013  0.3745  0.0179
 9366TIP3    H252294   1.904   3.472   9.969 -1.9040 -1.3009  1.9533
 9367TIP3   OH252295   6.365   2.710   9.866 -0.7503 -0.5509  0.0725
 9367TIP3    H152296   6.343   2.619   9.885 -0.2758 -0.4738  1.0627
 9367TIP3    H252297   6.365   2.753   9.952 -0.1142  0.1805 -0.2842
 9368TIP3   OH252298   0.775   0.541  10.263  0.8687 -0.4839 -0.7272
 9368TIP3    H152299   0.815   0.613  10.312 -0.5275  0.5177 -0.9855
 9368TIP3    H252300   0.809   0.551  10.174  0.1179  0.3588 -0.9436
 9369TIP3   OH252301   4.673   2.810  10.919  0.0972 -0.2844  0.4293
 9369TIP3    H152302   4.658   2.799  10.825 -2.9739  0.2972  0.7442
 9369TIP3    H252303   4.645   2.728  10.958  1.4674 -0.5665  0.8904
 9370TIP3   OH252304   4.333   3.117  11.569 -0.0315 -0.2569  0.2094
 9370TIP3    H152305   4.405   3.056  11.586  0.1787  0.1939  0.9784
 9370TIP3    H252306   4.272   3.068  11.515  1.4353 -0.2645 -1.5482
 9371TIP3   OH252307   6.015   1.589  11.671  0.3673 -0.7432 -0.1384
 9371TIP3    H152308   6.000   1.552  11.758  1.0108 -2.1689 -0.5952
 9371TIP3    H252309   6.100   1.633  11.679 -0.3359  0.5607  0.3721
 9372TIP3   OH252310   2.304   3.915  10.120 -0.0570 -0.2532  0.1598
 9372TIP3    H152311   2.363   3.989  10.100 -0.3327  0.2827  1.2263
 9372TIP3    H252312   2.284   3.877  10.035 -1.6547  2.2585 -0.7054
 9373TIP3   OH252313   1.889   5.348  10.256  0.1206 -0.2596 -0.0315
 9373TIP3    H152314   1.902   5.376  10.165 -0.3056  0.8702  0.2322
 9373TIP3    H252315   1.925   5.420  10.308  0.9596 -1.1793  0.7108
 9374TIP3   OH252316   2.719   3.610  10.995  0.1464  0.2296  0.2174
 9374TIP3    H152317   2.814   3.620  10.993  0.1737 -0.0992 -0.3483
 9374TIP3    H252318   2.700   3.568  11.079  0.7119 -1.7516 -0.5881
 9375TIP3   OH252319   0.735   0.062  10.100  0.3182 -0.0265  1.1232
 9375TIP3    H152320   0.697   0.136  10.147 -2.8750 -0.5198 -0.4688
 9375TIP3    H252321   0.778   0.101  10.024 -1.7079  0.2698  0.0662
 9376TIP3   OH252322   0.822   1.194  10.941  0.1405 -0.0614 -0.2604
 9376TIP3    H152323   0.835   1.180  11.035  0.2650  0.6791 -0.1651
 9376TIP3    H252324   0.885   1.136  10.899 -0.0069 -0.4979  0.1057
 9377TIP3   OH252325   1.573   0.155  13.376  0.1660 -0.3035 -0.2596
 9377TIP3    H152326   1.583   0.195  13.462  1.5127  3.0553 -1.8126
 9377TIP3    H252327   1.478   0.146  13.364 -0.0538 -0.2067  1.2736
 9378TIP3   OH252328   3.998   0.002  10.678 -0.2073 -0.1495 -0.3043
 9378TIP3    H152329   3.928   0.050  10.634 -0.1088  0.5888  0.3146
 9378TIP3    H252330   3.954  -0.067  10.727 -0.2207 -1.8658 -2.6004
 9379TIP3   OH252331   3.273   4.678  10.778 -0.3345  0.3275 -0.2572
 9379TIP3    H152332   3.179   4.662  10.784 -0.2671  0.3926  1.3953
 9379TIP3    H252333   3.289   4.695  10.685 -1.7867 -0.6672 -0.7178
 9380TIP3   OH252334   2.670   6.328  10.193  0.2895 -0.6134  0.0389
 9380TIP3    H152335   2.713   6.377  10.122 -1.1930 -0.5406 -0.8597
 9380TIP3    H252336   2.634   6.251  10.150 -1.0286 -0.3425  0.6169
 9381TIP3   OH252337   1.538   4.795  12.429 -0.0374 -0.6008  0.1709
 9381TIP3    H152338   1.522   4.832  12.342  1.2152  0.9771  0.5740
 9381TIP3    H252339   1.458   4.815  12.478  0.1458  0.5629  0.0286
 9382TIP3   OH252340   6.594   5.215   9.585 -0.3871 -0.1088 -0.3483
 9382TIP3    H152341   6.572   5.298   9.543  0.6286  0.3237 -0.0546
 9382TIP3    H252342   6.555   5.221   9.672  0.6401  0.5535  0.0833
 9383TIP3   OH252343   6.357   1.127  10.497  0.2622  0.2916  0.4258
 9383TIP3    H152344   6.440   1.081  10.483 -0.0620 -0.3633  0.5992
 9383TIP3    H252345   6.296   1.084  10.436 -0.3834 -0.4432  1.5494
 9384TIP3   OH252346   1.429   2.420   9.735 -0.1149  0.1875  0.0864
 9384TIP3    H152347   1.524   2.414   9.728 -0.1837  0.8651 -1.8094
 9384TIP3    H252348   1.398   2.331   9.719  0.2263 -0.3767  2.2656
 9385TIP3   OH252349   1.968   2.269  12.047  0.2730  0.3587 -0.0886
 9385TIP3    H152350   1.922   2.326  12.108 -0.5936  0.8148 -1.1426
 9385TIP3    H252351   1.909   2.260  11.972  1.5103  0.2251 -1.0915
 9386TIP3   OH252352   2.823   2.344  10.724  0.0767 -0.4899 -0.6567
 9386TIP3    H152353   2.734   2.380  10.726 -0.5954 -2.0642 -0.7252
 9386TIP3    H252354   2.810   2.249  10.723  1.7336 -0.7475 -2.0205
 9387TIP3   OH252355   2.399   2.705  12.070  0.1171 -0.1979  0.6528
 9387TIP3    H152356   2.334   2.752  12.018 -0.6699  0.8248  2.4594
 9387TIP3    H252357   2.450   2.655  12.006 -0.6114  1.1982 -1.1019
 9388TIP3   OH252358   2.288   1.298  10.955  0.2416 -0.1921 -0.0413
 9388TIP3    H152359   2.325   1.255  11.032 -0.8454  0.6507  0.9768
 9388TIP3    H252360   2.193   1.300  10.971 -0.0195 -0.0594 -1.4304
 9389TIP3   OH252361   2.468   2.506   9.883  0.1751 -0.0995  0.1231
 9389TIP3    H152362   2.555   2.475   9.909  0.8490 -0.4708 -2.3615
 9389TIP3    H252363   2.482   2.596   9.854 -0.1508 -0.3360 -0.7880
 9390TIP3   OH252364   1.387   5.101  11.376 -0.5375  0.2189  0.0355
 9390TIP3    H152365   1.457   5.164  11.392  0.0227 -0.6934  1.3330
 9390TIP3    H252366   1.330   5.109  11.452 -2.4101  1.5800 -1.3984
 9391TIP3   OH252367   1.472   0.455  12.020 -0.3636  0.2527  0.7095
 9391TIP3    H152368   1.536   0.392  11.988  0.1648  1.4133 -0.6519
 9391TIP3    H252369   1.458   0.431  12.112  2.6286  0.4224  1.2992
 9392TIP3   OH252370   4.361   5.515  12.174 -0.5292  0.1901  0.7406
 9392TIP3    H152371   4.340   5.507  12.267  1.0615  0.9230  1.2077
 9392TIP3    H252372   4.346   5.607  12.153 -0.7982  0.0485  0.2853
 9393TIP3   OH252373   3.487   1.815  12.356  0.1218  0.0830  0.1441
 9393TIP3    H152374   3.532   1.733  12.334  1.8766  1.1583 -0.4686
 9393TIP3    H252375   3.558   1.876  12.377 -0.8399  2.4878 -2.9040
 9394TIP3   OH252376   1.024   6.468  10.852  0.0814  0.3753 -0.3015
 9394TIP3    H152377   1.070   6.546  10.885  1.9186 -0.3611 -0.9606
 9394TIP3    H252378   1.043   6.468  10.758 -0.3929 -0.5433 -0.4031
 9395TIP3   OH252379   3.766   5.780  11.800  0.0515  0.0760 -0.1101
 9395TIP3    H152380   3.699   5.720  11.834  1.9788 -2.2896 -0.1774
 9395TIP3    H252381   3.799   5.737  11.721  0.9309  1.6892 -0.6676
 9396TIP3   OH252382   6.441   1.885  11.309 -0.2581 -0.1466  0.3825
 9396TIP3    H152383   6.524   1.838  11.300 -0.4961 -0.9134  1.8299
 9396TIP3    H252384   6.377   1.830  11.265 -0.5281 -1.2234  2.0376
 9397TIP3   OH252385   5.151   0.571  11.547  0.3277  0.3503  0.1348
 9397TIP3    H152386   5.150   0.476  11.534 -1.2711  0.3743 -0.1072
 9397TIP3    H252387   5.243   0.595  11.539  0.5622 -0.9226 -1.7000
 9398TIP3   OH252388   1.930   0.583  11.687 -0.0402  0.2619  0.0105
 9398TIP3    H152389   1.895   0.633  11.614  2.1643  1.7341 -0.1155
 9398TIP3    H252390   1.888   0.620  11.764 -0.8565  0.0735 -0.3337
 9399TIP3   OH252391   0.998   3.394  10.176 -0.9807 -0.1424 -0.6421
 9399TIP3    H152392   0.983   3.486  10.154  1.2873  0.0390 -1.7940
 9399TIP3    H252393   0.981   3.347  10.094 -0.3607 -0.4951 -0.5774
 9400TIP3   OH252394   2.773   0.572  10.309  0.0073 -0.6024  0.7626
 9400TIP3    H152395   2.739   0.497  10.359  0.1721 -0.3505  1.2628
 9400TIP3    H252396   2.710   0.584  10.239 -1.5087  0.4573  2.2281
 9401TIP3   OH252397   6.364   4.934  11.813  0.1975  0.0816  0.0263
 9401TIP3    H152398   6.422   4.896  11.880  0.0868  0.3248  0.2626
 9401TIP3    H252399   6.411   5.011  11.782  0.6756 -0.5544 -0.8561
 9402TIP3   OH252400   1.982   3.284  11.490 -0.4832  0.4171 -0.2046
 9402TIP3    H152401   2.046   3.305  11.422 -0.0940  1.0668  0.3471
 9402TIP3    H252402   1.994   3.352  11.556 -1.2661  0.1420  0.2397
 9403TIP3   OH252403   3.118   4.346  10.656  0.8761  0.3019 -0.1720
 9403TIP3    H152404   3.089   4.411  10.720 -0.3077 -1.6991  1.4676
 9403TIP3    H252405   3.210   4.367  10.640  0.8458  1.6612  1.1893
 9404TIP3   OH252406   1.568   0.987  10.597 -0.0608  0.0170 -0.4607
 9404TIP3    H152407   1.554   1.047  10.524 -1.9054  0.4193  0.1656
 9404TIP3    H252408   1.597   0.906  10.556 -0.7367  0.3296 -1.6124
 9405TIP3   OH252409   6.620   5.949  11.542 -0.3207  0.2891 -0.5365
 9405TIP3    H152410   6.542   6.003  11.525 -1.0771 -0.1910  1.2167
 9405TIP3    H252411   6.672   6.000  11.604 -1.1189 -0.9882  1.2704
 9406TIP3   OH252412   6.585   4.567  10.856 -0.1476  0.7057  0.1292
 9406TIP3    H152413   6.571   4.475  10.832 -0.2976  0.6804  0.3122
 9406TIP3    H252414   6.596   4.565  10.951  1.7006  0.6503 -0.0544
 9407TIP3   OH252415   5.074   6.607  11.080  0.3012  0.1072 -0.5040
 9407TIP3    H152416   5.020   6.672  11.036 -1.7372 -1.9649 -1.2331
 9407TIP3    H252417   5.077   6.636  11.172 -0.9464  0.9780 -0.7199
 9408TIP3   OH252418   5.602   3.920  10.601  0.1525 -0.1936 -0.3841
 9408TIP3    H152419   5.629   4.009  10.576 -0.0810 -0.3939 -1.3649
 9408TIP3    H252420   5.640   3.864  10.534  0.3370 -0.8493  0.2586
 9409TIP3   OH252421   3.232   1.064  10.697 -0.1407  0.0104 -0.9706
 9409TIP3    H152422   3.241   1.110  10.614 -1.2467 -2.1903 -2.4408
 9409TIP3    H252423   3.281   0.982  10.685 -0.5237 -0.4679  0.4473
 9410TIP3   OH252424   0.708   6.532   9.926  0.1438 -0.0257  0.0019
 9410TIP3    H152425   0.718   6.620   9.962  1.0801  0.5030 -1.4376
 9410TIP3    H252426   0.693   6.547   9.832  0.6843 -1.3949 -0.3246
 9411TIP3   OH252427   0.200   5.513   9.435  0.5109  0.3517 -0.0398
 9411TIP3    H152428   0.139   5.499   9.362 -1.1740  1.0106  1.1836
 9411TIP3    H252429   0.242   5.428   9.447 -1.2010 -0.5320 -0.0322
 9412TIP3   OH252430   5.080   3.695   9.724  0.1413  0.1906 -0.1412
 9412TIP3    H152431   5.102   3.610   9.763  1.3513 -1.3224 -3.7455
 9412TIP3    H252432   5.163   3.741   9.718  0.1160  0.0786 -1.5348
 9413TIP3   OH252433   4.761   4.514  10.248  0.1442  0.1976 -0.6612
 9413TIP3    H152434   4.800   4.546  10.329 -1.3385  0.6793 -0.1100
 9413TIP3    H252435   4.836   4.488  10.194  1.1494 -1.6543  1.4445
 9414TIP3   OH252436   0.008   4.670  10.481 -0.0884 -0.0204  0.2135
 9414TIP3    H152437   0.000   4.765  10.474  1.5269  0.3051  1.8975
 9414TIP3    H252438   0.093   4.650  10.440 -0.7475 -0.8486 -0.7798
 9415TIP3   OH252439   4.623   2.494  10.289 -0.5158 -0.5484 -0.2734
 9415TIP3    H152440   4.601   2.565  10.228  0.6247 -0.7512 -0.9527
 9415TIP3    H252441   4.660   2.426  10.233  0.8939 -0.5958  0.6849
 9416TIP3   OH252442   4.852   0.096  10.140  0.0385  0.4499  0.0943
 9416TIP3    H152443   4.907   0.168  10.108 -0.6755  1.2520  0.6185
 9416TIP3    H252444   4.870   0.093  10.234 -0.5948  0.5345  0.2205
 9417TIP3   OH252445   3.752   4.034  11.964  0.2060 -0.3502 -0.0226
 9417TIP3    H152446   3.771   3.987  12.046 -1.1280 -0.9456 -0.0243
 9417TIP3    H252447   3.708   4.114  11.992  3.1330  1.3702  0.0249
 9418TIP3   OH252448   6.574   3.168  11.211 -0.0901  0.3272  0.2084
 9418TIP3    H152449   6.594   3.256  11.243  0.7049  0.1811  0.1335
 9418TIP3    H252450   6.651   3.143  11.160 -0.8086  0.0610 -0.7914
 9419TIP3   OH252451   0.542   2.053  10.816 -0.7579 -0.1873  0.3016
 9419TIP3    H152452   0.514   1.968  10.851  0.4779 -0.4138  0.7827
 9419TIP3    H252453   0.601   2.032  10.745  0.3981  0.2379  1.1045
 9420TIP3   OH252454   2.015   0.045  12.408 -0.0911 -0.6629  0.5693
 9420TIP3    H152455   1.983   0.001  12.330 -0.5119  0.3563  0.1480
 9420TIP3    H252456   2.110   0.038  12.403 -0.1697 -2.6807  1.2201
 9421TIP3   OH252457   3.930   1.982   9.623  0.1550 -0.0800 -0.5806
 9421TIP3    H152458   3.907   2.048   9.688  0.1691  2.5642 -3.0521
 9421TIP3    H252459   3.847   1.943   9.597 -0.1232  0.5717 -0.6718
 9422TIP3   OH252460   6.284   5.357  10.237 -0.5068 -0.0176  0.1214
 9422TIP3    H152461   6.234   5.385  10.161 -2.4476 -0.8125  1.0198
 9422TIP3    H252462   6.354   5.302  10.202  0.3219  1.8102 -1.2448
 9423TIP3   OH252463   3.352   5.655  12.288 -1.0302  0.3623 -0.3827
 9423TIP3    H152464   3.275   5.614  12.327  0.2380 -0.0263  1.9081
 9423TIP3    H252465   3.373   5.728  12.347  1.1134 -0.3854 -0.1368
 9424TIP3   OH252466   1.318   4.921  12.014  0.0853  0.2117  0.0887
 9424TIP3    H152467   1.395   4.876  11.978  0.1183  0.7809 -0.5624
 9424TIP3    H252468   1.250   4.909  11.947 -0.7905 -1.3337  1.1807
 9425TIP3   OH252469   6.110   4.183  11.556 -0.4682  0.2995  0.0412
 9425TIP3    H152470   6.085   4.094  11.580 -0.1464  0.2200  0.0965
 9425TIP3    H252471   6.084   4.192  11.465  0.6953 -0.3203 -0.3817
 9426TIP3   OH252472   3.552   5.991  10.783 -0.0233 -0.1122 -0.2198
 9426TIP3    H152473   3.615   6.061  10.765 -0.0719  0.1468  0.6015
 9426TIP3    H252474   3.473   6.036  10.813 -0.2039 -0.4963 -0.1106
 9427TIP3   OH252475   0.654   5.215  12.416 -0.0098 -0.0854  0.4613
 9427TIP3    H152476   0.602   5.278  12.367  2.6408  2.2854  0.4405
 9427TIP3    H252477   0.591   5.152  12.449 -2.6186  1.6225 -0.9334
 9428TIP3   OH252478   4.112   4.636  12.557 -0.0547  0.0359 -0.2268
 9428TIP3    H152479   4.105   4.557  12.505 -0.4295 -0.6077  0.7624
 9428TIP3    H252480   4.180   4.617  12.621 -1.0932 -0.0278  0.9008
 9429TIP3   OH252481   3.332   2.052   9.608  0.2483  0.1406 -0.6241
 9429TIP3    H152482   3.372   2.136   9.628  0.6586  0.0250 -0.9570
 9429TIP3    H252483   3.240   2.063   9.632  0.1899  0.8513 -1.1718
 9430TIP3   OH252484   4.935   1.902  12.822 -0.0993 -0.2403  0.1659
 9430TIP3    H152485   4.987   1.922  12.745 -0.7600 -1.0330 -0.4966
 9430TIP3    H252486   4.993   1.850  12.878  0.2407 -0.0216  0.0156
 9431TIP3   OH252487   4.831   3.785  10.560  0.2617 -0.3710  0.4573
 9431TIP3    H152488   4.760   3.803  10.621  0.5425 -1.2547  1.0676
 9431TIP3    H252489   4.911   3.789  10.613  0.7838  1.5223 -0.3966
 9432TIP3   OH252490   5.279   5.422  12.534 -0.5218  0.3822  0.0072
 9432TIP3    H152491   5.261   5.498  12.589 -1.0985 -1.3488  2.4129
 9432TIP3    H252492   5.369   5.398  12.556 -0.9354 -0.6418  0.6363
 9433TIP3   OH252493   3.718   1.194  10.376  0.4179  0.3922 -0.0395
 9433TIP3    H152494   3.743   1.125  10.437  1.5032 -1.9528 -2.8880
 9433TIP3    H252495   3.645   1.157  10.326  0.4665  1.6316 -1.0920
 9434TIP3   OH252496   1.906   0.818   9.547 -0.1082  0.3307  0.4889
 9434TIP3    H152497   1.927   0.726   9.564 -0.2196  0.1340 -0.3874
 9434TIP3    H252498   1.987   0.865   9.564 -0.0240  0.0567  0.8450
 9435TIP3   OH252499   0.207   0.802  11.715 -0.8492 -0.5333  0.0451
 9435TIP3    H152500   0.126   0.836  11.752 -2.1161  1.0445 -3.6451
 9435TIP3    H252501   0.242   0.875  11.664  1.3141 -2.0968 -0.8529
 9436TIP3   OH252502   0.780   1.269  10.105  0.2930  0.0206 -0.4352
 9436TIP3    H152503   0.813   1.233  10.023 -1.5963 -2.1775 -0.3284
 9436TIP3    H252504   0.685   1.272  10.094  0.1753  3.0149  0.4472
 9437TIP3   OH252505   3.962   5.194  12.416 -0.1520 -0.2601  0.0847
 9437TIP3    H152506   3.973   5.112  12.464 -1.6018  0.0066  0.9269
 9437TIP3    H252507   4.015   5.182  12.337 -0.8474 -2.2863 -0.1383
 9438TIP3   OH252508   1.443   0.050  12.693 -0.0324 -0.5611  1.2311
 9438TIP3    H152509   1.497   0.126  12.713 -0.0561 -0.6142  1.4985
 9438TIP3    H252510   1.489   0.005  12.622 -0.5660  0.2882  0.3204
 9439TIP3   OH252511   3.284   3.810  11.438  0.3850 -0.1754  0.2246
 9439TIP3    H152512   3.239   3.728  11.416 -1.5611  0.5144  1.3797
 9439TIP3    H252513   3.373   3.783  11.461  0.4330 -1.6842 -1.4627
 9440TIP3   OH252514   0.085   1.827  12.118  0.1950 -0.3634  0.4093
 9440TIP3    H152515   0.102   1.733  12.108  1.6478 -0.1105  0.3069
 9440TIP3    H252516   0.070   1.838  12.212 -2.3516 -1.0203  0.1556
 9441TIP3   OH252517   1.494   5.331  11.486  0.1633 -0.0168  0.3663
 9441TIP3    H152518   1.404   5.327  11.518  0.4243 -1.3891  1.0031
 9441TIP3    H252519   1.544   5.367  11.559  0.1409  0.7390  0.0146
 9442TIP3   OH252520   4.061   1.283  11.888  0.2591  0.3426 -0.0934
 9442TIP3    H152521   4.062   1.340  11.812 -0.5842  0.9151  0.3154
 9442TIP3    H252522   4.139   1.228  11.877  0.8420  1.2581 -0.7157
 9443TIP3   OH252523   3.679   6.035  12.190 -0.5766 -0.0371  0.1818
 9443TIP3    H152524   3.688   6.130  12.195  1.7692 -0.0405 -1.8257
 9443TIP3    H252525   3.683   6.006  12.281  1.5699  1.6424  0.7189
 9444TIP3   OH252526   2.247   6.561  11.078 -0.1565  0.0349  0.3149
 9444TIP3    H152527   2.225   6.649  11.109  1.7470  0.5981  0.2081
 9444TIP3    H252528   2.302   6.525  11.148  0.6899 -0.3110 -0.5175
 9445TIP3   OH252529   3.698   5.022  12.425  0.5839  0.2230 -0.0483
 9445TIP3    H152530   3.770   4.960  12.413  0.6502  0.4268 -0.7471
 9445TIP3    H252531   3.619   4.970  12.416  0.6365  0.3208 -1.1131
 9446TIP3   OH252532   5.917   0.562   9.939 -0.1490 -0.6539 -0.2442
 9446TIP3    H152533   5.909   0.469   9.959  1.6017 -1.2090 -1.7776
 9446TIP3    H252534   6.011   0.576   9.929 -0.5035  0.6685 -2.5749
 9447TIP3   OH252535   2.442   4.690  11.065  0.0639  0.3121  0.4470
 9447TIP3    H152536   2.496   4.721  11.138  0.1454 -1.3313  1.1306
 9447TIP3    H252537   2.497   4.624  11.022 -1.3524 -1.4142  1.1735
 9448TIP3   OH252538   2.139   2.153  10.139  0.0302  0.8408  0.1496
 9448TIP3    H152539   2.223   2.196  10.125  0.2358  0.1983 -0.6835
 9448TIP3    H252540   2.085   2.219  10.181  0.7094  1.5224 -0.0276
 9449TIP3   OH252541   0.372   3.474  10.570 -0.3755  0.1214  0.0753
 9449TIP3    H152542   0.462   3.460  10.543 -0.1846  1.6677 -0.2136
 9449TIP3    H252543   0.321   3.412  10.519  0.3432  0.5337 -1.1854
 9450TIP3   OH252544   1.608   5.934  11.482 -0.7957 -0.1930  0.0520
 9450TIP3    H152545   1.550   5.868  11.446 -1.9557  1.3878 -1.0735
 9450TIP3    H252546   1.567   5.959  11.565  0.8614 -2.4328  1.6996
 9451TIP3   OH252547   0.590   5.129   9.535 -0.1058  0.3238  0.0935
 9451TIP3    H152548   0.611   5.079   9.456  0.4505  0.7496 -0.0314
 9451TIP3    H252549   0.564   5.063   9.599  1.7553 -0.2483  0.3012
 9452TIP3   OH252550   2.891   5.652   9.561 -0.1230  0.0025  0.0176
 9452TIP3    H152551   2.825   5.697   9.508  0.5657  1.6926  0.5086
 9452TIP3    H252552   2.844   5.625   9.640  0.0099  2.6142  1.0979
 9453TIP3   OH252553   1.031   4.025   9.568  0.0607 -0.2152 -0.9179
 9453TIP3    H152554   1.094   3.953   9.575  0.5388  0.1557 -1.3418
 9453TIP3    H252555   1.084   4.101   9.545 -0.2596  0.5573  0.7101
 9454TIP3   OH252556   5.180   4.389  11.511  0.3416 -0.5000 -0.4168
 9454TIP3    H152557   5.203   4.299  11.485  1.3504 -0.4539  0.2894
 9454TIP3    H252558   5.261   4.425  11.546 -0.2221  0.4889 -0.1181
 9455TIP3   OH252559   4.209   5.521  10.122 -0.1651 -0.1404  0.4957
 9455TIP3    H152560   4.132   5.577  10.132  0.4888  0.8910 -0.1162
 9455TIP3    H252561   4.281   5.581  10.103  0.7422 -1.1146  0.7370
 9456TIP3   OH252562   2.682   1.989  12.576  0.0592 -0.4185  0.1304
 9456TIP3    H152563   2.629   1.914  12.600  0.5546 -0.9882 -0.4964
 9456TIP3    H252564   2.621   2.051  12.537 -0.3099 -0.6137  0.3990
 9457TIP3   OH252565   1.469   6.445  12.415 -0.0636 -0.1622  0.0590
 9457TIP3    H152566   1.391   6.409  12.374  0.6147 -0.4806 -0.9811
 9457TIP3    H252567   1.436   6.512  12.476 -1.1125 -0.0719 -0.5980
 9458TIP3   OH252568   3.398   4.573  12.436  0.3006  0.4570 -0.0513
 9458TIP3    H152569   3.360   4.538  12.516 -2.0389  0.6451 -0.9905
 9458TIP3    H252570   3.323   4.587  12.378  1.8448  0.8585 -2.0770
 9459TIP3   OH252571   4.347   4.505  12.250 -0.5772  0.1529  0.2619
 9459TIP3    H152572   4.316   4.424  12.291 -1.2346 -0.4614 -1.3673
 9459TIP3    H252573   4.410   4.540  12.312 -0.2065 -1.6639  0.9863
 9460TIP3   OH252574   2.846   1.437  10.804 -0.2272  0.2468 -0.5089
 9460TIP3    H152575   2.848   1.492  10.725  0.8222  0.4970 -0.3246
 9460TIP3    H252576   2.839   1.500  10.876 -0.3097  0.0717 -0.3657
 9461TIP3   OH252577   5.078   4.254  10.397  0.3210 -0.1755 -0.4263
 9461TIP3    H152578   5.089   4.349  10.401  1.6453 -0.3727  1.2640
 9461TIP3    H252579   5.000   4.236  10.450  1.3152 -0.2008  1.0611
 9462TIP3   OH252580   0.105   1.440  10.243 -0.1357  0.1811 -0.1562
 9462TIP3    H152581   0.047   1.433  10.318 -1.2121 -1.7749 -1.1001
 9462TIP3    H252582   0.188   1.404  10.273 -0.4905 -0.3821  0.1679
 9463TIP3   OH252583   0.158   2.636  12.140  0.1313  0.5558 -0.2854
 9463TIP3    H152584   0.131   2.713  12.091  0.8235  0.7967 -0.2912
 9463TIP3    H252585   0.236   2.664  12.188 -0.9516  0.5829  1.5821
 9464TIP3   OH252586   0.247   5.071  10.555 -0.3910 -0.0679 -0.5448
 9464TIP3    H152587   0.224   5.161  10.578 -0.6320 -0.5097  1.0814
 9464TIP3    H252588   0.291   5.037  10.633 -0.7089 -1.5018 -0.9602
 9465TIP3   OH252589   5.814   0.847  11.909 -0.1775 -0.3182 -0.1095
 9465TIP3    H152590   5.866   0.852  11.828 -1.2108  0.6282 -0.7429
 9465TIP3    H252591   5.874   0.808  11.973  1.9809  2.3232 -0.3311
 9466TIP3   OH252592   0.215   2.687  10.265  0.1081  0.6049  0.1583
 9466TIP3    H152593   0.157   2.684  10.189 -0.0821  2.0232  0.2287
 9466TIP3    H252594   0.215   2.778  10.292  2.0271  0.5691  0.4399
 9467TIP3   OH252595   3.485   2.258  10.907 -0.1173 -0.5128 -0.2873
 9467TIP3    H152596   3.461   2.259  11.000 -0.1475 -2.1064 -0.2394
 9467TIP3    H252597   3.580   2.259  10.907 -0.1100 -0.9216 -0.2114
 9468TIP3   OH252598   1.536   5.597  12.624  0.5274  0.0746  0.0232
 9468TIP3    H152599   1.567   5.510  12.597  0.6271  0.8386 -2.5930
 9468TIP3    H252600   1.457   5.579  12.676  1.0276 -1.5846  0.2797
 9469TIP3   OH252601   2.100   4.712  11.969  0.4225  0.2688 -0.0203
 9469TIP3    H152602   2.171   4.742  11.912  0.6142 -1.7088 -0.8651
 9469TIP3    H252603   2.145   4.662  12.038  0.1173  1.9355  1.4640
 9470TIP3   OH252604   5.449   0.964   9.276  0.2564  0.7697  0.3084
 9470TIP3    H152605   5.457   0.916   9.194  0.0223 -1.5114  1.5505
 9470TIP3    H252606   5.535   1.002   9.291  0.2160  1.4677 -1.1097
 9471TIP3   OH252607   2.921   3.697  12.962 -0.4121  0.1025 -0.3785
 9471TIP3    H152608   2.952   3.678  13.050 -2.8400 -0.2835  0.4653
 9471TIP3    H252609   2.926   3.793  12.955 -0.1898  0.1367  0.1587
 9472TIP3   OH252610   6.498   1.883  12.098  0.0512  0.0167  0.1234
 9472TIP3    H152611   6.594   1.879  12.096  0.0076 -2.3417  0.1548
 9472TIP3    H252612   6.470   1.838  12.018 -1.0521  0.5444  0.1904
 9473TIP3   OH252613   0.389   0.752   9.771 -0.1204  0.2323 -0.0227
 9473TIP3    H152614   0.347   0.791   9.695 -0.6515  0.1685  0.2296
 9473TIP3    H252615   0.426   0.669   9.740  0.6104  0.7152 -0.4546
 9474TIP3   OH252616   0.832   6.419   9.588  0.2715  0.1376 -0.1884
 9474TIP3    H152617   0.919   6.455   9.607 -0.0976  1.3066 -0.6518
 9474TIP3    H252618   0.817   6.439   9.496  0.5137 -2.2516 -0.7998
 9475TIP3   OH252619   6.075   6.099  10.202 -0.0661  0.1237  0.6729
 9475TIP3    H152620   6.085   6.009  10.233  0.4948 -1.3240 -3.1923
 9475TIP3    H252621   6.029   6.091  10.119  2.2735  3.0839 -1.1138
 9476TIP3   OH252622   3.372   4.120   9.930  0.3350 -0.5455 -0.2923
 9476TIP3    H152623   3.411   4.181   9.867  1.2465 -0.3721  0.4282
 9476TIP3    H252624   3.419   4.038   9.916 -0.9466 -1.1581 -1.3212
 9477TIP3   OH252625   4.123   6.546  10.285 -0.3516 -0.1968  0.3893
 9477TIP3    H152626   4.079   6.464  10.307  0.3162 -1.0651 -1.3499
 9477TIP3    H252627   4.052   6.610  10.281 -1.2698 -1.2186 -0.6757
 9478TIP3   OH252628   1.126   0.173   9.727  0.2048 -0.0218 -0.1106
 9478TIP3    H152629   1.060   0.229   9.686 -0.7870  0.1950  1.6938
 9478TIP3    H252630   1.183   0.234   9.774 -0.2910 -0.4313  1.0470
 9479TIP3   OH252631   5.623   0.395  12.592 -0.3805 -0.0137  0.1875
 9479TIP3    H152632   5.540   0.349  12.582 -2.0891  3.4235 -3.6890
 9479TIP3    H252633   5.605   0.463  12.656 -0.3136  0.2759 -0.1028
 9480TIP3   OH252634   1.928   4.198   9.585  0.1712  0.3081  0.3354
 9480TIP3    H152635   1.955   4.224   9.673  0.0502  2.2092 -0.1535
 9480TIP3    H252636   2.010   4.187   9.537  0.2088  0.2455  0.4130
 9481TIP3   OH252637   4.319   2.791  10.564 -0.5139  0.0896 -0.4378
 9481TIP3    H152638   4.228   2.806  10.538 -0.4466  2.3045  0.3614
 9481TIP3    H252639   4.320   2.806  10.659  0.6992  0.3073 -0.4615
 9482TIP3   OH252640   1.183   4.513  11.363 -0.0435 -0.3696 -0.0305
 9482TIP3    H152641   1.230   4.499  11.281  1.9233  0.3706  0.9200
 9482TIP3    H252642   1.110   4.569  11.339  2.4834  2.8951 -0.8033
 9483TIP3   OH252643   3.099   4.649  11.755 -0.8653 -0.2756  0.1059
 9483TIP3    H152644   3.190   4.645  11.782 -0.3441  1.2482 -1.2419
 9483TIP3    H252645   3.089   4.579  11.691 -0.7193 -0.6114  0.4489
 9484TIP3   OH252646   3.188   4.367  13.283 -0.0928  0.2634 -0.3756
 9484TIP3    H152647   3.160   4.360  13.374  0.7648  0.0275 -0.1171
 9484TIP3    H252648   3.146   4.293  13.239 -0.9910  0.7259 -0.3098
 9485TIP3   OH252649   3.893   0.526  10.126  0.2775  0.2613 -0.1674
 9485TIP3    H152650   3.882   0.432  10.139  0.0074  0.0881 -1.4982
 9485TIP3    H252651   3.885   0.563  10.213  0.4696 -0.9570  0.3907
 9486TIP3   OH252652   4.697   4.301  11.631  0.2564 -0.3811 -0.3813
 9486TIP3    H152653   4.695   4.272  11.540 -1.1709 -0.4900 -0.3331
 9486TIP3    H252654   4.713   4.222  11.682  0.8725 -0.3470 -0.5083
 9487TIP3   OH252655   5.613   3.177  10.961 -0.3898 -0.5242 -0.1848
 9487TIP3    H152656   5.665   3.165  11.040  2.6590  0.6521 -1.8303
 9487TIP3    H252657   5.606   3.271  10.951 -2.7430 -0.6586 -0.1655
 9488TIP3   OH252658   3.637   0.789  10.533 -0.1254 -0.3941  0.0977
 9488TIP3    H152659   3.674   0.779  10.621 -0.3216  2.9343  0.6975
 9488TIP3    H252660   3.548   0.821  10.548  0.0729  0.9112 -1.3035
 9489TIP3   OH252661   4.681   6.468  10.820 -0.9018  0.0460 -0.0000
 9489TIP3    H152662   4.633   6.426  10.891 -0.8767  2.5513  1.6341
 9489TIP3    H252663   4.772   6.440  10.833 -1.3019 -1.8637 -0.9337
 9490TIP3   OH252664   0.872   3.817   9.823  0.3188  0.1243  0.0641
 9490TIP3    H152665   0.856   3.821   9.729 -1.1745  0.6417  0.3251
 9490TIP3    H252666   0.923   3.736   9.835 -0.4328 -0.5396 -1.0528
 9491TIP3   OH252667   4.603   2.023  10.041  0.2212 -0.3146 -0.3378
 9491TIP3    H152668   4.602   2.107   9.995 -1.3626 -0.0670  0.1080
 9491TIP3    H252669   4.559   1.962   9.982 -0.9540 -0.2153  0.4044
 9492TIP3   OH252670   6.524   2.414  10.038 -0.0574  0.3710  0.4368
 9492TIP3    H152671   6.619   2.422  10.051 -0.1066  1.6744  0.1565
 9492TIP3    H252672   6.515   2.366   9.956  0.3659  0.2123  0.4811
 9493TIP3   OH252673   0.876   2.688  12.701  0.1686 -0.4256  1.1198
 9493TIP3    H152674   0.932   2.658  12.629 -1.6308 -2.3808  0.4215
 9493TIP3    H252675   0.921   2.657  12.780 -0.9148 -4.0631  0.4847
 9494TIP3   OH252676   1.500   1.175  10.422 -0.1081 -0.5973 -0.2359
 9494TIP3    H152677   1.448   1.247  10.457  1.0931  0.7658 -1.1320
 9494TIP3    H252678   1.545   1.213  10.346 -0.9004 -2.8214 -1.9244
 9495TIP3   OH252679   3.246   0.063  10.131  0.2848  0.0008  0.0899
 9495TIP3    H152680   3.181   0.119  10.089 -0.9109 -1.3694  0.0103
 9495TIP3    H252681   3.236   0.080  10.225  0.3443  0.3500  0.0328
 9496TIP3   OH252682   2.510   0.777  11.951 -0.4294 -0.1631  0.0728
 9496TIP3    H152683   2.440   0.802  12.011 -0.8313  1.1571 -0.9137
 9496TIP3    H252684   2.505   0.840  11.880  0.9047 -0.8742 -0.6950
 9497TIP3   OH252685   2.211   3.916  10.737  0.1469  0.2868 -0.4033
 9497TIP3    H152686   2.219   3.821  10.731 -1.9750  0.0803 -0.7574
 9497TIP3    H252687   2.177   3.943  10.652 -1.2821  1.0899  0.3905
 9498TIP3   OH252688   4.864   0.879  11.744  0.7900 -0.3204 -0.0164
 9498TIP3    H152689   4.798   0.926  11.694  0.4815 -0.6655  0.0615
 9498TIP3    H252690   4.840   0.894  11.835  1.4181  0.4051  0.0439
 9499TIP3   OH252691   6.380   3.089  10.678  0.3820  0.0180 -0.7080
 9499TIP3    H152692   6.453   3.133  10.721  0.9030  0.0843 -1.6247
 9499TIP3    H252693   6.346   3.154  10.616 -0.2970 -0.0983 -0.4628
 9500TIP3   OH252694   0.361   4.701  10.283  0.8772 -0.1444  0.1381
 9500TIP3    H152695   0.354   4.790  10.247 -0.4028 -0.4399 -0.3681
 9500TIP3    H252696   0.401   4.650  10.212  0.3121 -0.2704 -0.0932
 9501TIP3   OH252697   0.299   5.460  10.217 -0.2808  0.0108  0.0426
 9501TIP3    H152698   0.221   5.484  10.268  0.3953  1.0919  0.6036
 9501TIP3    H252699   0.265   5.441  10.129 -1.0650  1.6782 -0.0588
 9502TIP3   OH252700   4.839   4.001   9.957  0.4349  0.0315 -0.4378
 9502TIP3    H152701   4.859   3.910   9.934 -0.2590 -0.5203  1.0071
 9502TIP3    H252702   4.892   4.017  10.036 -0.3830  0.4635  0.0280
 9503TIP3   OH252703   6.643   1.764  11.010 -0.1267  0.3444 -0.3235
 9503TIP3    H152704   6.605   1.824  10.946 -1.2734  0.8825  0.8316
 9503TIP3    H252705   6.641   1.679  10.967 -1.8449  0.5155 -0.6444
 9504TIP3   OH252706   4.430   4.628  10.718  0.1351 -0.3065  0.1503
 9504TIP3    H152707   4.456   4.634  10.810  1.4051  0.3884 -0.2335
 9504TIP3    H252708   4.335   4.625  10.720  0.1583 -1.2769  1.5367
 9505TIP3   OH252709   1.275   6.598  10.315 -0.1793 -0.0373 -0.0764
 9505TIP3    H152710   1.200   6.555  10.274  0.5785 -1.1513 -0.3361
 9505TIP3    H252711   1.308   6.658  10.249  1.5694 -2.4449 -1.5351
 9506TIP3   OH252712   4.142   5.279  10.398 -0.1130  0.2163  0.1256
 9506TIP3    H152713   4.181   5.233  10.324  0.3829  0.5164  0.2015
 9506TIP3    H252714   4.061   5.317  10.363 -1.1172 -1.6392  0.3414
 9507TIP3   OH252715   1.805   1.258  10.516 -0.0197  0.3549 -0.1560
 9507TIP3    H152716   1.712   1.282  10.522 -0.0700  0.8143 -2.0798
 9507TIP3    H252717   1.805   1.180  10.460  0.8457  1.3072 -1.5421
 9508TIP3   OH252718   5.545   2.454  10.316  0.3303  0.5899 -0.0170
 9508TIP3    H152719   5.585   2.370  10.338 -1.7858 -0.4920  0.0169
 9508TIP3    H252720   5.603   2.493  10.251  0.6195 -1.6233 -1.1713
 9509TIP3   OH252721   4.220   0.129  12.871 -0.2397  0.0409  0.4416
 9509TIP3    H152722   4.129   0.157  12.872 -0.5623 -0.9756  1.1240
 9509TIP3    H252723   4.249   0.138  12.962  0.8000  1.7080  0.0066
 9510TIP3   OH252724   3.039   0.350  11.629 -0.0458 -0.1174  0.4091
 9510TIP3    H152725   2.944   0.350  11.624 -0.2740 -1.9188  2.8653
 9510TIP3    H252726   3.068   0.340  11.538 -2.1984 -0.3741 -0.3030
 9511TIP3   OH252727   0.649   2.656  10.133 -0.1115 -0.8044 -0.2613
 9511TIP3    H152728   0.639   2.648  10.038 -2.9317 -2.3098  0.0713
 9511TIP3    H252729   0.692   2.741  10.145 -1.1687  0.1964 -2.8089
 9512TIP3   OH252730   3.867   5.421  12.674 -0.1200 -0.3760 -0.1140
 9512TIP3    H152731   3.825   5.457  12.752 -1.6831  2.1933 -1.9929
 9512TIP3    H252732   3.851   5.327  12.679 -0.1003 -0.2931  2.6473
 9513TIP3   OH252733   0.440   6.650  11.048 -0.3934 -0.3464  0.0263
 9513TIP3    H152734   0.531   6.650  11.077 -0.5003  0.3189  0.3886
 9513TIP3    H252735   0.443   6.679  10.957 -0.1668 -1.2124 -0.2493
 9514TIP3   OH252736   4.038   5.557  10.737  0.5980  0.6660 -0.3944
 9514TIP3    H152737   4.123   5.525  10.768  0.6770  0.0421 -1.2232
 9514TIP3    H252738   3.983   5.557  10.816  1.0531  0.0159 -0.0584
 9515TIP3   OH252739   1.738   6.116  11.208 -0.6708 -0.3341  0.4676
 9515TIP3    H152740   1.655   6.096  11.164 -0.0488  0.0187 -0.8939
 9515TIP3    H252741   1.720   6.099  11.301 -1.9987 -1.1161  0.0915
 9516TIP3   OH252742   3.267   6.004  12.245 -0.6374  0.2637 -0.4778
 9516TIP3    H152743   3.204   6.048  12.302  0.7902  1.6032  0.1679
 9516TIP3    H252744   3.318   5.949  12.304  0.7345  1.5216 -0.4085
 9517TIP3   OH252745   1.351   4.219  11.429  0.1152  0.5393  0.4246
 9517TIP3    H152746   1.257   4.231  11.443 -0.0227 -0.8883  0.8450
 9517TIP3    H252747   1.391   4.255  11.509 -0.0799  1.0302  0.3031
 9518TIP3   OH252748   2.681   1.497   9.618 -0.3760 -0.5973 -0.1767
 9518TIP3    H152749   2.613   1.463   9.676  0.0768  0.6024  1.1055
 9518TIP3    H252750   2.761   1.456   9.649 -0.2312 -0.4947 -0.4156
 9519TIP3   OH252751   1.363   1.398  13.012 -0.2155  0.1158 -0.3179
 9519TIP3    H152752   1.284   1.407  12.959 -0.0347 -2.4362 -1.2044
 9519TIP3    H252753   1.421   1.342  12.959  2.5301  2.4567 -0.0395
 9520TIP3   OH252754   3.539   2.616  10.599  0.4860  0.6359 -0.1397
 9520TIP3    H152755   3.447   2.614  10.627  0.9537  1.8657  1.6977
 9520TIP3    H252756   3.581   2.548  10.650  0.7733  0.7181 -0.2666
 9521TIP3   OH252757   2.168   4.041  11.333  0.0249 -0.0632  0.1379
 9521TIP3    H152758   2.131   4.101  11.269  0.6502  2.5538  2.0355
 9521TIP3    H252759   2.262   4.043  11.316  0.0959 -0.1167  0.5075
 9522TIP3   OH252760   3.715   6.578  11.560 -0.5962  0.1913 -0.6082
 9522TIP3    H152761   3.762   6.495  11.568 -1.5880 -0.3762 -0.4149
 9522TIP3    H252762   3.770   6.641  11.606 -0.0944 -0.4853 -0.2576
 9523TIP3   OH252763   4.865   5.432  12.510 -0.2248  0.3879 -0.0989
 9523TIP3    H152764   4.881   5.357  12.453  0.6962  1.4953 -1.3967
 9523TIP3    H252765   4.895   5.404  12.596  2.3367 -0.0120 -1.0163
 9524TIP3   OH252766   3.509   5.074  11.838 -0.8445 -0.2677  0.1136
 9524TIP3    H152767   3.474   5.062  11.750  1.2452  0.3318 -0.8720
 9524TIP3    H252768   3.604   5.084  11.825 -0.4501 -0.3612  2.4513
 9525TIP3   OH252769   3.375   1.216  10.500 -0.1476 -0.3631 -0.5691
 9525TIP3    H152770   3.451   1.258  10.540 -0.9681  0.8889 -0.2721
 9525TIP3    H252771   3.405   1.190  10.413  0.5348  0.3598 -0.5597
 9526TIP3   OH252772   5.904   4.292  11.237  0.4724 -0.3335 -0.6846
 9526TIP3    H152773   5.917   4.368  11.180 -0.6652 -0.7639 -1.5459
 9526TIP3    H252774   5.989   4.248  11.237  0.8205  0.3151 -1.0982
 9527TIP3   OH252775   0.822   5.895  11.772 -0.0752 -0.2678 -0.4318
 9527TIP3    H152776   0.776   5.978  11.775 -2.3834 -1.4894 -0.2996
 9527TIP3    H252777   0.821   5.870  11.679  1.2229  0.1197 -0.5791
 9528TIP3   OH252778   1.561   2.814  13.016 -0.4565  0.0326 -0.1318
 9528TIP3    H152779   1.534   2.813  12.924 -1.1595 -1.6985  0.0447
 9528TIP3    H252780   1.649   2.851  13.016  0.9853 -3.0425 -1.9901
 9529TIP3   OH252781   5.339   5.991  11.732  0.2092 -0.5347 -0.1119
 9529TIP3    H152782   5.359   6.061  11.670 -1.7135 -0.1637 -0.3533
 9529TIP3    H252783   5.262   6.021  11.779  0.2351 -1.8506  0.8419
 9530TIP3   OH252784   6.210   4.180  13.178 -0.5270 -0.4082 -0.2900
 9530TIP3    H152785   6.229   4.127  13.256 -0.0524  1.3087  0.8237
 9530TIP3    H252786   6.234   4.124  13.104  2.8319 -0.7412  0.8738
 9531TIP3   OH252787   5.790   0.903  11.550  0.9838  0.3754 -0.3550
 9531TIP3    H152788   5.803   0.831  11.489  2.5763  1.1618 -0.9948
 9531TIP3    H252789   5.816   0.981  11.501 -2.3303  1.6787 -0.2835
 9532TIP3   OH252790   0.173   1.321   9.974  0.2526 -0.0804  0.0879
 9532TIP3    H152791   0.248   1.381   9.974  2.3128 -2.4549  0.8746
 9532TIP3    H252792   0.122   1.347  10.051  0.9632  0.8135  0.2796
 9533TIP3   OH252793   4.198   2.886  11.503 -0.1072 -1.0168 -0.6068
 9533TIP3    H152794   4.188   2.794  11.525 -0.1599 -0.8907 -0.1020
 9533TIP3    H252795   4.111   2.924  11.517  0.4246 -0.4303  1.3807
 9534TIP3   OH252796   5.219   2.319  10.684  0.0476 -0.4377 -0.6061
 9534TIP3    H152797   5.233   2.394  10.742 -1.2022  0.5211 -1.4701
 9534TIP3    H252798   5.149   2.269  10.724 -1.4542  0.7203 -1.6709
 9535TIP3   OH252799   4.217   4.926   9.802 -0.6362  0.0034 -0.0320
 9535TIP3    H152800   4.143   4.930   9.862  0.4262 -0.9833  1.4215
 9535TIP3    H252801   4.276   4.861   9.841  1.8048  1.9780 -0.1951
 9536TIP3   OH252802   1.425   1.530  10.905 -0.4816 -0.0066 -0.5678
 9536TIP3    H152803   1.521   1.535  10.911 -0.5525  0.5555  0.2967
 9536TIP3    H252804   1.401   1.598  10.842 -0.4630  1.6276  1.0862
 9537TIP3   OH252805   1.269   4.789  11.718  0.2617 -0.9198  0.2153
 9537TIP3    H152806   1.281   4.731  11.643 -0.6623  0.7992 -1.3509
 9537TIP3    H252807   1.239   4.731  11.789  1.1509 -2.5844 -0.7111
 9538TIP3   OH252808   4.985   2.156  10.385 -0.4420 -0.0714  0.0636
 9538TIP3    H152809   4.905   2.195  10.422 -1.6650 -1.4178 -1.0225
 9538TIP3    H252810   4.961   2.133  10.295  1.7602  1.1165 -0.8935
 9539TIP3   OH252811   1.010   1.610  12.567  0.1584  0.8530  0.1997
 9539TIP3    H152812   1.075   1.628  12.499  1.4726  0.1720  1.2148
 9539TIP3    H252813   0.975   1.696  12.590  0.1834  1.1589 -0.8588
 9540TIP3   OH252814   2.165   0.012  10.675 -0.1743 -0.2446  0.3865
 9540TIP3    H152815   2.089  -0.044  10.693 -0.2837 -0.5703 -0.9848
 9540TIP3    H252816   2.196  -0.016  10.589  1.2826  0.1522  0.7553
 9541TIP3   OH252817   6.487   4.306  12.153 -0.3848 -0.6948 -0.8422
 9541TIP3    H152818   6.509   4.354  12.073 -0.7415 -0.5789 -0.8699
 9541TIP3    H252819   6.418   4.357  12.194 -0.6673 -1.1099 -0.7952
 9542TIP3   OH252820   2.478   5.924  10.112 -0.0711  0.2615 -0.1956
 9542TIP3    H152821   2.562   5.961  10.139  0.2721  1.1214 -2.2811
 9542TIP3    H252822   2.421   6.000  10.099 -1.0475 -0.2862  0.6990
 9543TIP3   OH252823   5.886   1.835  11.875 -0.2911 -0.0587  0.2992
 9543TIP3    H152824   5.886   1.741  11.895 -1.7752  0.1827  1.6071
 9543TIP3    H252825   5.795   1.862  11.887 -0.3502  1.1335 -2.2442
 9544TIP3   OH252826   3.822   5.735   9.377  0.6527  0.1746  0.1615
 9544TIP3    H152827   3.861   5.648   9.367 -1.1042 -0.5004 -1.4341
 9544TIP3    H252828   3.820   5.770   9.288  0.1877  1.3369  0.6143
 9545TIP3   OH252829   3.268   3.955  11.184 -0.7396  0.6239 -0.5300
 9545TIP3    H152830   3.263   3.920  11.273 -1.2859  0.6452 -0.5493
 9545TIP3    H252831   3.361   3.958  11.164 -0.5153  2.0799  0.6049
 9546TIP3   OH252832   3.960   0.282  13.213  0.3624 -0.0952 -0.0657
 9546TIP3    H152833   4.054   0.299  13.208  0.2936  0.1272 -0.8882
 9546TIP3    H252834   3.948   0.200  13.165 -0.0222  0.6076 -1.2214
 9547TIP3   OH252835   0.461   3.955  10.984 -0.5208  0.3186  0.1956
 9547TIP3    H152836   0.534   3.904  11.019  1.1737  0.3586 -2.9661
 9547TIP3    H252837   0.484   4.046  11.003  0.5148  0.3583 -1.1246
 9548TIP3   OH252838   5.904   3.036  12.148 -0.0580  0.1124 -0.9033
 9548TIP3    H152839   5.955   3.097  12.094 -0.6717 -0.2914 -1.9583
 9548TIP3    H252840   5.818   3.033  12.107 -0.5030 -0.3271  0.0196
 9549TIP3   OH252841   2.142   1.685  10.541  0.4536  0.0766  0.0867
 9549TIP3    H152842   2.074   1.652  10.482  0.7395 -0.4319  0.0355
 9549TIP3    H252843   2.181   1.606  10.578  1.4762  0.3393 -0.3947
 9550TIP3   OH252844   0.467   3.099  10.709 -0.3101 -0.0725 -0.3448
 9550TIP3    H152845   0.480   3.166  10.776 -2.2875  0.3511 -0.3227
 9550TIP3    H252846   0.508   3.021  10.746  0.0190  0.5372  0.6435
 9551TIP3   OH252847   2.972   0.431  11.195 -0.0852  0.5101  0.1169
 9551TIP3    H152848   3.019   0.398  11.271  1.1798  0.5202 -0.6192
 9551TIP3    H252849   2.895   0.476  11.230 -1.2175 -2.0978  1.2284
 9552TIP3   OH252850   3.034   1.699  10.746  0.6840 -0.0183 -0.2479
 9552TIP3    H152851   3.125   1.726  10.755  0.4898  0.4679  0.2934
 9552TIP3    H252852   2.991   1.772  10.701  0.5393 -0.1987 -0.4042
 9553TIP3   OH252853   5.384   4.217  10.009 -0.2012 -0.2100 -0.5221
 9553TIP3    H152854   5.474   4.190   9.992  0.0396  0.4219 -0.2902
 9553TIP3    H252855   5.380   4.231  10.104 -1.1772 -2.4514 -0.1695
 9554TIP3   OH252856   6.242   4.333  10.857  0.5156 -0.2490  0.0889
 9554TIP3    H152857   6.317   4.290  10.898 -0.1022 -0.8636  0.6147
 9554TIP3    H252858   6.197   4.263  10.810  0.4141  0.1665 -0.4391
 9555TIP3   OH252859   2.510   3.987  12.005  0.0844  0.4131  0.1076
 9555TIP3    H152860   2.591   3.948  12.039 -0.6559 -1.9800 -0.6349
 9555TIP3    H252861   2.456   4.000  12.083  0.5636  0.4707  0.4378
 9556TIP3   OH252862   4.752   1.181  12.104 -0.2181  0.0197 -0.7583
 9556TIP3    H152863   4.754   1.183  12.008  1.6621  1.9363 -0.7614
 9556TIP3    H252864   4.712   1.264  12.129 -0.3309 -0.2894  0.1285
 9557TIP3   OH252865   0.341   5.515  11.547  0.4524  0.0609 -0.1754
 9557TIP3    H152866   0.343   5.585  11.612  0.4646  0.8523 -1.0156
 9557TIP3    H252867   0.254   5.477  11.555  0.4158  0.2230  0.2277
 9558TIP3   OH252868   0.700   3.315  12.339  0.6550  0.2507  0.0340
 9558TIP3    H152869   0.696   3.316  12.434 -0.3089  2.8359  0.0167
 9558TIP3    H252870   0.793   3.303  12.319  1.2568  2.2695  1.3729
 9559TIP3   OH252871   4.281   4.354  11.384  0.3135  0.5762 -0.3471
 9559TIP3    H152872   4.351   4.374  11.321  1.7223 -1.0070  0.6332
 9559TIP3    H252873   4.280   4.259  11.389 -0.2347  0.6479  1.4945
 9560TIP3   OH252874   5.209   2.318  12.230  0.5850 -0.3253  0.6171
 9560TIP3    H152875   5.231   2.367  12.151 -0.4381 -0.7944  0.0183
 9560TIP3    H252876   5.281   2.335  12.290  0.5077  1.4747  0.2434
 9561TIP3   OH252877   2.885   3.304  11.383 -0.5392 -0.5975  0.1010
 9561TIP3    H152878   2.939   3.364  11.331 -1.3636  0.1179  0.0576
 9561TIP3    H252879   2.806   3.291  11.332 -0.6984 -1.1301  0.4654
 9562TIP3   OH252880   1.816   3.070  11.720  0.2848 -0.0171  0.2741
 9562TIP3    H152881   1.792   3.132  11.651  1.9464  0.2727 -0.0925
 9562TIP3    H252882   1.763   2.993  11.702 -0.2333  0.5171 -0.5676
 9563TIP3   OH252883   2.443   4.469  11.999 -0.4558  0.0052  0.3646
 9563TIP3    H152884   2.534   4.445  12.018 -0.0437 -0.6087 -2.0625
 9563TIP3    H252885   2.446   4.508  11.912 -2.5410 -0.1282  0.1803
 9564TIP3   OH252886   4.463   0.331  12.458  0.1404  0.0956 -0.3717
 9564TIP3    H152887   4.420   0.407  12.418 -0.6668 -0.5465 -0.7719
 9564TIP3    H252888   4.549   0.363  12.484 -0.1836  1.1478 -0.5276
 9565TIP3   OH252889   0.209   2.364  12.066 -0.5736 -0.4464  0.0610
 9565TIP3    H152890   0.197   2.334  12.157 -0.3783 -1.5645 -0.2727
 9565TIP3    H252891   0.224   2.458  12.074  0.0219 -0.6236  1.2435
 9566TIP3   OH252892   3.084   1.107  12.180  0.2146 -0.3727  0.1918
 9566TIP3    H152893   3.037   1.061  12.110 -1.9397 -0.2475  1.4521
 9566TIP3    H252894   3.123   1.037  12.232  0.3205 -0.5607 -0.1369
 9567TIP3   OH252895   2.359   3.072  10.761  0.3801 -0.2971  0.1648
 9567TIP3    H152896   2.449   3.059  10.733  0.6448  0.0356  0.8366
 9567TIP3    H252897   2.359   3.051  10.855  0.2752  1.8809  0.6985
 9568TIP3   OH252898   2.275   0.615  10.922 -0.8497 -0.5304 -0.0119
 9568TIP3    H152899   2.353   0.644  10.874 -1.3407 -1.0739 -1.1825
 9568TIP3    H252900   2.295   0.525  10.948 -0.8764 -0.4903  0.1464
 9569TIP3   OH252901   0.919   2.364  10.402  0.0605 -0.4817 -0.2387
 9569TIP3    H152902   0.943   2.428  10.469  0.3199  0.5479 -1.2939
 9569TIP3    H252903   0.935   2.279  10.444  0.4081  0.1371  0.9313
 9570TIP3   OH252904   4.370   1.141  13.003 -0.2501  0.0172  0.2688
 9570TIP3    H152905   4.422   1.219  12.980 -1.7921  1.2705  0.8717
 9570TIP3    H252906   4.433   1.083  13.046  0.8563  1.1044  0.1975
 9571TIP3   OH252907   3.510   6.642  10.217 -0.4917 -0.4940  0.1266
 9571TIP3    H152908   3.420   6.646  10.184 -1.2090  0.3789  2.0864
 9571TIP3    H252909   3.512   6.703  10.290  1.3461 -1.5070  0.9853
 9572TIP3   OH252910   4.192   2.953  12.254 -0.3357  0.2285  0.7380
 9572TIP3    H152911   4.244   2.915  12.324 -0.1477  0.3861  0.6837
 9572TIP3    H252912   4.108   2.907  12.259  0.2141 -0.9148  0.0323
 9573TIP3   OH252913   1.448   2.190  11.370  0.2304  0.0650  0.6940
 9573TIP3    H152914   1.465   2.184  11.276 -0.6497  1.8277  0.3885
 9573TIP3    H252915   1.432   2.099  11.397 -0.5210 -0.3685 -1.0571
 9574TIP3   OH252916   6.496   0.080  10.425 -0.2262  0.1579 -0.2364
 9574TIP3    H152917   6.472   0.173  10.426  1.2911  0.6093 -1.6642
 9574TIP3    H252918   6.482   0.051  10.515 -1.8594  1.4576 -0.0315
 9575TIP3   OH252919   6.437   6.155  11.565 -0.5308  0.1079 -0.4006
 9575TIP3    H152920   6.368   6.207  11.524 -0.9267 -0.1626 -0.0823
 9575TIP3    H252921   6.396   6.118  11.643 -0.0997 -0.2593 -0.3435
 9576TIP3   OH252922   1.607   2.013  11.682  0.2360  0.7584  0.1636
 9576TIP3    H152923   1.538   1.980  11.625  1.4896 -0.3571 -0.7550
 9576TIP3    H252924   1.664   1.938  11.697  0.9115  1.4872  1.4347
 9577TIP3   OH252925   4.614   1.060  10.686  0.0351 -0.0700  0.1358
 9577TIP3    H152926   4.693   1.009  10.670 -0.3196 -0.5898  0.0223
 9577TIP3    H252927   4.555   1.000  10.731  0.2572  0.7679  1.5969
 9578TIP3   OH252928   2.033   0.322   9.790  0.0810 -0.0231  0.1691
 9578TIP3    H152929   1.984   0.240   9.785 -2.3138  1.3321 -0.4947
 9578TIP3    H252930   2.122   0.300   9.763 -0.9064 -2.0724 -1.6074
 9579TIP3   OH252931   1.305   6.024  12.503  0.2202 -0.4916  0.0305
 9579TIP3    H152932   1.320   5.988  12.590 -0.1289  0.0851  0.3350
 9579TIP3    H252933   1.368   5.979  12.447 -0.3683 -1.7477  0.3482
 9580TIP3   OH252934   2.595   4.423  12.722 -0.1937 -0.1926  0.1160
 9580TIP3    H152935   2.657   4.462  12.784  0.9727  2.3960 -2.4413
 9580TIP3    H252936   2.649   4.370  12.663 -0.8493 -0.3750 -0.3394
 9581TIP3   OH252937   3.119   5.490  10.754 -0.5644  0.3862  0.0604
 9581TIP3    H152938   3.203   5.525  10.723 -1.4840  1.8549 -0.8615
 9581TIP3    H252939   3.066   5.480  10.675 -1.1147 -0.9934  0.5808
 9582TIP3   OH252940   5.349   3.589  10.207  0.0748 -0.1467 -0.1481
 9582TIP3    H152941   5.360   3.601  10.301  0.8172 -0.9749 -0.1151
 9582TIP3    H252942   5.290   3.514  10.198 -0.9338  0.6403 -0.3599
 9583TIP3   OH252943   1.708   4.082  12.229  0.2821 -0.6345 -0.2099
 9583TIP3    H152944   1.729   4.110  12.141  1.6913  0.0052  0.3036
 9583TIP3    H252945   1.702   4.163  12.280 -2.1965 -0.8664 -0.0276
 9584TIP3   OH252946   2.953   3.037   9.429 -0.0825  0.5310  0.3167
 9584TIP3    H152947   2.924   3.126   9.448 -0.4353  0.7802 -1.2591
 9584TIP3    H252948   3.048   3.041   9.433 -0.1313  0.5191  2.1131
 9585TIP3   OH252949   1.358   4.618  12.134  0.0588 -0.4315 -0.4898
 9585TIP3    H152950   1.302   4.620  12.056 -0.6811  0.0825  0.0406
 9585TIP3    H252951   1.297   4.618  12.208  0.7515 -0.7505  0.0947
 9586TIP3   OH252952   5.587   2.912  10.863  0.2885 -0.2864  0.0672
 9586TIP3    H152953   5.669   2.877  10.829  0.5267  1.4090 -1.2488
 9586TIP3    H252954   5.608   3.003  10.885 -1.6204  0.7336 -1.9887
 9587TIP3   OH252955   1.722   0.571  12.165  0.4374 -0.6001  0.4876
 9587TIP3    H152956   1.739   0.598  12.075  1.2876 -2.2755  0.1177
 9587TIP3    H252957   1.628   0.550  12.166  0.5438 -1.1364 -0.1702
 9588TIP3   OH252958   2.834   6.008  10.990 -0.3176 -0.0693  0.4763
 9588TIP3    H152959   2.862   6.085  11.040  0.0087 -0.0035  0.1982
 9588TIP3    H252960   2.884   6.013  10.909 -0.4985 -0.4296  0.3413
 9589TIP3   OH252961   2.742   5.554  11.037  0.1475 -0.1486  0.1784
 9589TIP3    H152962   2.734   5.638  10.992 -1.2802  0.1218  0.8602
 9589TIP3    H252963   2.835   5.532  11.031  0.4521  1.2035 -0.5009
 9590TIP3   OH252964   6.646   1.167  10.601 -0.0391 -0.3896 -0.2400
 9590TIP3    H152965   6.604   1.086  10.630  0.4705 -0.6791 -0.3089
 9590TIP3    H252966   6.593   1.237  10.641 -0.3834 -0.7552 -0.0519
 9591TIP3   OH252967   2.885   5.698  11.904 -0.0033 -0.3573  0.5928
 9591TIP3    H152968   2.862   5.691  11.997 -0.4419 -1.6827  0.4082
 9591TIP3    H252969   2.973   5.661  11.898 -0.2046 -0.8138  0.4033
 9592TIP3   OH252970   2.609   2.544  11.941 -0.0672  0.4428 -0.5118
 9592TIP3    H152971   2.568   2.524  11.857  1.8176  0.2178 -1.4343
 9592TIP3    H252972   2.687   2.594  11.918  0.4073  0.5015  1.1234
 9593TIP3   OH252973   5.591   1.596  11.118 -0.1017 -0.4283 -0.6180
 9593TIP3    H152974   5.526   1.666  11.112 -3.0509 -2.6259  2.0687
 9593TIP3    H252975   5.621   1.583  11.028 -2.5097  1.5614 -1.8332
 9594TIP3   OH252976   3.043   1.805  12.369 -0.3759  0.2216 -0.1217
 9594TIP3    H152977   3.006   1.780  12.453  1.2187 -0.9942  0.2784
 9594TIP3    H252978   3.101   1.878  12.389 -1.4480  1.2107 -0.5150
 9595TIP3   OH252979   6.177   0.595  11.575 -0.3072  0.2294  0.4911
 9595TIP3    H152980   6.257   0.640  11.546  0.2450 -0.7120  0.5027
 9595TIP3    H252981   6.108   0.631  11.520  0.0751  1.2207  0.6262
 9596TIP3   OH252982   4.579   6.422  11.470 -0.5054 -0.2955  0.3258
 9596TIP3    H152983   4.524   6.346  11.490 -0.3262 -0.7262 -0.7608
 9596TIP3    H252984   4.669   6.390  11.482 -0.1948 -1.4673 -3.6739
 9597TIP3   OH252985   4.068   2.574  10.766 -0.2165  0.6181  0.2835
 9597TIP3    H152986   4.091   2.487  10.798 -0.0011  0.3630 -0.5247
 9597TIP3    H252987   4.146   2.627  10.783 -0.4404  0.7202  1.0058
 9598TIP3   OH252988   0.267   6.667  12.614 -0.6615  0.9156 -0.7091
 9598TIP3    H152989   0.320   6.729  12.564  1.6316 -0.1898  0.2444
 9598TIP3    H252990   0.260   6.707  12.701  0.4643  0.0862 -0.2171
 9599TIP3   OH252991   4.745   6.237  11.228  0.5895 -0.2592  0.0462
 9599TIP3    H152992   4.729   6.217  11.320  1.0529  0.2271  0.2329
 9599TIP3    H252993   4.703   6.165  11.181 -0.3920 -0.0736  0.5998
 9600TIP3   OH252994   5.833   5.426  11.218 -0.3494 -0.3930 -0.5129
 9600TIP3    H152995   5.752   5.407  11.265  0.0831 -0.2938  0.2940
 9600TIP3    H252996   5.861   5.511  11.251 -0.1311 -0.2287 -1.0997
 9601TIP3   OH252997   4.395   6.115  11.198  0.4327  0.0679 -0.2931
 9601TIP3    H152998   4.467   6.056  11.223 -0.3400 -0.8076 -0.0597
 9601TIP3    H252999   4.316   6.069  11.227 -0.1810  1.3545  0.1323
 9602TIP3   OH253000   0.288   0.471  12.272  0.1971 -0.0088  0.0466
 9602TIP3    H153001   0.235   0.401  12.310 -1.4537  1.3903  0.4359
 9602TIP3    H253002   0.249   0.552  12.304  0.3606  1.1867 -2.4868
 9603TIP3   OH253003   6.362   0.116  11.215 -0.2575  0.1609  0.1449
 9603TIP3    H153004   6.402   0.201  11.196 -1.0321  0.6280  0.5448
 9603TIP3    H253005   6.433   0.052  11.203  0.1919  0.8042 -0.6859
 9604TIP3   OH253006   4.101   3.152  11.203  0.2216 -0.4993 -0.1178
 9604TIP3    H153007   4.176   3.211  11.198  0.6623 -1.0982 -0.8258
 9604TIP3    H253008   4.055   3.178  11.282 -0.0144  1.2759 -0.7980
 9605TIP3   OH253009   3.378   0.355  10.086  0.3768  0.6807 -0.0421
 9605TIP3    H153010   3.414   0.282  10.137 -0.9106 -1.0252 -1.4538
 9605TIP3    H253011   3.395   0.432  10.141  2.3322 -0.5443  1.2474
 9606TIP3   OH253012   5.734   2.216  12.636  0.8782 -1.0535 -0.2243
 9606TIP3    H153013   5.688   2.285  12.684  0.8703 -1.2903  0.1134
 9606TIP3    H253014   5.826   2.243  12.638  0.9106 -1.1848  0.1361
 9607TIP3   OH253015   5.805   6.309   9.444 -0.2140  0.5345 -0.1307
 9607TIP3    H153016   5.816   6.240   9.509  0.4038 -0.1085 -0.8864
 9607TIP3    H253017   5.739   6.275   9.384 -0.1954  0.7727 -0.2875
 9608TIP3   OH253018   3.920   4.238  11.591 -0.4702 -0.1523  0.7326
 9608TIP3    H153019   3.838   4.221  11.545 -0.2026 -1.1616  0.6150
 9608TIP3    H253020   3.895   4.243  11.683 -0.9772  1.6759  0.5307
 9609TIP3   OH253021   1.632   6.168  10.125 -0.4152 -0.1720  0.1694
 9609TIP3    H153022   1.623   6.263  10.126 -0.0080 -0.1319  0.9897
 9609TIP3    H253023   1.722   6.152  10.097 -0.6063 -0.3332 -0.3684
 9610TIP3   OH253024   5.806   6.688  12.047  0.0630 -0.2926 -0.2014
 9610TIP3    H153025   5.785   6.667  12.137 -1.0148 -0.5638 -0.4991
 9610TIP3    H253026   5.846   6.608  12.012  0.2828 -0.2583 -0.0340
 9611TIP3   OH253027   3.030   0.262  10.838  0.6067  0.7467  0.1324
 9611TIP3    H153028   3.083   0.274  10.916 -0.2003  1.0679  0.6367
 9611TIP3    H253029   2.951   0.313  10.854  0.2786  0.5291 -0.7430
 9612TIP3   OH253030   5.633   5.851  11.662  0.1164 -0.1556 -0.0775
 9612TIP3    H153031   5.692   5.783  11.693 -1.3919 -1.8928 -0.8664
 9612TIP3    H253032   5.547   5.809  11.658 -0.4942  1.1098 -2.6571
 9613TIP3   OH253033   4.621   5.588  10.223 -0.1085  0.0306  0.3381
 9613TIP3    H153034   4.713   5.586  10.249  0.2613 -0.0824 -0.8954
 9613TIP3    H253035   4.591   5.676  10.247  0.2529 -0.0135  0.9574
 9614TIP3   OH253036   3.378   4.452  10.661  0.6258 -0.6093  0.0445
 9614TIP3    H153037   3.442   4.477  10.594  0.6087 -3.1682 -1.0206
 9614TIP3    H253038   3.357   4.534  10.704  1.7654  0.9267 -2.0929
 9615TIP3   OH253039   3.318   0.205   9.584  0.1827 -0.6052 -0.0177
 9615TIP3    H153040   3.304   0.300   9.592 -1.6312 -0.5913 -2.3694
 9615TIP3    H253041   3.413   0.196   9.578  0.5231  0.8511  1.9547
 9616TIP3   OH253042   5.399   4.039  11.099  0.0417 -0.0556 -0.0557
 9616TIP3    H153043   5.415   4.130  11.075  0.2072  0.1322  0.7431
 9616TIP3    H253044   5.317   4.017  11.055 -1.0356  1.0894  1.2663
 9617TIP3   OH253045   2.622   0.340   9.950 -0.2686  0.3976 -0.5173
 9617TIP3    H153046   2.533   0.370   9.972  0.0011  0.4636  0.5246
 9617TIP3    H253047   2.661   0.415   9.906 -1.6942 -0.6169 -3.8470
 9618TIP3   OH253048   5.509   4.930   9.512 -0.0929  0.4381 -0.3008
 9618TIP3    H153049   5.484   4.966   9.597 -0.6674  1.2519 -0.8006
 9618TIP3    H253050   5.482   4.996   9.449  2.2461  0.8196 -0.9888
 9619TIP3   OH253051   1.802   3.315  10.433  0.1649 -0.3195  0.1989
 9619TIP3    H153052   1.813   3.409  10.415  1.1458 -0.1646  1.4753
 9619TIP3    H253053   1.782   3.277  10.348  0.7259  0.9092 -0.5189
 9620TIP3   OH253054   0.701   1.403  10.762  0.6326  0.2063  0.6916
 9620TIP3    H153055   0.626   1.425  10.818  1.9955  2.7286  1.6959
 9620TIP3    H253056   0.753   1.343  10.814  0.6613  0.6052  1.1312
 9621TIP3   OH253057   5.421   6.536   9.969 -0.1773  0.1936  0.6104
 9621TIP3    H153058   5.445   6.629   9.973  0.8013  0.0436 -0.9013
 9621TIP3    H253059   5.504   6.489   9.982  0.0372 -0.3786 -2.1910
 9622TIP3   OH253060   5.093   2.759   9.363 -0.3040 -0.1855  0.2937
 9622TIP3    H153061   5.149   2.702   9.416 -0.8520  0.4509  1.5934
 9622TIP3    H253062   5.030   2.700   9.322  0.4864 -0.7520 -0.1271
 9623TIP3   OH253063   1.011   4.595  12.205 -0.5030  0.4270  0.6660
 9623TIP3    H153064   1.045   4.590  12.116 -1.2360 -0.4109  0.4140
 9623TIP3    H253065   1.073   4.650  12.252 -0.2537  1.1155 -0.4346
 9624TIP3   OH253066   4.844   0.437  11.221 -0.5566 -0.2522  0.1098
 9624TIP3    H153067   4.765   0.412  11.173 -0.5594 -0.7129  0.3552
 9624TIP3    H253068   4.910   0.452  11.152 -1.1432  1.2182 -0.1682
 9625TIP3   OH253069   4.218   1.004  11.363  0.0954  0.9033 -0.6721
 9625TIP3    H153070   4.132   0.966  11.380  1.5391 -1.1965  2.8443
 9625TIP3    H253071   4.224   1.078  11.423  0.7422  1.1069 -0.9770
 9626TIP3   OH253072   6.006   4.107  11.829  0.2637  0.4156 -0.9710
 9626TIP3    H153073   5.927   4.112  11.882  0.6874  1.0572 -0.3783
 9626TIP3    H253074   5.985   4.043  11.761 -1.1281  1.3698 -1.4717
 9627TIP3   OH253075   4.444   1.502  11.083  0.1725  0.2655 -0.3062
 9627TIP3    H153076   4.391   1.481  11.159  0.4407 -0.8165 -0.4062
 9627TIP3    H253077   4.402   1.579  11.045 -1.3566 -0.5842 -0.4032
 9628TIP3   OH253078   5.674   2.999  12.025 -0.3661 -0.6728 -0.1574
 9628TIP3    H153079   5.595   2.946  12.032 -1.9483  1.3319 -1.6945
 9628TIP3    H253080   5.701   2.992  11.934  0.6735 -0.5516  0.1228
 9629TIP3   OH253081   6.304   0.890  12.778  0.0344  0.0946  0.3032
 9629TIP3    H153082   6.244   0.911  12.850  1.1300 -0.7750  1.5207
 9629TIP3    H253083   6.376   0.843  12.820  0.9477 -0.0175 -1.3094
 9630TIP3   OH253084   4.466   6.503   9.207 -0.5918 -0.3718 -0.0770
 9630TIP3    H153085   4.402   6.488   9.137 -1.9686 -1.1495  1.2959
 9630TIP3    H253086   4.438   6.583   9.250 -0.5974 -0.6583  0.4687
 9631TIP3   OH253087   4.156   5.961  11.237  0.5365  0.2389  0.3187
 9631TIP3    H153088   4.076   6.011  11.254 -0.1447 -0.0254 -1.8658
 9631TIP3    H253089   4.161   5.900  11.310 -1.1698  0.3675  0.5968
 9632TIP3   OH253090   1.664   2.797   9.966  0.1560 -0.2284 -0.2379
 9632TIP3    H153091   1.710   2.877   9.941  0.8049 -0.4495  0.2262
 9632TIP3    H253092   1.587   2.828  10.015  1.2116  0.0883  1.2860
 9633TIP3   OH253093   0.542   2.014   9.955 -0.2490  0.0403 -0.3686
 9633TIP3    H153094   0.502   2.091   9.995  0.3716 -0.6194  1.6260
 9633TIP3    H253095   0.630   2.011   9.991 -0.3781 -1.7831 -0.1118
 9634TIP3   OH253096   2.248   4.857  12.330 -0.6825 -0.1586  0.4656
 9634TIP3    H153097   2.277   4.811  12.251 -1.0861 -1.0635  0.8288
 9634TIP3    H253098   2.183   4.920  12.299 -0.8152 -0.4875  0.0773
 9635TIP3   OH253099   5.107   2.090  12.126 -0.0218  0.3712 -0.2679
 9635TIP3    H153100   5.189   2.060  12.087  0.5152 -0.6008  1.4886
 9635TIP3    H253101   5.130   2.175  12.166 -0.1255  0.5511 -0.5881
 9636TIP3   OH253102   3.987   2.945  12.019  0.1134  0.0418 -0.4307
 9636TIP3    H153103   4.047   2.921  11.949 -0.0120 -0.2323 -0.4457
 9636TIP3    H253104   3.976   3.040  12.010  1.5827  0.3215  0.3932
 9637TIP3   OH253105   4.204   0.114  10.971  0.5883 -0.2620  0.1163
 9637TIP3    H153106   4.122   0.064  10.970 -0.9102  1.8723  2.6173
 9637TIP3    H253107   4.232   0.112  11.063  0.2573  3.5486  0.4439
 9638TIP3   OH253108   5.225   1.121  11.245  0.0748  0.0205  0.3089
 9638TIP3    H153109   5.138   1.122  11.284 -0.8003  0.5785 -1.5965
 9638TIP3    H253110   5.269   1.047  11.288 -2.0086 -1.5542 -0.1433
 9639TIP3   OH253111   3.325   6.578  13.052  0.3237 -0.2060  0.5054
 9639TIP3    H153112   3.268   6.579  12.975 -1.3621 -1.6836  1.6610
 9639TIP3    H253113   3.383   6.653  13.039 -0.3977  0.0458 -1.8153
 9640TIP3   OH253114   0.616   0.086  13.027  0.3673 -0.1504  0.1382
 9640TIP3    H153115   0.650   0.139  12.955 -0.3774  1.7147  1.0873
 9640TIP3    H253116   0.641   0.135  13.106 -2.8076  0.3801  0.9641
 9641TIP3   OH253117   2.176   1.463  10.230  0.3619  0.4229 -0.5467
 9641TIP3    H153118   2.098   1.454  10.284  1.0679 -0.1358  0.4049
 9641TIP3    H253119   2.152   1.423  10.146 -0.1238 -0.4509 -0.0044
 9642TIP3   OH253120   3.031   5.701  10.396  0.0644 -0.0533  0.3541
 9642TIP3    H153121   3.071   5.766  10.453 -1.2162  1.0092  0.0954
 9642TIP3    H253122   3.018   5.746  10.313 -3.0462  0.2406  0.8612
 9643TIP3   OH253123   6.023   3.647  11.814  0.2742 -0.6757  0.9179
 9643TIP3    H153124   6.031   3.730  11.862 -3.0440  1.0379 -1.0984
 9643TIP3    H253125   6.061   3.666  11.728 -2.1143 -0.5069 -0.1788
 9644TIP3   OH253126   1.540   3.186  10.780 -0.2309  0.7345  0.1642
 9644TIP3    H153127   1.605   3.137  10.729 -2.2516 -0.7941 -1.1200
 9644TIP3    H253128   1.533   3.270  10.735  0.2529  0.5973 -0.1814
 9645TIP3   OH253129   4.966   3.999  12.138  1.1515  0.4665 -0.4094
 9645TIP3    H153130   4.908   4.075  12.128 -0.2098 -0.5440 -0.5331
 9645TIP3    H253131   4.950   3.968  12.227 -1.6051 -2.1497 -1.6168
 9646TIP3   OH253132   2.365   1.281  11.441 -0.1986 -0.2505  0.1081
 9646TIP3    H153133   2.378   1.357  11.383  0.9616 -0.0329  0.6201
 9646TIP3    H253134   2.297   1.310  11.502 -0.6656 -0.0895 -0.4777
 9647TIP3   OH253135   0.295   1.365  10.850  0.2604  0.3487 -0.2940
 9647TIP3    H153136   0.311   1.446  10.897  1.3580  0.2220 -0.4306
 9647TIP3    H253137   0.224   1.323  10.899 -0.7440  1.6430 -0.5743
 9648TIP3   OH253138   5.910   3.949  10.748  0.5131  0.4330 -0.5028
 9648TIP3    H153139   5.933   3.858  10.729  1.8464  0.8151 -0.7958
 9648TIP3    H253140   5.841   3.943  10.814 -0.3570 -0.8075 -1.4707
 9649TIP3   OH253141   1.336   6.676  11.784 -0.1840  0.1400 -0.5620
 9649TIP3    H153142   1.419   6.706  11.822 -0.0948  0.3540 -0.9124
 9649TIP3    H253143   1.338   6.581  11.795  0.9239 -0.0702 -2.0861
 9650TIP3   OH253144   2.640   1.257   9.879  0.4122  0.1407 -0.2806
 9650TIP3    H153145   2.599   1.339   9.906  0.2591 -0.2092  0.5774
 9650TIP3    H253146   2.573   1.190   9.896  0.9552 -0.3039  0.1343
 9651TIP3   OH253147   2.347   2.950  11.638 -0.4033 -0.1580 -0.1497
 9651TIP3    H153148   2.330   2.884  11.706  2.1452 -0.4032  0.3617
 9651TIP3    H253149   2.378   3.026  11.686  0.9311 -0.1501 -0.9847
 9652TIP3   OH253150   0.808   5.602  10.872 -0.0449  0.2513  0.1791
 9652TIP3    H153151   0.801   5.632  10.962 -0.9335 -0.3874  0.3322
 9652TIP3    H253152   0.719   5.606  10.838  0.1759 -0.1371 -0.4667
 9653TIP3   OH253153   4.629   1.194  12.834  0.2180 -0.3575  0.1864
 9653TIP3    H153154   4.650   1.272  12.886 -0.5894  0.2203 -0.3196
 9653TIP3    H253155   4.620   1.227  12.744  1.2034 -1.2722 -0.2718
 9654TIP3   OH253156   3.709   4.776  10.346 -0.5270  0.5138  0.2234
 9654TIP3    H153157   3.636   4.759  10.285 -0.3226 -1.6381  0.4981
 9654TIP3    H253158   3.715   4.871  10.350 -1.4905  0.7381 -2.0033
 9655TIP3   OH253159   3.362   1.968  11.189 -0.6176  0.2305 -0.0939
 9655TIP3    H153160   3.306   1.891  11.201 -0.5680  0.1930 -0.1015
 9655TIP3    H253161   3.374   1.974  11.094  1.4598 -1.2611  0.0020
 9656TIP3   OH253162   6.449   3.884  11.000 -0.5087 -0.2029 -0.2161
 9656TIP3    H153163   6.534   3.859  11.037 -0.1071  0.3595 -0.7544
 9656TIP3    H253164   6.390   3.814  11.028 -0.1295 -0.0070  1.1510
 9657TIP3   OH253165   4.739   1.515  10.056  0.1573 -0.2113  0.2433
 9657TIP3    H153166   4.655   1.562  10.061 -0.8659 -1.9036 -0.0284
 9657TIP3    H253167   4.798   1.564  10.113 -1.1040  0.8603  0.6764
 9658TIP3   OH253168   5.005   6.601  12.127  0.6692 -0.2516  0.6843
 9658TIP3    H153169   5.097   6.605  12.152  0.9420  0.5065 -0.3848
 9658TIP3    H253170   4.974   6.691  12.133  0.2464 -0.3547  0.1182
 9659TIP3   OH253171   5.238   2.310  10.385  0.0645  0.1666  0.0457
 9659TIP3    H153172   5.246   2.336  10.477 -1.0622  0.1956  0.1594
 9659TIP3    H253173   5.143   2.300  10.372  0.1094  1.2571 -1.4113
 9660TIP3   OH253174   0.205   3.502  11.591 -0.2207 -0.4392 -0.2497
 9660TIP3    H153175   0.186   3.505  11.685  0.5445  0.8138 -0.1057
 9660TIP3    H253176   0.155   3.427  11.559 -0.9712 -0.5358  1.0509
 9661TIP3   OH253177   2.729   0.919  11.250  0.5815  1.0961 -0.1679
 9661TIP3    H153178   2.796   0.980  11.279 -0.0692  0.9778  1.7586
 9661TIP3    H253179   2.707   0.869  11.328 -1.5024  0.9084 -0.8119
 9662TIP3   OH253180   5.308   6.363  12.068 -0.0028  0.3065  0.0775
 9662TIP3    H153181   5.290   6.430  12.134 -0.4513 -0.2384  0.5223
 9662TIP3    H253182   5.365   6.300  12.113  1.6858  1.1570 -0.8068
 9663TIP3   OH253183   2.922   1.244  10.610  0.4555  0.1239  0.1010
 9663TIP3    H153184   2.992   1.274  10.552  0.6643  2.3572  1.4136
 9663TIP3    H253185   2.917   1.310  10.679  0.6193 -2.6618  3.0363
 9664TIP3   OH253186   0.286   5.838  10.490  0.1909 -0.3416  0.2495
 9664TIP3    H153187   0.296   5.862  10.398  1.1628 -1.6260 -0.0177
 9664TIP3    H253188   0.330   5.908  10.538 -1.6339  1.1448 -0.1247
 9665TIP3   OH253189   2.235   2.461  11.298  0.1764 -0.3514 -0.0984
 9665TIP3    H153190   2.160   2.408  11.271 -0.3533  0.3925 -0.1150
 9665TIP3    H253191   2.213   2.550  11.270  0.2878  0.1817  1.4420
 9666TIP3   OH253192   5.004   4.740  10.813 -0.0866 -0.0529 -0.4849
 9666TIP3    H153193   5.005   4.821  10.863 -0.9744  0.3927 -1.1786
 9666TIP3    H253194   5.097   4.717  10.804  0.1141  0.0703  0.9918
 9667TIP3   OH253195   4.833   5.985  10.745 -0.0298  0.0506 -0.2328
 9667TIP3    H153196   4.760   6.047  10.753 -1.5788 -1.5323 -1.1575
 9667TIP3    H253197   4.909   6.033  10.777 -1.3134  2.0789 -0.0018
 9668TIP3   OH253198   2.154   1.907  10.227  0.4377  0.8399  0.1562
 9668TIP3    H153199   2.157   2.002  10.217  1.0457  0.7998 -0.1315
 9668TIP3    H253200   2.176   1.892  10.318  0.9767  0.9514  0.0474
 9669TIP3   OH253201   3.163   4.803   9.580  0.0291  0.3102 -0.2882
 9669TIP3    H153202   3.194   4.737   9.642 -1.7421 -0.1763  0.1254
 9669TIP3    H253203   3.140   4.754   9.501  1.0632  0.7737 -0.9013
 9670TIP3   OH253204   0.538   1.139  10.073  0.1588 -0.5708  0.3659
 9670TIP3    H153205   0.478   1.101  10.137  0.3607  0.8117  1.4162
 9670TIP3    H253206   0.572   1.064  10.024  0.1140 -1.6964  1.9809
 9671TIP3   OH253207   5.530   4.499  11.172 -0.0868 -0.3774 -0.3527
 9671TIP3    H153208   5.487   4.567  11.121  0.0164 -0.2842 -0.3150
 9671TIP3    H253209   5.623   4.519  11.166 -0.2081  1.5722  2.5732
 9672TIP3   OH253210   4.466   6.233  13.102 -0.4798 -0.1191 -0.3788
 9672TIP3    H153211   4.556   6.220  13.071 -0.6851 -0.3791 -0.8989
 9672TIP3    H253212   4.473   6.299  13.170  0.3092 -1.2155  0.6490
 9673TIP3   OH253213   0.120   6.504   9.603  0.3631  0.1003  0.0713
 9673TIP3    H153214   0.121   6.464   9.516  0.2328 -0.6192  0.3906
 9673TIP3    H253215   0.027   6.505   9.628  0.3517  0.7020  0.0303
 9674TIP3   OH253216   6.092   5.047  11.888 -0.6691 -0.0242  0.4523
 9674TIP3    H153217   6.107   5.003  11.972  0.6869 -1.1538 -0.3469
 9674TIP3    H253218   6.093   4.977  11.823  0.2805  1.0330 -0.7193
 9675TIP3   OH253219   4.482   0.865   9.684  0.2735  0.1440 -0.1652
 9675TIP3    H153220   4.415   0.892   9.747  1.3635  0.7130  0.7891
 9675TIP3    H253221   4.485   0.769   9.692 -2.3040 -0.2085 -2.2152
 9676TIP3   OH253222   3.993   6.480  11.300 -0.3664 -0.1333 -0.5685
 9676TIP3    H153223   4.047   6.529  11.361 -0.1830  0.7155 -1.3813
 9676TIP3    H253224   3.912   6.530  11.294 -0.0095  0.3607 -1.7409
 9677TIP3   OH253225   1.336   0.724  11.191 -0.0196  0.3926  0.0410
 9677TIP3    H153226   1.356   0.656  11.255 -1.5197  1.8366  2.1858
 9677TIP3    H253227   1.241   0.722  11.183 -0.1546  2.5583  0.5880
 9678TIP3   OH253228   2.780   5.273  11.042 -0.2793  0.1263 -0.2293
 9678TIP3    H153229   2.693   5.234  11.034  0.2064 -0.7371 -1.6112
 9678TIP3    H253230   2.765   5.367  11.026 -0.8747 -0.1158 -1.2311
 9679TIP3   OH253231   2.038   5.550  11.808  0.1961  0.1885 -0.1403
 9679TIP3    H153232   2.059   5.523  11.897 -1.1933  1.8072  0.7531
 9679TIP3    H253233   2.122   5.574  11.769  0.9507 -1.5454  0.3410
 9680TIP3   OH253234   5.488   6.491  13.342  0.4317  0.1706 -0.1017
 9680TIP3    H153235   5.403   6.475  13.382  0.3112 -0.2676 -0.5269
 9680TIP3    H253236   5.526   6.562  13.394 -0.0729  0.1774  0.2633
 9681TIP3   OH253237   4.177   4.789   9.498  0.6565  0.3150 -0.0681
 9681TIP3    H153238   4.129   4.714   9.463 -1.4911  1.3648  0.4208
 9681TIP3    H253239   4.181   4.851   9.425 -1.1641  1.2993  0.6208
 9682TIP3   OH253240   0.034   4.427   9.851 -0.2428 -0.2626  0.1265
 9682TIP3    H153241   0.113   4.377   9.830  0.6308  0.9467  0.4417
 9682TIP3    H253242   0.049   4.513   9.812 -0.5001  0.6290  1.9239
 9683TIP3   OH253243   4.364   2.275   9.838  0.5575 -0.4830  0.0828
 9683TIP3    H153244   4.329   2.357   9.804  1.2040 -0.0648  0.4074
 9683TIP3    H253245   4.363   2.286   9.933 -0.5699 -1.3620  0.1996
 9684TIP3   OH253246   2.561   5.947   9.571  0.1865  0.5340  0.2730
 9684TIP3    H153247   2.470   5.932   9.595  0.6047  0.1579  1.7777
 9684TIP3    H253248   2.574   5.895   9.491 -0.6785 -0.1658  0.5663
 9685TIP3   OH253249   3.654   1.666  11.806 -0.2819 -0.3810  0.2073
 9685TIP3    H153250   3.712   1.725  11.757  0.1157 -0.3198  0.7483
 9685TIP3    H253251   3.637   1.711  11.888 -2.5582  0.4280 -0.6241
 9686TIP3   OH253252   0.073   5.460  11.026  0.1076 -0.0830 -0.0294
 9686TIP3    H153253   0.068   5.390  10.960 -0.1522 -0.2535  0.1690
 9686TIP3    H253254   0.150   5.511  11.000 -0.5032  0.3786 -0.9798
 9687TIP3   OH253255   6.031   4.023  10.120 -0.0240  0.0956 -0.3586
 9687TIP3    H153256   5.978   4.000  10.044  1.6426 -0.2333 -1.4649
 9687TIP3    H253257   6.121   4.017  10.089  0.6667  0.9918  1.3632
 9688TIP3   OH253258   5.470   6.473  11.052  0.3862  0.1734  0.0037
 9688TIP3    H153259   5.395   6.472  10.992 -0.1981 -0.1947  0.7197
 9688TIP3    H253260   5.502   6.383  11.052 -0.1790 -0.0358  0.9218
 9689TIP3   OH253261   4.961   0.498  10.982  0.2256  0.3113 -0.0479
 9689TIP3    H153262   4.937   0.464  10.895  0.5111  0.6325 -0.2566
 9689TIP3    H253263   5.023   0.568  10.963  0.3603  0.3189  0.4259
 9690TIP3   OH253264   0.592   6.024  12.714  1.0560 -0.0171 -0.2588
 9690TIP3    H153265   0.523   6.074  12.670  0.1819 -0.2680  0.7729
 9690TIP3    H253266   0.547   5.948  12.750  1.6765  0.3190  1.2957
 9691TIP3   OH253267   0.514   0.794  10.325  0.4006 -0.0125  0.6185
 9691TIP3    H153268   0.565   0.875  10.323  0.1987  0.1200 -1.8874
 9691TIP3    H253269   0.427   0.821  10.355  0.4645  0.6138  0.2477
 9692TIP3   OH253270   1.379   6.040  13.543 -0.3534  0.2682  0.5028
 9692TIP3    H153271   1.287   6.047  13.568 -0.3515 -0.5036  0.7596
 9692TIP3    H253272   1.424   6.107  13.594 -1.1951  2.9238 -1.9998
 9693TIP3   OH253273   2.397   4.784  12.787  0.2550 -0.6636  0.6378
 9693TIP3    H153274   2.384   4.733  12.866 -1.3114 -0.9138  0.2565
 9693TIP3    H253275   2.319   4.767  12.734  0.6834  0.4648 -0.4218
 9694TIP3   OH253276   1.521   4.068  10.548  0.1340  0.0363  0.0285
 9694TIP3    H153277   1.452   4.002  10.550  2.7276 -3.0317 -1.6485
 9694TIP3    H253278   1.531   4.089  10.455  0.5773  1.5270  0.3745
 9695TIP3   OH253279   6.589   1.486  10.447  0.1866  0.0886 -0.3706
 9695TIP3    H153280   6.514   1.457  10.499 -1.3152  1.8565 -1.4533
 9695TIP3    H253281   6.660   1.492  10.511 -0.9068 -0.3943  0.9564
 9696TIP3   OH253282   4.806   5.811   9.329  0.4474 -0.1409  0.0654
 9696TIP3    H153283   4.847   5.787   9.412  2.1977  2.3107  0.0216
 9696TIP3    H253284   4.849   5.756   9.263  0.5211 -0.6478  0.5351
 9697TIP3   OH253285   1.143   5.255  10.970  0.0328 -0.0040  0.1452
 9697TIP3    H153286   1.125   5.303  11.051  1.0240  0.2435  0.2355
 9697TIP3    H253287   1.105   5.308  10.901  0.4023  0.4973  0.3255
 9698TIP3   OH253288   5.911   5.145  11.274  0.7406 -0.1534  0.1233
 9698TIP3    H153289   5.951   5.076  11.222  0.5884 -1.1075  1.2289
 9698TIP3    H253290   5.898   5.217  11.212 -1.2710 -1.9131 -1.6477
 9699TIP3   OH253291   2.720   3.267  10.480 -0.0470 -0.3985  0.1298
 9699TIP3    H153292   2.748   3.322  10.407 -0.2100  1.7470  1.5883
 9699TIP3    H253293   2.626   3.259  10.470  0.1012 -1.3728 -0.6740
 9700TIP3   OH253294   6.430   0.687  12.911  0.3940  0.0138  0.4610
 9700TIP3    H153295   6.506   0.676  12.968 -0.2137 -1.0098  1.1098
 9700TIP3    H253296   6.375   0.611  12.930 -0.4920  0.4055 -0.4613
 9701TIP3   OH253297   6.590   4.106  12.692  0.3831  0.1233 -0.1223
 9701TIP3    H153298   6.607   4.199  12.704  0.0657  0.2710 -0.7326
 9701TIP3    H253299   6.534   4.082  12.766 -2.6293  1.3048 -1.7996
 9702TIP3   OH253300   0.297   0.342  12.855 -0.3360  0.8469 -0.6669
 9702TIP3    H153301   0.253   0.426  12.870  0.5506  1.2066 -0.0034
 9702TIP3    H253302   0.310   0.306  12.943  1.7983  1.3305 -0.7349
 9703TIP3   OH253303   2.169   5.322   9.880  0.4096 -0.4061  0.0319
 9703TIP3    H153304   2.254   5.361   9.894  0.7408 -0.0286 -2.4678
 9703TIP3    H253305   2.185   5.253   9.816 -1.2321  0.1774 -1.0804
 9704TIP3   OH253306   0.044   4.544  12.180  0.5828 -0.4620 -0.1619
 9704TIP3    H153307   0.025   4.592  12.099 -1.0504 -0.1752  0.3624
 9704TIP3    H253308   0.123   4.586  12.214  0.3299  0.5277 -0.7454
 9705TIP3   OH253309   0.892   5.697  10.181  0.2567 -0.2687  0.7611
 9705TIP3    H153310   0.913   5.755  10.254 -0.4475  1.3909 -0.2954
 9705TIP3    H253311   0.814   5.735  10.141  0.7209 -1.0082 -0.9717
 9706TIP3   OH253312   1.370   0.989  11.724 -0.6797 -0.1097 -0.2078
 9706TIP3    H153313   1.290   0.944  11.696 -1.4054  0.9014  0.1408
 9706TIP3    H253314   1.423   0.921  11.765 -1.1688 -0.8921 -0.8500
 9707TIP3   OH253315   2.435   5.117  10.861 -0.0408  0.0451 -0.5963
 9707TIP3    H153316   2.459   5.024  10.859 -0.5651 -0.0808 -1.8159
 9707TIP3    H253317   2.450   5.147  10.772 -1.2693  0.7725 -0.5736
 9708TIP3   OH253318   0.487   4.523  10.094  0.3154 -0.2601 -0.3793
 9708TIP3    H153319   0.443   4.440  10.075 -0.8852  0.4350 -0.7073
 9708TIP3    H253320   0.577   4.509  10.064 -0.2261 -0.9760 -1.7894
 9709TIP3   OH253321   6.555   1.703  11.530 -0.0529  1.2974  0.0976
 9709TIP3    H153322   6.606   1.689  11.451 -1.2913 -2.1044 -0.2346
 9709TIP3    H253323   6.478   1.754  11.501 -0.4640  0.1383 -0.9091
 9710TIP3   OH253324   1.173   3.838  10.245 -0.5052  0.1975  0.0819
 9710TIP3    H153325   1.251   3.890  10.224  0.6688 -0.7344  1.8809
 9710TIP3    H253326   1.192   3.751  10.211 -2.5106  0.8032 -3.0071
 9711TIP3   OH253327   3.936   3.232  10.980 -0.7111  0.1494  0.2266
 9711TIP3    H153328   3.992   3.199  11.050 -1.7013  0.2984  1.1038
 9711TIP3    H253329   3.859   3.266  11.024 -2.2483 -1.5128 -1.0519
 9712TIP3   OH253330   6.264   1.428   9.595  0.2370  0.0894 -0.1479
 9712TIP3    H153331   6.306   1.351   9.557 -0.4860 -1.3576  1.8163
 9712TIP3    H253332   6.314   1.446   9.675 -1.4283 -0.2476  1.0101
 9713TIP3   OH253333   5.830   4.761   9.511 -0.1533 -0.0680  0.7553
 9713TIP3    H153334   5.755   4.702   9.502  0.2345 -0.5155  0.4076
 9713TIP3    H253335   5.800   4.845   9.477 -0.1918 -0.5036 -0.2954
 9714TIP3   OH253336   2.533   4.229  13.271 -0.3292 -0.1076 -0.1075
 9714TIP3    H153337   2.581   4.312  13.281  0.3272 -0.4927  0.0023
 9714TIP3    H253338   2.601   4.162  13.269 -0.5288 -0.3939 -3.8915
 9715TIP3   OH253339   4.726   0.070  10.805  0.1726 -0.2163 -0.3866
 9715TIP3    H153340   4.638   0.101  10.827 -0.2886 -1.6665 -0.0259
 9715TIP3    H253341   4.722  -0.025  10.822  2.3110 -0.0708  1.2975
 9716TIP3   OH253342   6.068   4.647  11.361 -0.0195 -0.2289 -0.0770
 9716TIP3    H153343   6.001   4.656  11.429  0.7476  1.4590  0.4969
 9716TIP3    H253344   6.139   4.599  11.405 -1.0172 -2.6241 -0.8751
 9717TIP3   OH253345   1.768   0.208  12.893  0.3946  0.2431  0.3542
 9717TIP3    H153346   1.683   0.168  12.915  0.2391  1.2548  1.7103
 9717TIP3    H253347   1.807   0.229  12.978  2.0982 -0.3359 -0.2403
 9718TIP3   OH253348   2.630   3.017  10.047 -0.1962 -0.1081  0.2193
 9718TIP3    H153349   2.655   3.102  10.010 -0.8193 -1.4322 -3.7126
 9718TIP3    H253350   2.713   2.975  10.069  0.6035 -0.5691 -3.1852
 9719TIP3   OH253351   5.342   0.522  13.259  0.7333 -0.1663  0.3643
 9719TIP3    H153352   5.267   0.540  13.203  1.3644  1.1063 -0.1264
 9719TIP3    H253353   5.418   0.540  13.203  1.3952  2.2141  1.8641
 9720TIP3   OH253354   4.835   6.362  11.500  0.7347 -0.1648  0.7399
 9720TIP3    H153355   4.821   6.271  11.472  1.9553 -0.1295 -0.0700
 9720TIP3    H253356   4.887   6.400  11.430 -0.2152  1.3324  0.8170
 9721TIP3   OH253357   0.396   4.542   9.713  0.1293  0.3473 -0.8474
 9721TIP3    H153358   0.359   4.612   9.659 -0.9407 -0.3098 -0.9954
 9721TIP3    H253359   0.484   4.572   9.733 -0.5150  2.0355 -0.3713
 9722TIP3   OH253360   2.662   5.816  10.918  0.0877 -1.0117 -0.2130
 9722TIP3    H153361   2.575   5.827  10.957  0.2435 -1.9198  0.4176
 9722TIP3    H253362   2.707   5.898  10.937 -0.8845 -0.1884 -1.2685
 9723TIP3   OH253363   1.215   5.662  11.848 -0.0038  0.1350  0.3369
 9723TIP3    H153364   1.244   5.577  11.882  0.2953 -0.0961 -0.4831
 9723TIP3    H253365   1.161   5.698  11.918  0.1418 -0.5843  0.8308
 9724TIP3   OH253366   5.312   5.583  10.539 -0.0535  0.2639  0.0769
 9724TIP3    H153367   5.390   5.547  10.496  1.4742  0.8528  2.1945
 9724TIP3    H253368   5.261   5.506  10.563 -0.3787 -0.1143 -1.6941
 9725TIP3   OH253369   5.463   4.715  10.283  0.1921  0.2223  0.2258
 9725TIP3    H153370   5.423   4.788  10.235  0.7096  0.2043 -0.2498
 9725TIP3    H253371   5.513   4.757  10.353  0.5970  0.3376 -0.1282
 9726TIP3   OH253372   2.520   0.358  11.562 -0.0363 -0.1277 -0.4723
 9726TIP3    H153373   2.427   0.379  11.564 -0.2953 -1.0603  2.0898
 9726TIP3    H253374   2.528   0.287  11.498 -0.6829  1.3013 -2.2168
 9727TIP3   OH253375   4.170   5.821  12.057 -0.1314 -0.5831  0.5200
 9727TIP3    H153376   4.098   5.879  12.081  0.8066 -0.1232  2.4192
 9727TIP3    H253377   4.128   5.740  12.030 -1.4567  0.7520 -1.7218
 9728TIP3   OH253378   5.643   1.839  10.888  0.3901 -0.0578 -0.7272
 9728TIP3    H153379   5.596   1.771  10.841  0.0085 -0.6460  0.4762
 9728TIP3    H253380   5.592   1.853  10.968  0.0991  2.0950 -1.2159
 9729TIP3   OH253381   3.327   6.116  11.800 -0.3514 -0.1865 -0.1212
 9729TIP3    H153382   3.409   6.124  11.751 -0.6356  0.6782 -0.4858
 9729TIP3    H253383   3.259   6.135  11.735 -0.7302  1.2691  0.6582
 9730TIP3   OH253384   1.886   2.662  11.873  0.3546  0.4202 -0.2861
 9730TIP3    H153385   1.919   2.681  11.961  0.2887  1.8278 -0.5485
 9730TIP3    H253386   1.806   2.612  11.888  0.4599  0.4617  0.4497
 9731TIP3   OH253387   1.832   3.314  11.873  0.5523  0.1351  0.4409
 9731TIP3    H153388   1.832   3.221  11.849 -0.0163  0.4471 -0.8824
 9731TIP3    H253389   1.899   3.353  11.817 -1.4910  1.0597 -1.5085
 9732TIP3   OH253390   0.188   4.638  10.028  0.8812  0.4881 -0.5548
 9732TIP3    H153391   0.119   4.697  10.058  1.4460  0.7892  0.1770
 9732TIP3    H253392   0.183   4.563  10.088  1.5180  0.7493 -0.1573
 9733TIP3   OH253393   1.836   3.598  10.417  0.5726 -0.5705  0.2129
 9733TIP3    H153394   1.837   3.637  10.330 -1.1558 -1.4289 -0.2303
 9733TIP3    H253395   1.794   3.664  10.472  0.0417 -0.7471  0.0201
 9734TIP3   OH253396   6.394   3.879   9.807 -0.4356  0.6797 -0.3697
 9734TIP3    H153397   6.414   3.969   9.783 -0.2371  1.2864  1.8057
 9734TIP3    H253398   6.473   3.829   9.785 -0.0529  1.2955 -0.3923
 9735TIP3   OH253399   1.320   4.499  11.132  0.1496  0.4046 -0.0054
 9735TIP3    H153400   1.399   4.459  11.096 -0.8936 -0.1266 -1.8408
 9735TIP3    H253401   1.288   4.556  11.062 -0.9643  0.8145  0.8045
 9736TIP3   OH253402   6.328   4.675   9.666 -0.3633 -0.0910  0.4436
 9736TIP3    H153403   6.368   4.712   9.744 -1.2025  0.6798  0.5235
 9736TIP3    H253404   6.251   4.627   9.698 -0.8488  0.4284  0.0796
 9737TIP3   OH253405   0.503   2.346  12.117  0.2940  0.1074 -0.0731
 9737TIP3    H153406   0.437   2.337  12.048  0.3013  1.8842 -0.3678
 9737TIP3    H253407   0.458   2.391  12.188  1.2772  1.9321 -0.5219
 9738TIP3   OH253408   5.174   0.279  10.250 -0.3007  0.1347  0.3744
 9738TIP3    H153409   5.188   0.185  10.261  1.0310  0.4062  1.2779
 9738TIP3    H253410   5.130   0.287  10.166  0.3252 -1.2524 -0.1204
 9739TIP3   OH253411   5.155   4.991   9.682 -0.3034  0.4553 -0.2044
 9739TIP3    H153412   5.072   4.997   9.635  0.9838  0.3908 -2.6679
 9739TIP3    H253413   5.190   5.080   9.683 -0.0382  0.3525  0.0981
 9740TIP3   OH253414   4.134   5.667  12.726 -0.1750 -0.1161 -0.4108
 9740TIP3    H153415   4.161   5.578  12.704 -0.9074 -1.1806  2.5225
 9740TIP3    H253416   4.040   5.668  12.708  0.1939  0.8280 -2.5069
 9741TIP3   OH253417   4.474   3.129  12.300  0.5083  0.1249 -0.0738
 9741TIP3    H153418   4.565   3.156  12.303  0.5427 -0.0949  1.2069
 9741TIP3    H253419   4.461   3.077  12.379 -0.4726 -0.6767 -0.7298
 9742TIP3   OH253420   6.180   0.304  11.468  0.2770  0.1756 -0.1055
 9742TIP3    H153421   6.128   0.250  11.528 -1.2349 -0.1044 -1.5748
 9742TIP3    H253422   6.160   0.394  11.494 -0.5843  0.0608 -0.3255
 9743TIP3   OH253423   3.255   1.723  11.603  0.0178  0.6907  0.1711
 9743TIP3    H153424   3.285   1.813  11.589  1.4508  0.4790  1.5632
 9743TIP3    H253425   3.335   1.670  11.597 -0.6107 -0.3381  0.5693
 9744TIP3   OH253426   5.355   3.011  11.894 -0.1116  0.1646 -0.6299
 9744TIP3    H153427   5.384   3.056  11.815  2.2109  1.1903  0.7097
 9744TIP3    H253428   5.295   2.943  11.863 -0.2884  1.3612 -3.1138
 9745TIP3   OH253429   2.938   6.504  10.931 -0.5861  0.0427  0.0743
 9745TIP3    H153430   2.961   6.494  10.838 -2.5841 -0.7962 -0.3783
 9745TIP3    H253431   3.005   6.562  10.966  0.3116  0.2467 -1.8649
 9746TIP3   OH253432   2.590   5.392  11.352 -0.8769 -0.0147 -0.1613
 9746TIP3    H153433   2.570   5.306  11.315 -2.2202 -0.4520  1.4463
 9746TIP3    H253434   2.528   5.452  11.309  0.3951  0.2889 -1.6530
 9747TIP3   OH253435   4.835   1.623  11.116 -0.2617  0.5838 -0.2735
 9747TIP3    H153436   4.817   1.529  11.106 -0.9808  0.5396  1.2470
 9747TIP3    H253437   4.844   1.655  11.026  0.8759 -1.0963 -0.8021
 9748TIP3   OH253438   0.047   5.671  11.631 -0.5535  0.5511  0.1790
 9748TIP3    H153439  -0.001   5.729  11.571  0.7938  0.4962 -1.0210
 9748TIP3    H253440   0.073   5.728  11.703  0.7580  1.4869 -0.9911
 9749TIP3   OH253441   5.905   0.668  12.412  0.2630  0.2460  0.6453
 9749TIP3    H153442   5.980   0.715  12.449 -0.3823  1.3463  0.6030
 9749TIP3    H253443   5.901   0.587  12.463  1.1843  0.3932  0.9764
 9750TIP3   OH253444   4.370   0.353  10.650  0.1303  0.0319  0.1002
 9750TIP3    H153445   4.331   0.440  10.649  0.8361  0.4621  2.8696
 9750TIP3    H253446   4.458   0.366  10.614  0.6456  0.7513  1.5269
 9751TIP3   OH253447   1.519   1.734  11.950 -0.3089  0.2832  0.5103
 9751TIP3    H153448   1.555   1.654  11.911 -2.7836 -0.5558 -0.2207
 9751TIP3    H253449   1.594   1.775  11.993  0.9003 -2.8613  1.6816
 9752TIP3   OH253450   0.714   2.614  12.291 -0.4782  0.8870 -0.5341
 9752TIP3    H153451   0.684   2.559  12.363  1.7779  1.0135  0.6126
 9752TIP3    H253452   0.740   2.696  12.332  1.1109  0.8743 -1.4176
 9753TIP3   OH253453   5.518   4.165  11.628  0.5580  0.1563  0.2314
 9753TIP3    H153454   5.560   4.089  11.587 -0.0478  0.2513 -0.5957
 9753TIP3    H253455   5.425   4.154  11.607  0.3548  0.6630  0.8657
 9754TIP3   OH253456   5.520   4.070  11.356  0.1500  0.5485 -0.2058
 9754TIP3    H153457   5.615   4.082  11.363  0.3755 -1.0823  0.1505
 9754TIP3    H253458   5.503   4.075  11.262  1.2927 -2.9252 -0.7843
 9755TIP3   OH253459   3.569   4.968  10.972 -0.5419  0.2537 -0.0758
 9755TIP3    H153460   3.613   5.053  10.978  1.0799 -0.6561  1.9654
 9755TIP3    H253461   3.519   4.960  11.053  1.9871 -2.0518  1.4084
 9756TIP3   OH253462   4.363   1.434  11.940  0.1243  0.0564  0.1386
 9756TIP3    H153463   4.304   1.466  12.009  1.3461 -0.0488  1.2691
 9756TIP3    H253464   4.441   1.406  11.987  0.4056 -1.4492 -1.1731
 9757TIP3   OH253465   0.299   5.311  13.074 -0.0488  0.3545 -0.0459
 9757TIP3    H153466   0.251   5.229  13.060 -1.7546  1.3364 -0.2829
 9757TIP3    H253467   0.379   5.301  13.023 -0.2021 -1.1564 -0.0514
 9758TIP3   OH253468   0.997   3.543  12.277 -0.4820 -0.0581 -0.4275
 9758TIP3    H153469   1.036   3.628  12.294 -1.4900  0.1252  1.1759
 9758TIP3    H253470   1.044   3.483  12.335  1.1074 -0.8938 -2.4578
 9759TIP3   OH253471   0.269   0.602  10.986 -0.0926  0.0050 -0.7299
 9759TIP3    H153472   0.328   0.533  11.016  0.4005 -0.3318 -2.3544
 9759TIP3    H253473   0.313   0.639  10.910 -1.9947 -0.3056 -2.0513
 9760TIP3   OH253474   4.260   2.809   9.918  0.3309  0.3144  0.0695
 9760TIP3    H153475   4.255   2.733   9.976 -3.0504 -0.7316 -1.3197
 9760TIP3    H253476   4.303   2.775   9.839  2.5805  1.0471  0.9159
 9761TIP3   OH253477   3.186   4.713  12.733 -1.0099 -0.4200 -0.1163
 9761TIP3    H153478   3.102   4.686  12.770  0.0435 -1.7536  1.3972
 9761TIP3    H253479   3.225   4.632  12.700 -0.0055  0.0585 -0.1437
 9762TIP3   OH253480   5.901   4.497   9.916 -0.3184 -0.8617 -0.3336
 9762TIP3    H153481   5.820   4.517   9.962  0.0837  1.1595 -0.4279
 9762TIP3    H253482   5.921   4.407   9.942 -2.8646 -1.6363 -0.7769
 9763TIP3   OH253483   4.511   3.869  10.318 -0.1037  0.3541 -0.0165
 9763TIP3    H153484   4.571   3.799  10.293  0.0854  0.4892  0.0588
 9763TIP3    H253485   4.522   3.936  10.250  2.0626  1.7247  1.5705
 9764TIP3   OH253486   2.543   5.992  10.477  0.0370  0.0210  1.0367
 9764TIP3    H153487   2.634   6.018  10.460  0.1862 -1.2099 -0.2708
 9764TIP3    H253488   2.517   6.044  10.552  2.4196 -0.8595  2.5905
 9765TIP3   OH253489   3.824   0.879  10.983  0.0892 -0.2826  0.1365
 9765TIP3    H153490   3.895   0.937  10.956 -0.5274  0.2886 -0.3004
 9765TIP3    H253491   3.757   0.937  11.019 -0.2175 -0.7978  0.4219
 9766TIP3   OH253492   4.459   4.268  10.910  0.1406  0.1753 -0.2080
 9766TIP3    H153493   4.424   4.190  10.869 -0.5836  0.3969 -0.0346
 9766TIP3    H253494   4.512   4.310  10.842 -1.2647  0.6911 -1.0424
 9767TIP3   OH253495   4.657   3.423  11.437 -0.0831 -0.6761  0.3338
 9767TIP3    H153496   4.682   3.471  11.358  0.9348  0.7134  1.4422
 9767TIP3    H253497   4.593   3.479  11.480 -0.5903 -1.4022  0.5530
 9768TIP3   OH253498   3.577   0.913  12.001 -0.2765  0.4983  0.1489
 9768TIP3    H153499   3.486   0.895  11.980 -0.1850  0.4671 -0.2282
 9768TIP3    H253500   3.599   0.852  12.072  0.0620 -0.9779 -1.1624
 9769TIP3   OH253501   0.871   1.576  10.102  0.4083  0.3045 -0.1273
 9769TIP3    H153502   0.849   1.527  10.023  1.3862  2.5103 -1.8466
 9769TIP3    H253503   0.860   1.668  10.078 -2.7846  1.0793  3.3870
 9770TIP3   OH253504   4.407   4.034  10.107  0.3458 -0.1099  0.0844
 9770TIP3    H153505   4.371   4.118  10.078 -2.7613 -1.6633 -0.8926
 9770TIP3    H253506   4.473   4.012  10.041 -0.7126  0.3434 -1.1614
 9771TIP3   OH253507   6.430   6.669   9.670  0.4148 -0.3772  0.1739
 9771TIP3    H153508   6.491   6.663   9.744  0.0762  0.5992  0.5438
 9771TIP3    H253509   6.457   6.598   9.612  1.1191 -0.7379  0.9117
 9772TIP3   OH253510   0.111   5.520  13.049 -0.3837 -0.1993  0.1389
 9772TIP3    H153511   0.180   5.454  13.050 -0.5309 -0.3672  1.9038
 9772TIP3    H253512   0.148   5.594  13.098 -0.9861  0.2191 -0.0253
 9773TIP3   OH253513   4.767   5.289   9.922  0.7426  0.2653  0.0638
 9773TIP3    H153514   4.716   5.358   9.964  0.8853  0.8173 -0.6537
 9773TIP3    H253515   4.857   5.306   9.950  0.8809  0.8227 -0.7150
 9774TIP3   OH253516   6.657   6.062  12.769  0.3047  0.3664  0.2139
 9774TIP3    H153517   6.705   5.994  12.815 -0.1346 -0.0644  0.0476
 9774TIP3    H253518   6.591   6.014  12.718 -0.8191  0.9869  1.0530
 9775TIP3   OH253519   5.581   6.149   9.322 -0.1177 -0.1774  0.2889
 9775TIP3    H153520   5.590   6.066   9.368  0.0708 -0.6221 -0.5314
 9775TIP3    H253521   5.507   6.136   9.263  1.7356 -0.8191 -2.0265
 9776TIP3   OH253522   3.892   3.147  10.696 -0.0230 -0.2824 -0.2143
 9776TIP3    H153523   3.910   3.148  10.790 -1.0038  1.5682  0.0007
 9776TIP3    H253524   3.803   3.112  10.690 -0.1597  0.0935 -0.3983
 9777TIP3   OH253525   0.665   0.277  11.343  0.2510  0.1073  0.1635
 9777TIP3    H153526   0.716   0.320  11.274 -0.9952  1.7307  0.2115
 9777TIP3    H253527   0.717   0.199  11.365  1.8480  0.7930 -0.9489
 9778TIP3   OH253528   5.086   4.718   9.420 -0.7814 -0.7850 -0.2224
 9778TIP3    H153529   5.134   4.661   9.361 -0.8440 -2.0893  0.9337
 9778TIP3    H253530   5.122   4.699   9.507 -0.7939  0.9638  0.1992
 9779TIP3   OH253531   3.731   1.708  12.563  0.2956 -0.2354  0.1410
 9779TIP3    H153532   3.690   1.639  12.512  1.2241 -0.2593 -0.5889
 9779TIP3    H253533   3.726   1.786  12.508  0.4997 -0.0453  0.3846
 9780TIP3   OH253534   0.852   6.172  10.455  0.3817  0.1630  0.4750
 9780TIP3    H153535   0.941   6.188  10.424  0.0369  2.3747  0.4195
 9780TIP3    H253536   0.798   6.173  10.376  0.1786 -0.1443  0.6071
 9781TIP3   OH253537   4.783   1.055  11.317  0.2056 -0.7337  0.1428
 9781TIP3    H153538   4.740   0.972  11.299  0.5641 -0.7452 -0.7000
 9781TIP3    H253539   4.808   1.088  11.231  1.0512 -0.2796  0.5537
 9782TIP3   OH253540   5.504   0.701  11.261 -0.5717 -0.0862  0.3842
 9782TIP3    H153541   5.570   0.726  11.197 -0.0631 -1.9939  0.0929
 9782TIP3    H253542   5.482   0.610  11.239 -2.5775  0.1699  1.0894
 9783TIP3   OH253543   4.804   0.144  11.226 -0.5244 -0.1523 -0.2588
 9783TIP3    H153544   4.859   0.135  11.304 -0.0636 -0.5094 -0.6147
 9783TIP3    H253545   4.732   0.201  11.253 -0.0826  0.1638  0.2783
 9784TIP3   OH253546   2.868   2.798  11.318  0.0772 -0.1572  0.4045
 9784TIP3    H153547   2.908   2.882  11.337  0.1316  0.2717 -1.4148
 9784TIP3    H253548   2.786   2.820  11.274  0.2589 -1.0399 -0.4090
 9785TIP3   OH253549   3.482   0.795  10.840 -0.0819 -0.0666  0.0066
 9785TIP3    H153550   3.490   0.882  10.800  0.0804 -0.4670 -0.8374
 9785TIP3    H253551   3.421   0.747  10.784 -0.0349 -0.5586  0.3695
 9786TIP3   OH253552   0.117   1.200  10.982  0.2859  0.2507 -0.1627
 9786TIP3    H153553   0.085   1.139  11.049  2.0943 -0.9883 -0.3422
 9786TIP3    H253554   0.038   1.237  10.944 -0.9089 -1.7357  0.2165
 9787TIP3   OH253555   4.416   3.443  10.197  0.6367 -0.1310 -0.4437
 9787TIP3    H153556   4.455   3.374  10.144  1.6404 -0.2791  0.4426
 9787TIP3    H253557   4.355   3.397  10.255 -0.3646  0.0160 -1.3543
 9788TIP3   OH253558   6.185   5.671  11.596 -0.2003 -0.3540  0.4882
 9788TIP3    H153559   6.115   5.729  11.628 -0.7402 -0.4730 -0.4601
 9788TIP3    H253560   6.150   5.583  11.607  0.5918 -0.5327  1.8519
 9789TIP3   OH253561   5.637   5.331  13.022 -0.2956 -0.3203  0.0438
 9789TIP3    H153562   5.652   5.241  12.995 -0.8988 -0.8401  1.3838
 9789TIP3    H253563   5.704   5.349  13.087  0.5713  0.6226 -1.0504
 9790TIP3   OH253564   6.367   2.888   9.633  0.1721 -0.3572 -0.0878
 9790TIP3    H153565   6.437   2.952   9.648  0.2273 -0.4680  0.1221
 9790TIP3    H253566   6.373   2.828   9.707  0.3890 -0.8478 -0.4953
 9791TIP3   OH253567   1.335   2.043   9.953  0.0070 -0.2141 -0.0242
 9791TIP3    H153568   1.276   2.098   9.900 -0.4123 -1.3081 -0.7389
 9791TIP3    H253569   1.387   1.996   9.888  1.6308  0.6422  0.6007
 9792TIP3   OH253570   6.345   6.585  11.942 -0.0781  0.9420 -0.4801
 9792TIP3    H153571   6.396   6.517  11.898  2.4518 -0.6824  4.2251
 9792TIP3    H253572   6.396   6.665  11.930  1.6702  0.1091  0.9905
 9793TIP3   OH253573   2.385   2.659  11.591 -0.1393 -0.0578 -0.2122
 9793TIP3    H153574   2.312   2.601  11.570 -0.7519  0.1726  1.2177
 9793TIP3    H253575   2.379   2.729  11.525 -0.3428 -0.7758 -0.9687
 9794TIP3   OH253576   2.374   4.129  12.584  0.5671 -0.3220 -0.4531
 9794TIP3    H153577   2.287   4.163  12.603  0.5267 -1.7338  2.4575
 9794TIP3    H253578   2.358   4.052  12.529  0.0573 -0.0002 -0.7598
 9795TIP3   OH253579   2.658   4.336  10.135 -0.3709 -0.5891 -0.0629
 9795TIP3    H153580   2.707   4.376  10.062 -1.1659 -0.8128 -0.7272
 9795TIP3    H253581   2.715   4.348  10.211  1.5794 -2.4724 -1.1235
 9796TIP3   OH253582   3.308   3.490  12.466  0.1253 -0.5199 -0.2176
 9796TIP3    H153583   3.297   3.572  12.417 -0.3575 -0.9648 -0.8703
 9796TIP3    H253584   3.276   3.422  12.407 -2.4142 -0.8841  1.4392
 9797TIP3   OH253585   0.303   1.698   9.672  0.3549 -0.3747  0.2161
 9797TIP3    H153586   0.321   1.792   9.685 -0.5919 -0.2477  0.6938
 9797TIP3    H253587   0.389   1.657   9.673  1.0052  0.7582 -2.4021
 9798TIP3   OH253588   1.409   1.475  12.115  0.2148  0.1962 -0.0416
 9798TIP3    H153589   1.331   1.456  12.064 -1.4912  0.3904  2.3368
 9798TIP3    H253590   1.404   1.569  12.132  1.0388  0.2334  0.0570
 9799TIP3   OH253591   5.673   1.559  10.116  0.5882  0.0019 -0.0230
 9799TIP3    H153592   5.662   1.564  10.021 -0.0847  0.8307  0.0831
 9799TIP3    H253593   5.756   1.602  10.133  0.1120  1.0038 -0.1385
 9800TIP3   OH253594   1.627   6.019  12.380 -0.0924 -0.4978  0.0754
 9800TIP3    H153595   1.673   6.101  12.400 -0.5109 -0.0678 -0.6602
 9800TIP3    H253596   1.576   6.039  12.301  0.6539 -1.7716 -0.7848
 9801TIP3   OH253597   1.550   6.443  10.155  0.1324  0.6802 -0.2455
 9801TIP3    H153598   1.615   6.463  10.088  1.3208 -0.5004  0.5136
 9801TIP3    H253599   1.561   6.511  10.221  1.1086  0.0807  0.2206
 9802TIP3   OH253600   1.199   3.473  12.064  0.6351  0.1527 -0.1403
 9802TIP3    H153601   1.129   3.526  12.103  1.2944  0.7798  0.2086
 9802TIP3    H253602   1.258   3.537  12.024  1.8194 -0.2372  0.9077
 9803TIP3   OH253603   1.772   0.116  11.016  0.4315 -0.3417 -0.4163
 9803TIP3    H153604   1.709   0.071  10.959  3.2369 -2.6199 -1.9527
 9803TIP3    H253605   1.812   0.182  10.960  0.2336  0.3541  0.2397
 9804TIP3   OH253606   2.520   2.849   9.793  0.5088  0.1335  0.0954
 9804TIP3    H153607   2.562   2.905   9.728  1.6519 -0.1232  0.5795
 9804TIP3    H253608   2.524   2.900   9.874 -0.0561  0.0713  0.1649
 9805TIP3   OH253609   3.750   3.554  10.185  0.1172 -0.0983  0.8122
 9805TIP3    H153610   3.842   3.526  10.178  0.4566  1.0097  0.6995
 9805TIP3    H253611   3.746   3.634  10.133 -0.9652 -0.2271  0.6794
 9806TIP3   OH253612   4.932   6.333  10.803  0.1944  0.1732  0.1894
 9806TIP3    H153613   4.945   6.339  10.898  1.2475 -1.5629  0.2069
 9806TIP3    H253614   4.966   6.247  10.780  1.2658  1.1116 -1.9985
 9807TIP3   OH253615   4.133   2.198   9.539  0.1483  0.4294  0.0502
 9807TIP3    H153616   4.053   2.167   9.498  1.2562  0.3383 -2.1674
 9807TIP3    H253617   4.173   2.119   9.576  0.2794  0.1122 -0.7636
 9808TIP3   OH253618   0.953   6.383  12.804  0.4440  0.3382  0.1408
 9808TIP3    H153619   0.866   6.411  12.774  1.1039  0.7419 -1.4796
 9808TIP3    H253620   0.934   6.317  12.871 -1.1422 -0.8495 -1.3709
 9809TIP3   OH253621   1.797   3.458  10.806 -0.3461 -0.2669 -0.2977
 9809TIP3    H153622   1.864   3.523  10.783  0.2337  0.4522  2.8927
 9809TIP3    H253623   1.742   3.451  10.728  1.0653  2.1573 -1.6282
 9810TIP3   OH253624   5.682   0.138   9.309  0.3384  0.3357 -0.1611
 9810TIP3    H153625   5.624   0.186   9.368  1.0457  0.9361  0.0513
 9810TIP3    H253626   5.767   0.180   9.319  0.9857 -0.9571  0.0450
 9811TIP3   OH253627   6.481   1.599  12.229  0.3916 -0.7214 -0.0161
 9811TIP3    H153628   6.437   1.643  12.156  1.5034  1.3110  0.4641
 9811TIP3    H253629   6.411   1.552  12.275 -0.8293  0.3859 -0.6962
 9812TIP3   OH253630   4.215   6.486  12.825 -0.7934 -0.6873 -0.5318
 9812TIP3    H153631   4.211   6.537  12.906  0.2227 -0.1063 -0.8302
 9812TIP3    H253632   4.181   6.545  12.758  0.7601 -0.2174 -0.9477
 9813TIP3   OH253633   4.187   3.490  10.712  0.0930  0.1700  0.0236
 9813TIP3    H153634   4.209   3.396  10.712 -0.9680 -0.0824 -0.0793
 9813TIP3    H253635   4.170   3.510  10.621  0.8183  0.5929 -0.0235
 9814TIP3   OH253636   1.541   2.496  11.310 -0.5349  0.1734  0.5118
 9814TIP3    H153637   1.620   2.488  11.364 -0.3476  1.3341  0.4353
 9814TIP3    H253638   1.544   2.420  11.252  1.1378  0.7711 -0.2513
 9815TIP3   OH253639   4.742   1.550  11.566  0.4075 -0.1717 -0.5719
 9815TIP3    H153640   4.675   1.618  11.575  2.5570  2.0342 -0.1910
 9815TIP3    H253641   4.726   1.512  11.480 -1.4033  0.1794 -0.4256
 9816TIP3   OH253642   2.339   1.182  10.709 -0.0844 -0.1488 -0.1066
 9816TIP3    H153643   2.423   1.216  10.742  0.1985 -1.1444  0.2329
 9816TIP3    H253644   2.276   1.203  10.778  0.3579 -1.5239  0.7547
 9817TIP3   OH253645   4.272   1.811  10.633 -0.0529 -0.0620 -0.0741
 9817TIP3    H153646   4.194   1.807  10.577 -0.8422 -0.7014  1.0475
 9817TIP3    H253647   4.314   1.726  10.622 -0.3461 -0.2816  0.4942
 9818TIP3   OH253648   4.596   3.459  10.578  0.4527 -0.0109  0.5402
 9818TIP3    H153649   4.686   3.464  10.610  0.0306  0.6133  1.6989
 9818TIP3    H253650   4.597   3.391  10.511  1.5855 -0.6784  1.2215
 9819TIP3   OH253651   1.364   6.386   9.632  0.7225  0.0332 -0.1173
 9819TIP3    H153652   1.429   6.456   9.636 -0.2371  0.8944  1.6761
 9819TIP3    H253653   1.280   6.431   9.634  0.0835 -1.1462  0.3368
 9820TIP3   OH253654   3.787   1.459  11.192 -0.2681  0.5314 -0.1692
 9820TIP3    H153655   3.695   1.468  11.220 -0.6306 -1.2809 -0.6064
 9820TIP3    H253656   3.824   1.547  11.201 -0.8188  0.5490  4.2697
 9821TIP3   OH253657   0.965   4.065  10.786  0.2016  0.3938  0.4240
 9821TIP3    H153658   0.882   4.070  10.738  0.1283 -0.0414  0.5008
 9821TIP3    H253659   0.940   4.069  10.878  0.3867  1.8374  0.4312
 9822TIP3   OH253660   5.546   5.977  11.153 -0.3248 -0.1359  0.4502
 9822TIP3    H153661   5.632   5.934  11.149  0.0796  0.5930  1.0651
 9822TIP3    H253662   5.554   6.052  11.095 -0.8755 -0.6057 -0.2501
 9823TIP3   OH253663   5.093   1.117  12.355  0.3377 -0.0628 -0.7790
 9823TIP3    H153664   5.113   1.133  12.263  0.9461 -0.6749 -0.7658
 9823TIP3    H253665   5.167   1.154  12.403  0.0822  0.1472 -0.5466
 9824TIP3   OH253666   0.353   3.548  11.239  0.0863  0.2082  0.2099
 9824TIP3    H153667   0.305   3.603  11.301 -0.2979  1.1511 -0.8989
 9824TIP3    H253668   0.444   3.576  11.247  0.0071  0.4666  0.2216
 9825TIP3   OH253669   3.043   1.015   9.656  0.3636 -0.5295  0.6722
 9825TIP3    H153670   3.007   1.100   9.635  0.2295 -0.0411  2.6366
 9825TIP3    H253671   3.137   1.024   9.640  0.0890 -0.7226 -1.1807
 9826TIP3   OH253672   5.332   1.900  11.397 -0.3014 -0.2811  0.4651
 9826TIP3    H153673   5.254   1.923  11.447  0.1915  0.8536  0.7319
 9826TIP3    H253674   5.389   1.976  11.405  0.4570 -0.7321 -0.4906
 9827TIP3   OH253675   1.365   6.522  13.112  0.5889 -0.2668  0.4523
 9827TIP3    H153676   1.308   6.564  13.177  1.5051  0.0882  1.0426
 9827TIP3    H253677   1.446   6.505  13.159  0.4803 -2.1016  0.0235
 9828TIP3   OH253678   0.884   3.451  11.864 -0.0667 -0.2632  0.0855
 9828TIP3    H153679   0.946   3.384  11.893 -0.3773 -1.0305 -0.9705
 9828TIP3    H253680   0.842   3.413  11.787 -1.3536  0.5359  0.3715
 9829TIP3   OH253681   3.232   2.904  10.853 -0.4106  0.8145  0.1726
 9829TIP3    H153682   3.201   2.938  10.769  0.0467  0.1321 -0.2792
 9829TIP3    H253683   3.152   2.877  10.899 -0.5955  0.1447 -0.5144
 9830TIP3   OH253684   5.343   3.497  13.065  0.4878  0.3461 -0.0669
 9830TIP3    H153685   5.336   3.407  13.032  1.5487  0.4303 -0.5632
 9830TIP3    H253686   5.261   3.539  13.040 -0.5178 -0.7799  1.1550
 9831TIP3   OH253687   0.959   6.407   9.962 -0.3390  0.2883  0.2583
 9831TIP3    H153688   0.893   6.454   9.911  0.1957  0.2877 -0.4568
 9831TIP3    H253689   0.943   6.433  10.052 -0.7800  0.9426  0.0006
 9832TIP3   OH253690   6.402   0.989  12.061 -0.1052  0.1236  0.0571
 9832TIP3    H153691   6.447   1.037  11.991 -0.2801  0.2537  0.0344
 9832TIP3    H253692   6.361   1.057  12.115 -0.0395  0.0193  0.2401
 9833TIP3   OH253693   5.250   4.769  12.054  0.2132 -0.0896 -0.6604
 9833TIP3    H153694   5.206   4.848  12.086  1.8925  0.2941  0.8592
 9833TIP3    H253695   5.197   4.697  12.090  0.6890  0.3643  1.0621
 9834TIP3   OH253696   2.650   5.641  12.238 -0.1476 -0.0119  0.4526
 9834TIP3    H153697   2.612   5.559  12.269  2.1436 -0.8011  1.4180
 9834TIP3    H253698   2.733   5.648  12.285  0.6621  1.8547 -1.1141
 9835TIP3   OH253699   2.657   1.145  12.716  0.1161  0.3447 -0.3708
 9835TIP3    H153700   2.742   1.162  12.676  1.0046  0.3240  1.3945
 9835TIP3    H253701   2.639   1.223  12.768 -0.0189 -0.4317  0.7792
 9836TIP3   OH253702   3.547   1.100   9.433 -0.4648 -0.3334 -0.0519
 9836TIP3    H153703   3.577   1.190   9.421 -3.2173  0.6670 -0.1542
 9836TIP3    H253704   3.552   1.061   9.346 -0.7296  0.2387 -0.3294
 9837TIP3   OH253705   4.132   6.056  10.479 -0.3247  0.5159 -0.6215
 9837TIP3    H153706   4.176   6.138  10.454  0.4925  0.8389  1.6351
 9837TIP3    H253707   4.204   5.997  10.504 -0.9680 -0.5710 -1.2381
 9838TIP3   OH253708   2.833   4.455   9.941 -0.0215  0.0540  0.6899
 9838TIP3    H153709   2.778   4.380   9.915  0.7441 -0.7453  1.3210
 9838TIP3    H253710   2.865   4.491   9.858  0.1806 -0.7761  0.3972
 9839TIP3   OH253711   4.823   2.922  10.400  0.0582 -0.0340 -0.8561
 9839TIP3    H153712   4.821   2.830  10.427  0.3025  0.4194  0.7773
 9839TIP3    H253713   4.895   2.926  10.336  0.9611 -0.7333  0.0848
 9840TIP3   OH253714   5.391   5.151   9.340 -0.1091 -0.3134 -0.4025
 9840TIP3    H153715   5.300   5.180   9.334  0.1158  0.3195 -0.8835
 9840TIP3    H253716   5.416   5.129   9.250  0.8018  1.4247 -0.6282
 9841TIP3   OH253717   2.249   5.560  12.407 -0.2299  0.0101 -0.1114
 9841TIP3    H153718   2.175   5.501  12.420 -0.1532 -0.4224 -1.4180
 9841TIP3    H253719   2.224   5.613  12.332  1.2638 -1.0322 -1.4234
 9842TIP3   OH253720   0.542   1.261   9.766 -0.4586 -0.3840  0.7758
 9842TIP3    H153721   0.481   1.188   9.764 -1.8966  0.7844  0.2188
 9842TIP3    H253722   0.496   1.329   9.816 -0.2205  1.0081 -0.8238
 9843TIP3   OH253723   0.832   4.440  12.896 -0.6681 -0.6270  0.3340
 9843TIP3    H153724   0.768   4.399  12.838 -0.4407 -0.3859 -0.0990
 9843TIP3    H253725   0.896   4.478  12.836  0.0848 -1.1947  0.7639
 9844TIP3   OH253726   0.017   3.428  12.420 -0.6187 -0.2452  0.0312
 9844TIP3    H153727  -0.000   3.512  12.379 -1.8412 -0.6595 -0.3624
 9844TIP3    H253728   0.110   3.411  12.404 -0.8827 -0.0218 -1.8877
 9845TIP3   OH253729   4.740   6.260  12.147 -0.1903 -0.7965 -0.6216
 9845TIP3    H153730   4.735   6.350  12.114 -2.7875 -0.0494  1.4742
 9845TIP3    H253731   4.812   6.262  12.210  0.7125 -0.5940 -1.6376
 9846TIP3   OH253732   2.125   5.704  10.500  0.0201  0.1913 -0.4654
 9846TIP3    H153733   2.141   5.661  10.584 -0.7133  1.2188  0.2188
 9846TIP3    H253734   2.212   5.711  10.460  0.7210  1.5608  1.1520
 9847TIP3   OH253735   3.536   2.638  12.526 -0.1583 -0.3619  1.0134
 9847TIP3    H153736   3.491   2.715  12.491  0.3273 -0.5967 -0.1839
 9847TIP3    H253737   3.524   2.644  12.621  1.0889  1.9771  1.1014
 9848TIP3   OH253738   0.386   0.804   9.505  0.1591  0.4210  0.2288
 9848TIP3    H153739   0.477   0.827   9.490  1.0097 -2.5313  0.1038
 9848TIP3    H253740   0.362   0.750   9.429 -1.9687  1.6857 -0.1029
 9849TIP3   OH253741   5.781   5.351  12.508  0.9150  0.5554 -0.3324
 9849TIP3    H153742   5.778   5.366  12.603  2.5351 -1.3273  0.0907
 9849TIP3    H253743   5.690   5.340  12.483  0.4105  1.6555  0.9060
 9850TIP3   OH253744   5.593   0.538  11.850  0.0043  0.3948 -0.5718
 9850TIP3    H153745   5.619   0.580  11.932  1.3671 -0.7307 -0.3719
 9850TIP3    H253746   5.654   0.573  11.785  0.6995 -0.7038 -0.5382
 9851TIP3   OH253747   3.660   4.819  10.710  0.1320  0.6659  0.0606
 9851TIP3    H153748   3.743   4.806  10.756 -0.2916 -0.5606  0.5141
 9851TIP3    H253749   3.599   4.851  10.777 -0.8908 -2.5466  0.8050
 9852TIP3   OH253750   4.463   5.715  10.630 -0.4164 -0.0285  0.2626
 9852TIP3    H153751   4.387   5.669  10.594  0.3565  0.3583 -2.0834
 9852TIP3    H253752   4.527   5.645  10.647 -0.5004 -0.1596  0.0548
 9853TIP3   OH253753   0.655   5.790  12.061  0.1706 -0.0889 -0.1643
 9853TIP3    H153754   0.587   5.725  12.043 -0.4859  0.5746 -0.1299
 9853TIP3    H253755   0.609   5.860  12.108  0.3036  1.4858 -2.2278
 9854TIP3   OH253756   3.399   5.627  13.298  0.0524 -0.8483 -0.1957
 9854TIP3    H153757   3.409   5.677  13.379 -0.3906 -1.2088  0.0839
 9854TIP3    H253758   3.305   5.620  13.285  0.0861 -1.9817  0.0168
 9855TIP3   OH253759   5.170   5.388   9.462  0.4446  0.1284  0.4657
 9855TIP3    H153760   5.172   5.469   9.513 -1.5201  0.6620 -0.2310
 9855TIP3    H253761   5.078   5.375   9.440  0.7267 -2.2164  0.3802
 9856TIP3   OH253762   4.002   3.944  10.460 -0.2175  0.4467 -0.5381
 9856TIP3    H153763   3.957   3.859  10.464 -0.6535  0.5983 -1.8481
 9856TIP3    H253764   4.072   3.932  10.397 -0.4307  1.1304 -0.9137
 9857TIP3   OH253765   1.413   1.926   9.720 -0.2511  0.2482  0.6531
 9857TIP3    H153766   1.500   1.886   9.718 -0.3851 -0.0639  0.9797
 9857TIP3    H253767   1.356   1.861   9.679 -0.0667  1.1532 -1.1597
 9858TIP3   OH253768   1.488   2.996  12.519  0.3771  0.0070 -0.5812
 9858TIP3    H153769   1.495   3.091  12.522  0.8114 -0.0596  0.8649
 9858TIP3    H253770   1.575   2.964  12.543 -0.1032 -0.7622  0.1708
 9859TIP3   OH253771   0.503   1.589   9.857  0.2945 -0.5860 -0.1279
 9859TIP3    H153772   0.429   1.645   9.881  1.0008 -0.1654  1.1092
 9859TIP3    H253773   0.500   1.518   9.920 -0.4881 -1.9196 -1.5731
 9860TIP3   OH253774   2.947   3.498  11.193  0.4084  0.1138  0.7054
 9860TIP3    H153775   2.857   3.529  11.202  0.6236  0.6440  1.0999
 9860TIP3    H253776   2.972   3.524  11.104  0.4641  0.7829  0.9050
 9861TIP3   OH253777   3.163   2.716   9.666 -0.4057 -0.3684  0.3875
 9861TIP3    H153778   3.213   2.692   9.744 -1.0850 -0.2935  0.8464
 9861TIP3    H253779   3.189   2.651   9.600  1.5653  0.6332  0.0919
 9862TIP3   OH253780   4.335   1.193  11.777 -0.5020  0.1015  0.0547
 9862TIP3    H153781   4.368   1.278  11.807  1.2578 -0.1373 -1.0004
 9862TIP3    H253782   4.371   1.130  11.840 -1.8960  0.1187  0.8998
 9863TIP3   OH253783   0.434   6.249  11.136 -0.1333 -0.4577 -0.2938
 9863TIP3    H153784   0.434   6.189  11.211  1.3654 -0.0918  0.0271
 9863TIP3    H253785   0.406   6.194  11.062 -0.1878 -1.1840  0.2503
 9864TIP3   OH253786   5.084   2.710  12.411 -0.1694 -0.3676 -0.3641
 9864TIP3    H153787   5.071   2.789  12.462  0.5908 -0.0453 -0.6603
 9864TIP3    H253788   5.172   2.680  12.435 -0.7612 -1.5874  0.3760
 9865TIP3   OH253789   5.210   0.256  10.867  0.4345 -0.6003  0.0302
 9865TIP3    H153790   5.118   0.232  10.878 -0.2614  1.6554 -0.4386
 9865TIP3    H253791   5.249   0.182  10.820 -1.8797 -0.2767 -2.6186
 9866TIP3   OH253792   1.824   6.377  10.025  0.0466  0.1861 -0.2967
 9866TIP3    H153793   1.902   6.375   9.969 -0.7372  1.0936 -1.4810
 9866TIP3    H253794   1.853   6.421  10.105  0.9250 -0.1596 -0.4089
 9867TIP3   OH253795   1.654   2.290  12.558 -0.0726  0.5532  0.2163
 9867TIP3    H153796   1.692   2.260  12.641  0.8416 -1.5784 -0.8823
 9867TIP3    H253797   1.695   2.235  12.492 -2.3447  0.7329 -1.4669
 9868TIP3   OH253798   0.170   0.158  11.432  0.5405  0.0104 -0.5297
 9868TIP3    H153799   0.098   0.221  11.428 -1.3104 -1.9555 -0.6589
 9868TIP3    H253800   0.225   0.179  11.357  0.5618  2.0644  0.0201
 9869TIP3   OH253801   1.540   0.097   9.551  0.2458 -0.1291 -0.9019
 9869TIP3    H153802   1.617   0.150   9.574  0.6163 -0.7375 -0.6984
 9869TIP3    H253803   1.560   0.010   9.587  0.1285 -0.7001 -2.1479
 9870TIP3   OH253804   4.321   0.018   9.752 -0.5549 -0.0438 -0.6521
 9870TIP3    H153805   4.382   0.089   9.772 -1.2514  0.9931 -2.0033
 9870TIP3    H253806   4.361  -0.060   9.790  0.1340  1.0881  1.0450
 9871TIP3   OH253807   5.966   1.211  10.775 -0.2825 -0.0969  0.3346
 9871TIP3    H153808   5.948   1.129  10.822 -0.0639 -0.5982 -0.4263
 9871TIP3    H253809   5.900   1.272  10.808 -0.5184 -0.6098  0.8426
 9872TIP3   OH253810   4.957   6.665  10.390 -0.1186  0.0304 -0.3855
 9872TIP3    H153811   4.930   6.693  10.477 -0.0930 -0.3731 -0.2489
 9872TIP3    H253812   4.999   6.581  10.403 -2.1222 -1.1591 -1.0466
 9873TIP3   OH253813   5.141   0.332   9.825  0.8943  0.0611 -0.0868
 9873TIP3    H153814   5.140   0.283   9.742  0.6662  0.3356 -0.2494
 9873TIP3    H253815   5.219   0.387   9.819  0.2321  0.9632 -0.6467
 9874TIP3   OH253816   6.059   3.549  12.524  0.1809 -0.0748 -0.1123
 9874TIP3    H153817   6.067   3.633  12.569  0.9041  0.4978 -1.2879
 9874TIP3    H253818   6.118   3.490  12.572  1.0908  0.5814 -0.4002
 9875TIP3   OH253819   6.479   4.500  10.479 -0.1648  0.5008 -0.0768
 9875TIP3    H153820   6.536   4.574  10.499  0.1090  0.0525  0.8392
 9875TIP3    H253821   6.532   4.423  10.495 -1.3511  0.0394  1.9952
 9876TIP3   OH253822   4.320   5.712   9.520 -0.2974  0.4208  0.1040
 9876TIP3    H153823   4.335   5.742   9.610 -0.4961 -0.1076  0.3192
 9876TIP3    H253824   4.290   5.621   9.530 -1.1607  0.6292 -0.4445
 9877TIP3   OH253825   5.092   6.420  11.660 -0.3758  0.0735  0.0423
 9877TIP3    H153826   5.008   6.377  11.676  1.0522 -2.3488  1.6772
 9877TIP3    H253827   5.086   6.503  11.707 -1.7742 -0.1569  0.3072
 9878TIP3   OH253828   3.165   3.325  11.749  0.0173  0.1545 -0.1812
 9878TIP3    H153829   3.220   3.374  11.810 -1.3861 -0.9913  2.1428
 9878TIP3    H253830   3.080   3.369  11.752 -0.1284 -0.0422 -1.1832
 9879TIP3   OH253831   5.443   5.169  11.932 -0.2691 -0.3350  0.1649
 9879TIP3    H153832   5.383   5.124  11.872  0.7069 -0.5933 -0.6376
 9879TIP3    H253833   5.488   5.233  11.877  2.7060 -2.4595 -0.1016
 9880TIP3   OH253834   1.365   0.323  11.703 -0.0759 -0.0466 -0.1453
 9880TIP3    H153835   1.382   0.250  11.643 -0.5694  0.9662 -1.5894
 9880TIP3    H253836   1.284   0.362  11.670  0.7426  1.8048 -0.0887
 9881TIP3   OH253837   0.741   2.318  10.167  0.5060  0.0384  0.3380
 9881TIP3    H153838   0.649   2.335  10.146  0.6750 -0.5299 -0.9890
 9881TIP3    H253839   0.746   2.324  10.263 -0.9658 -0.2122  0.4473
 9882TIP3   OH253840   3.510   2.456  11.480 -0.0737  0.0952 -0.5824
 9882TIP3    H153841   3.437   2.508  11.448 -2.0368 -0.9418  1.9030
 9882TIP3    H253842   3.474   2.403  11.551  2.9150 -1.0842  0.2482
 9883TIP3   OH253843   3.296   0.477   9.684 -0.0068 -0.0453 -0.8550
 9883TIP3    H153844   3.251   0.483   9.769 -0.2281 -0.3551 -0.9474
 9883TIP3    H253845   3.379   0.523   9.698 -0.0067 -0.1598 -0.4449
 9884TIP3   OH253846   0.207   1.071  10.672 -0.1014  0.4694 -0.2197
 9884TIP3    H153847   0.127   1.111  10.639 -0.0871  1.2030  0.5950
 9884TIP3    H253848   0.267   1.144  10.686  0.2688  0.0656  0.3703
 9885TIP3   OH253849   1.856   1.338  12.551  0.0554 -0.0035  0.0723
 9885TIP3    H153850   1.875   1.346  12.457 -0.0571  0.2039  0.0675
 9885TIP3    H253851   1.894   1.254  12.575  3.0478  1.3699  0.5623
 9886TIP3   OH253852   1.088   0.148  11.741 -0.3108  0.0985 -0.2460
 9886TIP3    H153853   1.063   0.085  11.808 -0.5639  0.7445  0.2735
 9886TIP3    H253854   1.184   0.144  11.740 -0.2231  1.1114  1.1828
 9887TIP3   OH253855   0.401   1.311  10.574 -0.0091  0.1678  0.3572
 9887TIP3    H153856   0.466   1.379  10.555 -1.8715  1.9647  0.0666
 9887TIP3    H253857   0.342   1.351  10.638 -2.4485 -0.2880 -1.4633
 9888TIP3   OH253858   5.590   5.545  10.437  0.4745  0.0474 -0.3464
 9888TIP3    H153859   5.586   5.452  10.415 -0.0519  0.4762 -2.2853
 9888TIP3    H253860   5.659   5.581  10.381  2.1787  0.4966  1.9114
 9889TIP3   OH253861   2.249   0.479  12.079 -0.2740 -0.4218 -0.1216
 9889TIP3    H153862   2.265   0.559  12.028  1.8952 -1.1344 -0.6552
 9889TIP3    H253863   2.154   0.467  12.075 -0.4171  0.8933 -1.9480
 9890TIP3   OH253864   3.455   5.614   9.573 -0.5851 -0.0347  0.3129
 9890TIP3    H153865   3.458   5.671   9.650 -2.0997 -0.8688  1.0401
 9890TIP3    H253866   3.367   5.626   9.537 -0.2859 -0.5117 -0.6182
 9891TIP3   OH253867   1.542   3.917  11.939 -0.1185 -0.2626  0.4961
 9891TIP3    H153868   1.632   3.940  11.918  0.4365 -2.9086 -0.4747
 9891TIP3    H253869   1.545   3.887  12.030  0.3530 -1.7612  0.0192
 9892TIP3   OH253870   5.796   6.145  10.040 -0.4076 -0.0053  0.4814
 9892TIP3    H153871   5.720   6.199  10.062  1.0445  2.8698 -0.9805
 9892TIP3    H253872   5.760   6.058  10.025 -2.9866  0.6076  2.4615
 9893TIP3   OH253873   5.097   5.529  12.353  0.3682  0.4508 -0.0627
 9893TIP3    H153874   5.027   5.512  12.416  0.2768  0.6357 -0.1152
 9893TIP3    H253875   5.172   5.481  12.387  0.3165  0.5469  0.1838
 9894TIP3   OH253876   2.874   4.686  11.000  0.1400 -0.0167 -0.2662
 9894TIP3    H153877   2.817   4.734  10.940  0.0950 -0.5554 -0.6678
 9894TIP3    H253878   2.813   4.644  11.061  0.2119  1.0213  0.5533
 9895TIP3   OH253879   4.845   5.047  11.781  0.2731  0.4437 -0.3890
 9895TIP3    H153880   4.792   4.992  11.838 -0.9755  2.3408  0.4020
 9895TIP3    H253881   4.787   5.121  11.759  2.7708  3.1351  1.2729
 9896TIP3   OH253882   1.222   3.391  13.219  0.3290  0.5408  0.0588
 9896TIP3    H153883   1.263   3.448  13.285 -2.9340  1.9105  1.0709
 9896TIP3    H253884   1.172   3.328  13.270 -1.1806  0.7730 -1.0850
 9897TIP3   OH253885   1.385   5.128  10.512  0.2871  0.0710  0.5098
 9897TIP3    H153886   1.476   5.114  10.541  0.2149  1.1103  1.3045
 9897TIP3    H253887   1.390   5.207  10.458  0.0023 -0.4097 -0.2139
 9898TIP3   OH253888   2.134   3.408  11.299  0.1101  0.4155 -0.2225
 9898TIP3    H153889   2.227   3.388  11.297 -0.0803 -0.4050 -1.6385
 9898TIP3    H253890   2.127   3.494  11.257  0.3652  1.2457  1.3310
 9899TIP3   OH253891   5.799   3.812  10.087  0.1542 -0.4276  0.3730
 9899TIP3    H153892   5.819   3.845  10.174  1.8909 -1.2542  0.3380
 9899TIP3    H253893   5.759   3.727  10.102 -1.5007  0.3206  0.3850
 9900TIP3   OH253894   1.826   4.720  10.493  0.0746 -0.5625 -0.1250
 9900TIP3    H153895   1.855   4.712  10.584  1.6032  0.5917 -0.4614
 9900TIP3    H253896   1.808   4.813  10.481 -1.0432 -0.8457 -0.7479
 9901TIP3   OH253897   5.762   0.292  10.657  0.3174  0.3047 -0.2601
 9901TIP3    H153898   5.782   0.359  10.592  0.3079  0.4922 -0.0710
 9901TIP3    H253899   5.729   0.341  10.732 -2.6750 -0.0744 -1.1932
 9902TIP3   OH253900   2.651   4.755  10.191  0.4402  0.0763  0.4613
 9902TIP3    H153901   2.617   4.706  10.266  1.5039 -0.4699  0.6203
 9902TIP3    H253902   2.642   4.696  10.117 -0.0211  0.3709  0.2802
 9903TIP3   OH253903   3.796   5.830  11.442  0.5367  0.3431  0.2577
 9903TIP3    H153904   3.856   5.771  11.488 -0.5391 -0.6570  0.4363
 9903TIP3    H253905   3.710   5.810  11.480 -0.0779  0.9126 -0.8047
 9904TIP3   OH253906   4.031   5.735  10.173  0.1673  0.6843  0.5770
 9904TIP3    H153907   3.996   5.770  10.091  2.2319  1.0244 -0.2066
 9904TIP3    H253908   4.004   5.798  10.240  0.1544  1.4636 -0.1485
 9905TIP3   OH253909   2.184   4.705  11.163 -0.5940 -0.2965 -0.2306
 9905TIP3    H153910   2.268   4.698  11.119  0.8066 -0.3890  2.2752
 9905TIP3    H253911   2.161   4.798  11.156  0.8986  0.2024  1.0248
 9906TIP3   OH253912   3.317   6.195  10.528  0.2937 -0.0540  0.2981
 9906TIP3    H153913   3.228   6.214  10.496  1.0482 -0.6726 -2.4246
 9906TIP3    H253914   3.356   6.281  10.542  0.2457  0.3528 -1.6585
 9907TIP3   OH253915   1.547   4.184  11.235  0.4648  0.1671  0.2900
 9907TIP3    H153916   1.475   4.160  11.293 -0.3534 -0.4475 -0.9383
 9907TIP3    H253917   1.522   4.270  11.200 -0.1577 -0.4481 -0.8392
 9908TIP3   OH253918   1.481   2.300  12.159 -0.3601 -0.1797 -0.0153
 9908TIP3    H153919   1.424   2.271  12.231 -0.1689  0.6500  0.4777
 9908TIP3    H253920   1.538   2.224  12.142 -1.6636 -1.0709 -0.5999
 9909TIP3   OH253921   5.402   3.666  10.476 -0.4490 -0.1008 -0.0457
 9909TIP3    H153922   5.441   3.607  10.541  1.8603  1.5578  0.1681
 9909TIP3    H253923   5.319   3.693  10.516 -1.0199 -2.2355  0.3485
 9910TIP3   OH253924   4.541   2.519  11.226  0.1480 -0.6188 -0.4578
 9910TIP3    H153925   4.467   2.550  11.174  0.2320 -0.7979 -0.6861
 9910TIP3    H253926   4.510   2.524  11.316 -0.0709 -0.4995 -0.5374
 9911TIP3   OH253927   4.800   6.061  12.510  0.0923  0.2613 -0.1330
 9911TIP3    H153928   4.803   6.022  12.423  2.1629  0.4977 -0.2208
 9911TIP3    H253929   4.735   6.009  12.558  1.0898 -1.8087 -0.9138
 9912TIP3   OH253930   4.828   0.727  11.229  1.0212 -0.2535  0.1560
 9912TIP3    H153931   4.921   0.724  11.253  2.1110 -1.1485 -3.4855
 9912TIP3    H253932   4.795   0.640  11.250  1.9811 -1.0729 -1.4901
 9913TIP3   OH253933   0.515   3.256  12.570  1.1463 -0.0322 -0.5036
 9913TIP3    H153934   0.605   3.277  12.598  1.0549 -0.2002 -0.0741
 9913TIP3    H253935   0.465   3.335  12.588  1.1533 -0.0311 -0.4883
 9914TIP3   OH253936   4.661   2.258  11.284  0.4215  0.5543  0.5958
 9914TIP3    H153937   4.656   2.223  11.195 -1.1287 -0.6339  1.1049
 9914TIP3    H253938   4.601   2.333  11.283 -1.4435 -0.8483  1.1792
 9915TIP3   OH253939   3.287   5.421  10.054  0.3534  0.5639  0.5197
 9915TIP3    H153940   3.246   5.363   9.990  1.3326  0.6804 -0.2440
 9915TIP3    H253941   3.261   5.385  10.139 -0.6431  0.1709  0.0619
 9916TIP3   OH253942   5.818   6.429  10.261  0.0646 -0.1646 -0.1542
 9916TIP3    H153943   5.880   6.389  10.322  0.3357 -1.1245 -1.0340
 9916TIP3    H253944   5.868   6.440  10.180  0.3671  3.0255  0.3119
 9917TIP3   OH253945   6.553   3.768  12.022  0.0158 -0.1363  0.2173
 9917TIP3    H153946   6.483   3.704  12.029  0.7856 -0.9939  0.2286
 9917TIP3    H253947   6.531   3.835  12.087 -1.1099 -0.0720 -0.2221
 9918TIP3   OH253948   0.105   3.986  12.233 -0.1487 -0.5711 -0.3319
 9918TIP3    H153949   0.014   3.967  12.255 -1.1816  0.6773 -3.0054
 9918TIP3    H253950   0.103   4.076  12.200  1.6607 -1.1137 -2.1524
 9919TIP3   OH253951   4.565   6.050  10.390 -0.1930  0.2626  0.3328
 9919TIP3    H153952   4.562   6.131  10.338  1.1568  0.6279  0.7683
 9919TIP3    H253953   4.557   6.079  10.480 -1.8370 -0.3124  0.3936
 9920TIP3   OH253954   0.811   6.679  10.403 -0.2903 -0.1435 -0.0032
 9920TIP3    H153955   0.732   6.628  10.385 -1.5660  1.5119  0.6502
 9920TIP3    H253956   0.802   6.757  10.349  0.9664  0.0292  0.0025
 9921TIP3   OH253957   3.215   2.678  11.784 -0.7847 -0.5669 -0.1990
 9921TIP3    H153958   3.209   2.720  11.870 -0.9966 -1.3067  0.1516
 9921TIP3    H253959   3.202   2.749  11.722 -1.3990 -0.1520  0.3944
 9922TIP3   OH253960   5.948   0.673   9.317  0.6733 -0.0203  0.2457
 9922TIP3    H153961   6.026   0.623   9.294 -0.7614 -2.1269 -0.2667
 9922TIP3    H253962   5.920   0.636   9.401 -0.2699  0.0904 -0.0130
 9923TIP3   OH253963   5.219   0.272   9.567 -0.0776  0.7218  0.1756
 9923TIP3    H153964   5.179   0.243   9.485 -0.4479 -0.1536  0.6555
 9923TIP3    H253965   5.313   0.278   9.546 -0.0073 -0.6390 -0.0175
 9924TIP3   OH253966   1.375   4.222  10.262  0.3002  0.0284  0.0900
 9924TIP3    H153967   1.453   4.269  10.232  1.2101 -1.5497 -0.0935
 9924TIP3    H253968   1.373   4.236  10.357  0.9717 -0.1775  0.1330
 9925TIP3   OH253969   5.492   3.654  12.701  0.1578  0.3682  0.2175
 9925TIP3    H153970   5.506   3.720  12.769  0.9327 -0.8832  1.2982
 9925TIP3    H253971   5.578   3.644  12.659  0.2809 -0.6181  0.6849
 9926TIP3   OH253972   5.271   2.388  12.511 -0.6772  0.1216  0.0756
 9926TIP3    H153973   5.184   2.392  12.550 -0.8438 -0.5406 -0.2027
 9926TIP3    H253974   5.311   2.473  12.530 -0.1821 -0.6531  2.9561
 9927TIP3   OH253975   4.071   0.662  11.725  0.0601 -0.3441  0.5847
 9927TIP3    H153976   4.137   0.610  11.679  1.9333  1.1082  1.4585
 9927TIP3    H253977   4.071   0.626  11.814 -0.7542 -0.6659  0.4673
 9928TIP3   OH253978   3.493   5.203  11.404 -0.3570 -0.0637 -0.0468
 9928TIP3    H153979   3.509   5.155  11.486  0.1228  0.5412  0.2212
 9928TIP3    H253980   3.451   5.139  11.347 -0.3168 -0.6165  0.5297
 9929TIP3   OH253981   3.822   4.464  12.522  0.6170  0.7404  0.5132
 9929TIP3    H153982   3.909   4.425  12.533  1.1228  1.3385 -1.0759
 9929TIP3    H253983   3.835   4.557  12.540  0.9525  1.3122 -2.2965
 9930TIP3   OH253984   1.061   2.472  11.246  0.0736 -0.6670  0.3074
 9930TIP3    H153985   1.087   2.484  11.154  0.5291 -0.7308  0.4255
 9930TIP3    H253986   1.094   2.550  11.290 -1.3009  0.0076  0.1848
 9931TIP3   OH253987   0.276   2.093  10.645 -0.1518  0.1090  0.4516
 9931TIP3    H153988   0.304   2.181  10.672  0.0334 -0.2253  1.4047
 9931TIP3    H253989   0.340   2.067  10.578 -0.0558  0.5976  0.3503
 9932TIP3   OH253990   4.352   6.132  11.933 -0.1521  0.1215 -0.5994
 9932TIP3    H153991   4.344   6.084  12.015  0.4269 -3.2188 -2.2993
 9932TIP3    H253992   4.269   6.116  11.888 -0.1042  1.1073 -1.0581
 9933TIP3   OH253993   4.368   2.398  12.725  0.0841 -0.7313 -0.0956
 9933TIP3    H153994   4.363   2.439  12.811  0.0818  3.2842 -1.7978
 9933TIP3    H253995   4.462   2.380  12.713  0.0519 -1.6210  0.7743
 9934TIP3   OH253996   3.304   3.493  11.387  0.0116 -0.4845  0.2784
 9934TIP3    H153997   3.213   3.522  11.392 -0.9620 -3.0141 -0.9652
 9934TIP3    H253998   3.318   3.444  11.468  0.8191  1.1104  1.1633
 9935TIP3   OH253999   4.962   0.808  10.311  0.3849  0.4546  0.5639
 9935TIP3    H154000   4.867   0.822  10.305  0.5009  0.7576 -1.0308
 9935TIP3    H254001   4.972   0.743  10.381 -1.0958 -0.4319  0.0208
 9936TIP3   OH254002   6.634   1.470  11.630  0.0746  0.6790 -0.1288
 9936TIP3    H154003   6.604   1.547  11.584 -0.7185 -1.2679 -3.1655
 9936TIP3    H254004   6.728   1.464  11.610 -0.5052 -0.8685 -2.8976
 9937TIP3   OH254005   6.354   4.786  12.389  0.6103  0.0004 -0.4913
 9937TIP3    H154006   6.320   4.699  12.364  0.8440 -0.4019  0.5481
 9937TIP3    H254007   6.280   4.828  12.433  1.0470 -0.3735  0.6137
 9938TIP3   OH254008   5.288   5.579  10.248 -0.3108  0.4026 -0.2455
 9938TIP3    H154009   5.322   5.667  10.267  1.7744 -0.7551  1.8693
 9938TIP3    H254010   5.214   5.568  10.309 -0.6132  0.6879 -0.5556
 9939TIP3   OH254011   4.790   3.389  11.773 -0.3894  0.3804  0.1182
 9939TIP3    H154012   4.773   3.306  11.730 -1.3895 -0.6429  2.3071
 9939TIP3    H254013   4.821   3.447  11.704  2.2680 -2.3401 -1.1402
 9940TIP3   OH254014   4.761   5.424   9.662  0.0804 -0.6421  0.5130
 9940TIP3    H154015   4.767   5.379   9.746  0.2444 -1.2372  0.1874
 9940TIP3    H254016   4.668   5.423   9.640  0.1131 -1.0206  0.3978
 9941TIP3   OH254017   3.998   2.016  11.116  0.8245 -0.6158 -0.5573
 9941TIP3    H154018   4.091   2.029  11.100  0.6597  0.7894 -0.5304
 9941TIP3    H254019   3.960   2.104  11.108 -0.5860 -1.2420 -1.1606
 9942TIP3   OH254020   6.662   6.351  12.274  0.2690 -0.0787 -0.8590
 9942TIP3    H154021   6.736   6.295  12.254  0.4380 -0.2934  0.2978
 9942TIP3    H254022   6.674   6.428  12.220  1.3322 -0.1191 -0.6899
 9943TIP3   OH254023   2.450   4.069  11.196  0.1624  0.5196  0.0843
 9943TIP3    H154024   2.460   4.107  11.108  1.3290  1.4202  0.5684
 9943TIP3    H254025   2.474   3.977  11.185  2.9923  1.1679 -0.1153
 9944TIP3   OH254026   5.269   1.840   9.860  0.4454 -0.7976  0.4422
 9944TIP3    H154027   5.342   1.897   9.884 -1.0246  0.6669  1.7067
 9944TIP3    H254028   5.246   1.795   9.942 -1.8822  0.9767  0.8602
 9945TIP3   OH254029   0.014   2.261  12.461 -1.0755 -0.2422  0.1623
 9945TIP3    H154030   0.007   2.192  12.527 -2.5037 -0.3451 -0.0798
 9945TIP3    H254031  -0.073   2.266  12.421 -0.8264  1.2719 -0.2596
 9946TIP3   OH254032   6.563   1.923  10.808  0.9412 -0.3260  0.0581
 9946TIP3    H154033   6.519   1.991  10.758  0.1506 -1.3869 -0.7342
 9946TIP3    H254034   6.560   1.846  10.752 -0.3929 -1.6924  1.8756
 9947TIP3   OH254035   0.630   5.352   9.901  0.2722  0.5692 -0.5113
 9947TIP3    H154036   0.681   5.363   9.821  1.2722 -1.9707 -0.3353
 9947TIP3    H254037   0.682   5.291   9.953 -1.3086  0.6443  1.2277
 9948TIP3   OH254038   2.204   2.489  10.296 -0.7836 -0.1022 -0.8988
 9948TIP3    H154039   2.131   2.538  10.333  0.0319 -0.0536  0.6980
 9948TIP3    H254040   2.206   2.515  10.204 -1.9329  0.9112 -0.6550
 9949TIP3   OH254041   1.174   0.502  11.917  0.4674  0.1272 -0.1726
 9949TIP3    H154042   1.263   0.486  11.949  0.2854  0.2465  0.4170
 9949TIP3    H254043   1.121   0.431  11.954  0.1899  0.4570  0.0786
 9950TIP3   OH254044   0.491   0.207  10.485  0.0127  0.1214  0.3524
 9950TIP3    H154045   0.407   0.201  10.438 -0.0407  0.3959  0.4081
 9950TIP3    H254046   0.500   0.123  10.529  0.4873 -0.4983 -0.8638
 9951TIP3   OH254047   1.374   1.932  11.432  0.0800 -0.4884  0.2174
 9951TIP3    H154048   1.393   1.908  11.342  0.3730 -0.8902  0.3836
 9951TIP3    H254049   1.371   1.849  11.479  1.7149 -0.1920  0.9171
 9952TIP3   OH254050   1.748   4.153  10.313  0.2587 -0.5809 -0.0746
 9952TIP3    H154051   1.811   4.183  10.379  1.4525 -0.6733 -1.1373
 9952TIP3    H254052   1.701   4.233  10.288 -0.8262 -0.6833  1.4801
 9953TIP3   OH254053   5.217   2.808  10.148  0.5459  0.2170  0.8191
 9953TIP3    H154054   5.305   2.805  10.111  0.7504  0.9051  1.2259
 9953TIP3    H254055   5.199   2.718  10.175  0.4305 -0.2911 -0.8254
 9954TIP3   OH254056   4.859   1.394  11.767 -0.2461  0.4535  0.2960
 9954TIP3    H154057   4.801   1.454  11.721 -1.5670 -0.3211  0.8759
 9954TIP3    H254058   4.803   1.319  11.790  1.5372 -1.4704 -1.2367
 9955TIP3   OH254059   0.744   6.233  10.700 -0.4268 -0.1926  0.3676
 9955TIP3    H154060   0.768   6.185  10.621 -2.3032 -1.6309  0.5979
 9955TIP3    H254061   0.680   6.297  10.670  0.9012  1.1800  0.3281
 9956TIP3   OH254062   4.190   5.324  11.065  0.2986 -0.0298 -0.0605
 9956TIP3    H154063   4.205   5.357  10.977 -0.2116 -0.7725 -0.4379
 9956TIP3    H254064   4.218   5.395  11.123 -2.5549  1.8716 -0.8232
 9957TIP3   OH254065   4.329   3.487  12.087  0.6641  0.4080 -0.3718
 9957TIP3    H154066   4.242   3.515  12.116  0.5546  0.9508 -1.2137
 9957TIP3    H254067   4.320   3.393  12.072  0.6298  0.1691  0.9747
 9958TIP3   OH254068   1.367   5.825  10.790  0.2340 -0.2590 -0.0281
 9958TIP3    H154069   1.328   5.890  10.848 -1.7644 -1.6420  0.2940
 9958TIP3    H254070   1.342   5.852  10.702 -0.6355 -0.5860  0.1092
 9959TIP3   OH254071   1.310   3.222  11.557 -0.2684 -0.6576 -0.6522
 9959TIP3    H154072   1.312   3.153  11.490  4.3301 -0.3101 -1.2303
 9959TIP3    H254073   1.338   3.177  11.637  0.7398  0.0903 -0.5675
 9960TIP3   OH254074   6.372   5.808  11.718 -0.2783 -0.2412 -0.1928
 9960TIP3    H154075   6.334   5.752  11.650 -2.0166  1.1106 -0.3944
 9960TIP3    H254076   6.461   5.774  11.729 -0.0116 -0.7042 -2.9523
 9961TIP3   OH254077   1.885   1.290  11.684  0.5768 -0.5114  0.3040
 9961TIP3    H154078   1.834   1.218  11.723  0.4898 -0.2250  0.7246
 9961TIP3    H254079   1.936   1.248  11.615  0.1315 -0.8882  0.2008
 9962TIP3   OH254080   6.052   0.649  10.693  0.3603  0.3193 -0.0156
 9962TIP3    H154081   6.064   0.575  10.752 -0.8132  0.1005 -0.0362
 9962TIP3    H254082   6.100   0.721  10.735  0.9825 -0.2807  0.3182
 9963TIP3   OH254083   3.675   1.452  10.216  0.7859  0.0813  0.2068
 9963TIP3    H154084   3.710   1.378  10.266 -1.5609 -1.9265 -0.9236
 9963TIP3    H254085   3.719   1.447  10.131  0.2671 -0.3195 -0.0378
 9964TIP3   OH254086   3.736   2.130  10.887 -0.8845 -0.0248  0.5578
 9964TIP3    H154087   3.797   2.196  10.919 -0.2323 -0.0833 -0.5158
 9964TIP3    H254088   3.735   2.064  10.956 -1.2273  0.8988  1.4550
 9965TIP3   OH254089   5.997   6.678  10.583 -0.3135 -0.0201 -0.5019
 9965TIP3    H154090   5.902   6.688  10.572 -0.6831 -0.7880  1.4731
 9965TIP3    H254091   6.018   6.596  10.539 -1.0563 -1.1301  1.0950
 9966TIP3   OH254092   2.126   6.353  12.040 -0.0208 -0.3742  0.4511
 9966TIP3    H154093   2.159   6.343  11.951  3.1335  0.5415  1.3823
 9966TIP3    H254094   2.071   6.432  12.037 -2.4530 -1.9976 -1.1860
 9967TIP3   OH254095   2.128   3.768  10.271 -0.6345  0.4717 -0.0212
 9967TIP3    H154096   2.201   3.812  10.226 -0.1354  1.5977  1.7878
 9967TIP3    H254097   2.102   3.830  10.339 -1.4472 -1.1041  1.1412
 9968TIP3   OH254098   0.840   3.365   9.698 -0.3226 -0.2225  0.2770
 9968TIP3    H154099   0.822   3.285   9.649  0.5572 -0.1599 -0.1638
 9968TIP3    H254100   0.814   3.436   9.640  0.1398 -0.1613  0.1426
 9969TIP3   OH254101   1.133   4.996  11.051 -0.2502 -0.4819  0.9470
 9969TIP3    H154102   1.121   4.990  11.145  0.6084  1.1751  1.1932
 9969TIP3    H254103   1.121   5.088  11.031 -0.4077 -0.8058 -0.5741
 9970TIP3   OH254104   2.922   0.003  10.311  0.0967 -0.4898 -0.2953
 9970TIP3    H154105   2.921   0.028  10.218 -0.9356  0.8588  0.0579
 9970TIP3    H254106   2.999   0.047  10.347  0.5411 -1.0737 -0.5031
 9971TIP3   OH254107   4.323   3.227  12.115 -0.3728  0.5697  0.0483
 9971TIP3    H154108   4.387   3.176  12.165 -0.0516  2.8283  2.0776
 9971TIP3    H254109   4.337   3.200  12.024  2.7664  0.2287  0.5291
 9972TIP3   OH254110   5.919   0.272   9.912 -0.0179 -0.2980  0.2212
 9972TIP3    H154111   6.010   0.293   9.931 -0.2638  1.7957 -0.5814
 9972TIP3    H254112   5.922   0.207   9.842  0.8384 -1.0170  0.9113
 9973TIP3   OH254113   4.914   3.476  11.995 -0.0615 -0.3265  0.3048
 9973TIP3    H154114   4.840   3.464  11.935  0.7423  0.2099 -0.8312
 9973TIP3    H254115   4.920   3.392  12.042  1.2046 -2.0238 -2.6061
 9974TIP3   OH254116   4.543   5.287  10.722 -0.0808  0.2534  0.0871
 9974TIP3    H154117   4.628   5.244  10.708  0.3371  1.1655 -0.2718
 9974TIP3    H254118   4.478   5.221  10.699  0.4816 -1.1243  2.1813
 9975TIP3   OH254119   1.593   4.343  10.784  0.0973  0.2315  0.0973
 9975TIP3    H154120   1.534   4.357  10.709  2.3149  3.7037 -1.2427
 9975TIP3    H254121   1.679   4.330  10.744  1.6279  3.6706  1.8827
 9976TIP3   OH254122   2.563   4.687  12.162 -0.0695 -0.4033 -0.2019
 9976TIP3    H154123   2.588   4.758  12.221  0.5956 -1.6064  1.0256
 9976TIP3    H254124   2.467   4.689  12.161 -0.0608  1.2150 -1.1197
 9977TIP3   OH254125   2.645   5.920  12.317 -0.3488  1.0617  0.1995
 9977TIP3    H154126   2.605   5.986  12.261  1.7560  1.2128 -1.2580
 9977TIP3    H254127   2.639   5.839  12.267  0.9583  1.0635 -0.0094
 9978TIP3   OH254128   5.769   0.445  10.950  0.0554  0.0883 -0.0550
 9978TIP3    H154129   5.687   0.489  10.970 -0.8765 -1.4392 -0.3515
 9978TIP3    H254130   5.790   0.395  11.028  0.2515 -0.1723 -0.2707
 9979TIP3   OH254131   5.044   6.064  11.515 -0.5591 -0.3164  0.2977
 9979TIP3    H154132   4.995   6.101  11.588 -0.9432  0.6718 -0.4373
 9979TIP3    H254133   5.089   5.988  11.552 -0.3591  0.4424  1.6671
 9980TIP3   OH254134   5.852   6.161   9.695 -0.1948 -0.1619 -0.4102
 9980TIP3    H154135   5.796   6.118   9.760 -1.5509 -0.8120 -1.9367
 9980TIP3    H254136   5.835   6.255   9.707  0.6480 -0.1728  1.0786
 9981TIP3   OH254137   0.187   6.142  10.014 -0.1958  0.0698  0.1654
 9981TIP3    H154138   0.243   6.220  10.016 -1.6558  1.1408  1.4125
 9981TIP3    H254139   0.099   6.175  10.029 -0.8359 -1.8649  0.9783
 9982TIP3   OH254140   6.073   3.720  12.739  0.1125  0.2742  0.2520
 9982TIP3    H154141   5.990   3.733  12.785  0.8409  0.3921  1.5882
 9982TIP3    H254142   6.113   3.807  12.737  0.5672  0.0683  0.3310
 9983TIP3   OH254143   0.393   0.403  11.302 -0.3193 -0.1329 -1.0817
 9983TIP3    H154144   0.421   0.329  11.248  0.0569 -1.4161  0.7449
 9983TIP3    H254145   0.414   0.376  11.392 -0.5293  2.0537 -0.3028
 9984TIP3   OH254146   6.352   4.295  11.659  0.2546 -0.6729 -0.6623
 9984TIP3    H154147   6.354   4.388  11.679  0.3836 -0.8946  0.3827
 9984TIP3    H254148   6.270   4.282  11.611 -0.8058 -0.3753  1.0238
 9985TIP3   OH254149   0.614   4.094  12.218  0.3177 -0.2484  0.3374
 9985TIP3    H154150   0.589   4.180  12.187 -1.0309 -0.9983 -0.7608
 9985TIP3    H254151   0.537   4.039  12.203  1.2630 -1.7271  0.6407
 9986TIP3   OH254152   3.696   1.355  10.920 -0.3955  0.6767  0.2800
 9986TIP3    H154153   3.765   1.376  10.984 -0.6475  2.2846  0.0729
 9986TIP3    H254154   3.629   1.311  10.972  0.0620  0.6077  0.8297
 9987TIP3   OH254155   4.367   3.620   9.974  0.4174 -0.9322  0.2938
 9987TIP3    H154156   4.381   3.559   9.902  1.2282 -0.7636  0.2949
 9987TIP3    H254157   4.428   3.590  10.042  1.6399  0.5088 -0.1090
 9988TIP3   OH254158   6.181   5.887  11.446 -0.0327  0.5594  0.1575
 9988TIP3    H154159   6.268   5.917  11.473 -1.0117  2.4476  1.4639
 9988TIP3    H254160   6.170   5.802  11.488  0.8940  0.6551  0.6155
 9989TIP3   OH254161   3.056   4.082  10.344 -0.6039 -0.0660  0.0026
 9989TIP3    H154162   3.149   4.059  10.340 -0.6577 -0.1801 -0.5656
 9989TIP3    H254163   3.011   3.999  10.361 -0.5226  0.1463  1.3724
 9990TIP3   OH254164   0.608   5.100  11.091 -0.4279  0.3498  0.2254
 9990TIP3    H154165   0.513   5.090  11.092 -0.4720  0.7211 -0.1031
 9990TIP3    H254166   0.624   5.169  11.027  0.0978 -0.0601 -0.0877
 9991TIP3   OH254167   1.581   0.148  11.767  0.1289  0.2665 -0.2921
 9991TIP3    H154168   1.512   0.207  11.798  1.0450  0.2772  1.9071
 9991TIP3    H254169   1.657   0.205  11.753  0.7626 -0.2336  0.9857
 9992TIP3   OH254170   0.670   1.585  12.214 -0.6660 -0.2526 -0.7827
 9992TIP3    H154171   0.753   1.538  12.206 -0.3404 -0.3526  2.0834
 9992TIP3    H254172   0.603   1.518  12.203 -0.2299 -1.1703  1.6827
 9993TIP3   OH254173   2.121   3.340  10.940 -0.1881  0.2444  0.5407
 9993TIP3    H154174   2.104   3.426  10.979 -1.1442  0.4438 -0.2648
 9993TIP3    H254175   2.085   3.277  11.001 -1.1199  0.5196  0.2834
 9994TIP3   OH254176   3.190   3.749  12.034 -0.3826  0.2805  0.6409
 9994TIP3    H154177   3.256   3.819  12.029 -0.0396 -0.1014 -0.4585
 9994TIP3    H254178   3.118   3.781  11.980  0.0439 -0.4893 -0.3972
 9995TIP3   OH254179   2.079   2.599   9.834  0.3516 -0.3629  0.0008
 9995TIP3    H154180   2.131   2.676   9.813  1.0087 -0.8071 -0.0474
 9995TIP3    H254181   2.142   2.536   9.868 -0.3137 -0.5486  0.9423
 9996TIP3   OH254182   1.574   4.966  10.339  0.1808  0.2029  0.5792
 9996TIP3    H154183   1.654   4.939  10.384  0.4093 -1.0793 -0.5192
 9996TIP3    H254184   1.579   5.062  10.337  1.1276  0.1956  1.5147
 9997TIP3   OH254185   5.153   3.990  10.340  0.2085 -0.0959 -0.1135
 9997TIP3    H154186   5.134   3.930  10.413  2.2118  1.4888  1.8353
 9997TIP3    H254187   5.136   4.077  10.376  3.2617  0.8833 -0.7609
 9998TIP3   OH254188   2.289   5.342  10.201 -0.5465 -0.4333 -0.2672
 9998TIP3    H154189   2.237   5.414  10.235 -0.1508 -0.8883  1.3626
 9998TIP3    H254190   2.326   5.300  10.278 -1.5719 -2.9939 -1.0463
 9999TIP3   OH254191   4.114   4.031   9.756  0.8739 -0.1742 -0.3257
 9999TIP3    H154192   4.057   3.953   9.758  2.5097 -1.4151  1.0513
 9999TIP3    H254193   4.101   4.071   9.842  1.3157  0.1087 -0.3902
10000TIP3   OH254194   5.375   0.787   9.918 -0.1452  0.3858 -0.1958
10000TIP3    H154195   5.440   0.826   9.860  0.2570 -0.3453 -0.2500
10000TIP3    H254196   5.369   0.849   9.991  0.2497  0.7046 -0.4237
10001TIP3   OH254197   1.562   3.153   9.855 -0.2142  0.1148  0.4294
10001TIP3    H154198   1.653   3.122   9.854  0.3689  1.7446  0.1712
10001TIP3    H254199   1.531   3.139   9.766  0.1586  0.6019  0.2223
10002TIP3   OH254200   5.425   0.613  11.534 -0.0612 -0.3444 -0.3665
10002TIP3    H154201   5.435   0.522  11.560  2.6127 -0.1762 -0.4719
10002TIP3    H254202   5.439   0.614  11.439 -0.7970  0.0823 -0.4757
10003TIP3   OH254203   1.660   0.876  12.596  0.2464 -0.0263 -0.1100
10003TIP3    H154204   1.613   0.959  12.606  0.1444 -0.1633  0.6315
10003TIP3    H254205   1.745   0.891  12.637 -0.1993 -0.6299  1.0945
10004TIP3   OH254206   0.087   5.851  12.946  0.4254 -0.4486 -0.0907
10004TIP3    H154207  -0.004   5.825  12.963  0.9206 -2.6714 -0.6021
10004TIP3    H254208   0.136   5.812  13.018  1.1666 -0.6004 -0.6727
10005TIP3   OH254209   3.348   1.177  12.075 -0.0039 -0.6639  0.1506
10005TIP3    H154210   3.255   1.191  12.094  0.1825 -0.1474  0.6919
10005TIP3    H254211   3.351   1.090  12.036 -0.8361 -0.3066 -0.7489
10006TIP3   OH254212   0.960   4.826   9.563  0.4335  0.1613 -0.4723
10006TIP3    H154213   1.046   4.854   9.532  0.5253 -0.6083 -0.9460
10006TIP3    H254214   0.929   4.898   9.617  2.0007 -0.1671  0.9211
10007TIP3   OH254215   4.396   0.926  12.585  0.3585  0.2159 -0.1622
10007TIP3    H154216   4.412   0.832  12.576  1.5351  0.4511 -0.6471
10007TIP3    H254217   4.471   0.968  12.542 -0.3670  1.3791 -0.3314
10008TIP3   OH254218   0.308   4.324   9.831 -0.4903  0.2337  0.4062
10008TIP3    H154219   0.329   4.400   9.776  0.1026 -0.2024  0.0226
10008TIP3    H254220   0.391   4.302   9.874 -0.8296  0.2484  1.0821
10009TIP3   OH254221   4.026   4.106  11.902  0.1484 -0.2713  0.0838
10009TIP3    H154222   4.061   4.097  11.814  0.5036 -0.8814  0.2813
10009TIP3    H254223   3.944   4.056  11.901 -1.4087  2.1157 -0.7164
10010TIP3   OH254224   1.032   6.646  11.941 -0.1159  0.2961 -0.3505
10010TIP3    H154225   0.967   6.576  11.931  0.0013  0.4424 -2.6478
10010TIP3    H254226   1.101   6.608  11.996 -1.7650 -0.0803  1.5993
10011TIP3   OH254227   3.479   1.983  11.775 -0.2632  0.4552 -0.6768
10011TIP3    H154228   3.521   2.069  11.786 -1.0188  0.7866 -0.3061
10011TIP3    H254229   3.526   1.926  11.836 -0.1742  0.7615 -0.4556
10012TIP3   OH254230   6.685   2.692  11.605  0.3119  0.0671  0.1152
10012TIP3    H154231   6.729   2.686  11.520 -1.0505  0.7566 -0.6801
10012TIP3    H254232   6.592   2.693  11.583 -0.0827 -0.5248  1.6837
10013TIP3   OH254233   1.001   4.638  10.675  0.0053 -0.1626  0.2712
10013TIP3    H154234   0.932   4.619  10.739 -0.4841  2.2260  0.5444
10013TIP3    H254235   0.991   4.569  10.609  0.2729 -2.4619  2.4847
10014TIP3   OH254236   3.570   4.617  10.541  0.5274  0.1580 -0.1083
10014TIP3    H154237   3.617   4.629  10.458  1.2951 -1.7998 -0.0001
10014TIP3    H254238   3.620   4.669  10.604  1.2057 -0.0692 -0.4463
10015TIP3   OH254239   4.089   4.939  10.048  0.3187  0.0128  0.5530
10015TIP3    H154240   4.022   4.992  10.092  0.6060 -0.0313  1.0502
10015TIP3    H254241   4.172   4.974  10.078  0.5172 -0.9144  1.1448
10016TIP3   OH254242   1.506   4.963  11.686  0.0381 -0.4765 -0.3289
10016TIP3    H154243   1.442   4.896  11.709  1.8043 -1.9330  0.6904
10016TIP3    H254244   1.515   4.956  11.591 -0.1569 -1.3929 -0.2967
10017TIP3   OH254245   1.625   1.932  11.144  0.1929 -0.1529 -0.0541
10017TIP3    H154246   1.637   2.025  11.126  0.0702 -0.4735 -1.9331
10017TIP3    H254247   1.696   1.910  11.204  2.2337  0.4541 -2.1314
10018TIP3   OH254248   6.136   4.499   9.764  0.1424 -0.3603 -0.1473
10018TIP3    H154249   6.059   4.518   9.817  0.0843 -0.9567 -0.0034
10018TIP3    H254250   6.124   4.407   9.737  0.1300 -0.0514 -1.2581
10019TIP3   OH254251   0.635   6.394  11.034  0.0794  0.1416  0.3188
10019TIP3    H154252   0.663   6.477  11.072  0.2926 -0.4841  1.5859
10019TIP3    H254253   0.566   6.362  11.092  0.7572 -1.0818  0.4900
10020TIP3   OH254254   1.252   6.051  10.133  0.0887 -0.3975  0.1812
10020TIP3    H154255   1.289   6.136  10.112 -2.1961  0.2846 -1.3535
10020TIP3    H254256   1.280   5.994  10.062  1.0460 -0.8124  0.8580
10021TIP3   OH254257   5.136   1.174   9.485 -0.0622  0.0919  0.1615
10021TIP3    H154258   5.076   1.247   9.476  0.6120  0.4837 -1.7487
10021TIP3    H254259   5.084   1.096   9.466 -0.8260 -0.0016  2.3878
10022TIP3   OH254260   5.786   0.300  11.960 -0.1758 -0.0040 -0.4154
10022TIP3    H154261   5.700   0.315  11.999  1.1281 -0.3217  2.8879
10022TIP3    H254262   5.799   0.205  11.967  1.1369  0.2428  0.8708
10023TIP3   OH254263   5.616   5.262  10.518 -0.3246 -0.2866  0.1497
10023TIP3    H154264   5.681   5.199  10.485  0.9899  2.4314 -3.0608
10023TIP3    H254265   5.633   5.266  10.612  2.0745 -1.9510 -0.1031
10024TIP3   OH254266   0.352   1.339  11.449 -0.2917  0.2515  0.3783
10024TIP3    H154267   0.414   1.268  11.460 -2.1554 -1.4148  0.6225
10024TIP3    H254268   0.271   1.297  11.419 -1.0936  2.4215 -0.7559
10025TIP3   OH254269   4.200   5.951   9.672 -0.5126  0.5642 -0.3514
10025TIP3    H154270   4.108   5.936   9.651 -0.5075  1.0615 -0.7577
10025TIP3    H254271   4.246   5.938   9.590 -0.4311  2.0364 -0.5696
10026TIP3   OH254272   0.648   3.589  10.699 -0.5987  0.0134 -0.0392
10026TIP3    H154273   0.681   3.583  10.610 -1.6281 -3.9014 -0.3531
10026TIP3    H254274   0.709   3.536  10.751 -2.4446 -1.5926  0.6312
10027TIP3   OH254275   6.654   4.133  11.217  0.0146 -0.2382  0.2580
10027TIP3    H154276   6.708   4.124  11.296  0.6954  2.2776  0.1586
10027TIP3    H254277   6.705   4.089  11.149  0.7516 -0.0250  0.6598
10028TIP3   OH254278   1.991   2.101  10.562  0.3316 -0.2206  0.0638
10028TIP3    H154279   2.070   2.138  10.522  0.8812 -1.7789 -0.3602
10028TIP3    H254280   1.944   2.177  10.598  1.1140  0.9337 -1.2619
10029TIP3   OH254281   1.211   0.695  12.136 -0.8870  0.0348 -0.6978
10029TIP3    H154282   1.292   0.735  12.166  0.4260 -4.4012  2.5710
10029TIP3    H254283   1.238   0.637  12.065 -1.2356 -1.1091  0.0895
10030TIP3   OH254284   0.312   5.268   9.499  0.0370  0.5351 -0.1928
10030TIP3    H154285   0.253   5.194   9.492  0.8904 -0.0435 -1.6077
10030TIP3    H254286   0.398   5.229   9.517  0.1386  1.3268  1.2501
10031TIP3   OH254287   3.642   6.507  10.532  0.0112 -0.5505 -0.3064
10031TIP3    H154288   3.658   6.601  10.536 -1.1727 -0.2608 -1.4269
10031TIP3    H254289   3.719   6.472  10.487 -1.8960  0.7484 -5.2948
10032TIP3   OH254290   6.182   4.332   9.521 -0.0350  0.1399  0.1667
10032TIP3    H154291   6.097   4.335   9.478  0.1990 -0.2104 -0.3350
10032TIP3    H254292   6.229   4.408   9.487 -0.0359  0.1597  0.2101
10033TIP3   OH254293   6.069   1.622  11.173  0.1798 -0.0002 -0.4344
10033TIP3    H154294   6.093   1.663  11.090  1.2987 -1.0802 -0.6885
10033TIP3    H254295   6.064   1.528  11.152  1.1700 -0.3685  0.8376
10034TIP3   OH254296   0.306   4.761   9.556  0.3014 -0.3659  0.1116
10034TIP3    H154297   0.367   4.826   9.590  1.3768 -0.6969 -1.0962
10034TIP3    H254298   0.290   4.788   9.466 -2.1255  0.2407  0.6525
10035TIP3   OH254299   5.390   5.470  11.550 -0.1512  0.2467 -0.9101
10035TIP3    H154300   5.341   5.546  11.517 -1.1612 -0.6543 -1.5602
10035TIP3    H254301   5.475   5.476  11.507 -0.1244  1.1386 -0.7618
10036TIP3   OH254302   6.133   2.260  10.707 -0.0610 -0.1795  0.1553
10036TIP3    H154303   6.173   2.346  10.710  1.9595 -1.0875  0.4042
10036TIP3    H254304   6.169   2.219  10.628  0.6621 -1.5437  1.1518
10037TIP3   OH254305   6.139   6.598  10.334  0.3382  0.0380 -0.3711
10037TIP3    H154306   6.103   6.607  10.245  0.7994 -0.3141 -0.5986
10037TIP3    H254307   6.092   6.524  10.371  0.8503 -0.4489 -0.6834
10038TIP3   OH254308   5.311   5.257   9.006 -0.1985 -0.2077 -0.1936
10038TIP3    H154309   5.225   5.264   9.047 -0.0510 -0.9481  0.2649
10038TIP3    H254310   5.326   5.162   8.997  1.1195 -0.1424  0.9415
10039TIP3   OH254311   0.538   6.354  12.242  0.1767 -0.2257 -0.3403
10039TIP3    H154312   0.572   6.436  12.278 -0.5853 -0.2050  0.3451
10039TIP3    H254313   0.445   6.356  12.261  0.3447 -1.8417  0.8557
10040TIP3   OH254314   4.609   2.472  10.934 -0.5374 -0.3731  0.3096
10040TIP3    H154315   4.595   2.481  11.028 -1.2066  1.1964  0.0871
10040TIP3    H254316   4.705   2.468  10.925 -0.4569 -3.6140  1.2307
10041TIP3   OH254317   2.975   3.844  12.210 -0.3397 -0.4921 -0.3709
10041TIP3    H154318   3.030   3.893  12.272 -0.2204 -2.7831  1.4981
10041TIP3    H254319   3.037   3.790  12.162 -0.7564 -2.0989  0.8070
10042TIP3   OH254320   0.172   5.869  12.671 -0.2443 -0.2604 -0.2107
10042TIP3    H154321   0.128   5.807  12.614  0.0157  0.2326 -0.9572
10042TIP3    H254322   0.171   5.827  12.757  1.5476 -2.1343 -1.0295
10043TIP3   OH254323   0.192   4.779  11.198  0.2495 -0.8742 -0.2135
10043TIP3    H154324   0.164   4.820  11.280  0.0007  0.9572 -1.1651
10043TIP3    H254325   0.113   4.779  11.143  0.9141 -0.0699 -1.2033
10044TIP3   OH254326   4.518   5.408  11.880 -0.2445 -0.4920 -0.4796
10044TIP3    H154327   4.603   5.371  11.857 -0.0219  0.4671 -1.2726
10044TIP3    H254328   4.523   5.423  11.974  0.1687 -1.1823 -0.3883
10045TIP3   OH254329   2.289   5.050  11.984  0.3349 -0.1275 -0.0611
10045TIP3    H154330   2.283   4.982  11.917 -1.0733 -2.2437  2.0094
10045TIP3    H254331   2.382   5.060  12.000  0.6055 -1.0196 -0.9942
10046TIP3   OH254332   0.374   3.943  11.275  0.0148 -0.4823 -0.3492
10046TIP3    H154333   0.459   3.909  11.248  0.0923 -0.4021 -0.2043
10046TIP3    H254334   0.314   3.914  11.206 -0.2234 -2.3230  0.5848
10047TIP3   OH254335   2.728   2.988  10.942 -0.4516 -0.0354  0.5594
10047TIP3    H154336   2.687   3.011  10.859 -0.8396  0.9296  1.0019
10047TIP3    H254337   2.805   3.044  10.947 -1.1954  0.9445  1.4774
10048TIP3   OH254338   6.570   0.419  11.715  0.2380  0.4831 -0.3473
10048TIP3    H154339   6.578   0.507  11.752  0.6722  0.4132 -0.2675
10048TIP3    H254340   6.479   0.413  11.687  0.0012  0.6618  0.3807
10049TIP3   OH254341   1.840   2.891   9.623  0.1732  0.3923  0.2626
10049TIP3    H154342   1.832   2.797   9.634 -0.2343  0.6395  2.4059
10049TIP3    H254343   1.898   2.901   9.548  2.4125 -1.5880  1.6088
10050TIP3   OH254344   4.222   4.408  10.602 -0.0833 -0.1606  0.0956
10050TIP3    H154345   4.175   4.434  10.682  1.1439 -0.6053  0.9861
10050TIP3    H254346   4.183   4.462  10.533 -1.0525  0.3598  1.0114
10051TIP3   OH254347   2.327   0.343  10.974 -0.7404 -0.1154 -0.4544
10051TIP3    H154348   2.376   0.262  10.988 -1.3409 -0.3897  0.1121
10051TIP3    H254349   2.235   0.316  10.976 -1.0630  0.8832  2.1006
10052TIP3   OH254350   5.665   5.052  10.207  0.3072 -0.0710  0.6717
10052TIP3    H154351   5.746   5.097  10.231  1.2644 -1.0484 -0.6312
10052TIP3    H254352   5.645   4.996  10.282  2.1580 -1.5905  0.0936
10053TIP3   OH254353   6.166   3.741   9.684 -0.3634 -0.2346 -0.4187
10053TIP3    H154354   6.247   3.783   9.713 -0.4943 -0.5707  0.4518
10053TIP3    H254355   6.176   3.649   9.707 -0.3307 -0.5943 -1.7751
10054TIP3   OH254356   0.800   0.718  10.610  0.4505  0.0794  0.3970
10054TIP3    H154357   0.747   0.798  10.609 -0.6453 -0.6263 -0.8744
10054TIP3    H254358   0.741   0.650  10.641  1.3718 -0.2633  1.4540
10055TIP3   OH254359   5.621   0.025  13.154 -0.4299  0.0491  0.1739
10055TIP3    H154360   5.649   0.115  13.136 -0.0051 -0.1510 -0.1652
10055TIP3    H254361   5.604   0.024  13.248  1.7712 -0.0958  0.6207
10056TIP3   OH254362   5.929   0.230  12.623  0.0447 -0.0688  0.0821
10056TIP3    H154363   5.877   0.193  12.694 -0.1953 -1.8134 -0.9319
10056TIP3    H254364   6.019   0.229  12.656 -0.4315  2.7601  1.7624
10057TIP3   OH254365   4.361   0.988   9.917  0.2504  0.0116  0.0487
10057TIP3    H154366   4.306   1.024   9.987 -1.1769 -0.5025 -0.7732
10057TIP3    H254367   4.373   1.061   9.856  1.4808  0.4552  0.7793
10058TIP3   OH254368   4.985   0.344  12.601  0.3517  0.7519  0.5779
10058TIP3    H154369   4.988   0.310  12.511 -0.7054  0.6402  0.5739
10058TIP3    H254370   4.902   0.389  12.606 -0.0307 -0.0555  1.7950
10059TIP3   OH254371   6.336   2.772  11.051  0.3192  0.4524  0.2993
10059TIP3    H154372   6.315   2.707  11.118 -0.7134  0.0940 -0.3572
10059TIP3    H254373   6.314   2.730  10.969 -0.5627  1.7051 -0.1343
10060TIP3   OH254374   5.640   4.752  11.639 -0.0731 -0.3278  0.8925
10060TIP3    H154375   5.572   4.784  11.698 -0.9941 -1.2165  0.3386
10060TIP3    H254376   5.593   4.724  11.561  0.6858 -2.8811  1.2666
10061TIP3   OH254377   0.527   4.895   9.701 -0.0606  0.9751  0.3004
10061TIP3    H154378   0.598   4.832   9.691 -0.0339  1.1603 -0.9296
10061TIP3    H254379   0.489   4.876   9.786 -0.4077 -1.0661 -0.2543
10062TIP3   OH254380   2.119   5.889  10.105  1.0090 -0.2112 -0.0946
10062TIP3    H154381   2.168   5.971  10.102  0.2734  0.2599  0.3843
10062TIP3    H254382   2.083   5.887  10.194 -1.1062  0.2215 -0.8916
10063TIP3   OH254383   5.161   5.905   9.258  0.0759  0.5713  0.3051
10063TIP3    H154384   5.115   5.832   9.215  1.8656  0.0291 -0.7870
10063TIP3    H254385   5.193   5.868   9.340  0.8315  0.1625 -0.1670
10064TIP3   OH254386   5.619   5.656  10.115 -0.3401  0.6018  0.1140
10064TIP3    H154387   5.577   5.603  10.047 -1.7003  1.0217  0.5975
10064TIP3    H254388   5.695   5.604  10.143 -0.1715  0.0987 -1.2056
10065TIP3   OH254389   6.216   6.504  11.228  0.3163 -0.2366  0.2107
10065TIP3    H154390   6.160   6.544  11.161  0.6932  2.3821  1.3286
10065TIP3    H254391   6.300   6.549  11.219  0.7387 -0.6832  1.6494
10066TIP3   OH254392   3.161   0.794  11.496  0.0336 -0.3391  0.1237
10066TIP3    H154393   3.155   0.808  11.402  2.4481 -2.3775 -0.4730
10066TIP3    H254394   3.197   0.875  11.531  0.3155 -0.0100 -0.9145
10067TIP3   OH254395   4.398   5.689  10.030  0.1336  0.1698  0.1177
10067TIP3    H154396   4.474   5.677  10.087  2.2724 -0.2237 -2.5945
10067TIP3    H254397   4.365   5.776  10.053  1.9923  0.7524  0.7682
10068TIP3   OH254398   4.110   6.493   9.608  0.0423  0.8213  0.3053
10068TIP3    H154399   4.090   6.423   9.671  1.4906 -2.3460 -2.4160
10068TIP3    H254400   4.154   6.560   9.660 -1.4184 -0.2574  3.1183
10069TIP3   OH254401   0.055   6.564  11.265  0.0734 -0.4367 -0.2297
10069TIP3    H154402   0.124   6.501  11.245  2.3556  1.4023  1.2539
10069TIP3    H254403   0.072   6.591  11.356 -3.5491 -0.9331  0.7599
10070TIP3   OH254404   1.937   2.506  10.824 -0.0050 -0.7558  0.5494
10070TIP3    H154405   1.856   2.514  10.873  0.0380 -0.7812  0.6254
10070TIP3    H254406   1.931   2.574  10.756 -1.2523 -2.4408 -1.1392
10071TIP3   OH254407   1.972   5.883  11.246 -0.0031 -0.1346 -0.1901
10071TIP3    H154408   1.918   5.945  11.295 -0.1255  0.6959 -1.3238
10071TIP3    H254409   1.939   5.888  11.157  1.9109  0.4081 -0.9342
10072TIP3   OH254410   1.310   3.631   9.831 -0.6660  0.3752 -0.1684
10072TIP3    H154411   1.375   3.566   9.857 -1.1332  0.7166  2.0748
10072TIP3    H254412   1.357   3.689   9.771  0.1933 -1.1044 -0.9986
10073TIP3   OH254413   2.194   3.186  10.282  0.2870 -0.2926 -0.1349
10073TIP3    H154414   2.159   3.113  10.333 -0.0977 -1.2115 -1.6629
10073TIP3    H254415   2.251   3.144  10.217 -2.4158  0.3749 -3.1701
10074TIP3   OH254416   5.401   4.261  10.736  0.1550  0.1696 -0.2697
10074TIP3    H154417   5.376   4.168  10.728 -0.6233  0.4092 -0.7879
10074TIP3    H254418   5.367   4.287  10.822 -0.3500  0.1739 -0.4622
10075TIP3   OH254419   4.339   6.035  13.264 -0.6709 -0.4725 -1.0189
10075TIP3    H154420   4.424   5.992  13.270  0.1235  1.1335 -0.2420
10075TIP3    H254421   4.352   6.104  13.199 -0.8832  0.8319  0.2989
10076TIP3   OH254422   2.739   4.048  10.497 -0.2586  0.0725 -0.6123
10076TIP3    H154423   2.710   3.958  10.515  1.4582 -0.5841 -0.9631
10076TIP3    H254424   2.760   4.049  10.404  0.3021  0.6776 -0.4856
10077TIP3   OH254425   5.296   4.877  10.163  0.1554 -0.0547  0.0712
10077TIP3    H154426   5.269   4.968  10.167  2.7452  0.7788  0.9740
10077TIP3    H254427   5.305   4.858  10.070 -1.1052  0.3438 -0.1477
10078TIP3   OH254428   6.358   2.221  12.737  0.4534  0.4821 -0.3159
10078TIP3    H154429   6.338   2.264  12.654  0.1706  0.0223 -0.4906
10078TIP3    H254430   6.388   2.292  12.794  1.1863  0.7177 -0.9761
10079TIP3   OH254431   2.298   3.228  12.301  0.5125  0.5779  0.0800
10079TIP3    H154432   2.219   3.187  12.264  1.2376  0.0409 -0.9174
10079TIP3    H254433   2.302   3.313  12.258  0.4501  0.6247  0.1670
10080TIP3   OH254434   3.370   1.298  11.796  0.2878 -0.1110 -0.2130
10080TIP3    H154435   3.327   1.321  11.879 -0.4463 -2.1139  0.0073
10080TIP3    H254436   3.412   1.214  11.814 -0.0152 -0.6617 -1.9251
10081TIP3   OH254437   0.956   3.990  12.702 -0.4809 -0.3616 -0.2911
10081TIP3    H154438   0.871   4.029  12.681  1.0351  3.1262 -0.6393
10081TIP3    H254439   0.965   4.001  12.797  0.3359  1.1630 -0.5114
10082TIP3   OH254440   2.775   4.046  12.707  0.2890  0.5161  0.4135
10082TIP3    H154441   2.683   4.020  12.698 -0.0156  2.0531 -2.4115
10082TIP3    H254442   2.808   3.996  12.781 -2.7187 -0.3672  1.2931
10083TIP3   OH254443   3.269   0.489  10.454  0.6831  0.1730 -0.7466
10083TIP3    H154444   3.318   0.407  10.454  0.2486 -0.0895 -0.8817
10083TIP3    H254445   3.266   0.515  10.362  0.8948  0.3878 -0.6943
10084TIP3   OH254446   6.174   0.047   9.756 -0.2664  0.1390  0.4321
10084TIP3    H154447   6.242  -0.002   9.710 -0.8468 -2.0010  1.7138
10084TIP3    H254448   6.215   0.070   9.840 -1.0159 -0.9666  1.1179
10085TIP3   OH254449   6.601   6.379  10.420 -0.1511  0.4653  0.1736
10085TIP3    H154450   6.572   6.290  10.398  1.6033  0.2311 -1.4070
10085TIP3    H254451   6.528   6.435  10.393 -0.1569 -0.2882 -1.4789
10086TIP3   OH254452   6.476   2.729  11.327 -0.1444 -0.3408 -0.0745
10086TIP3    H154453   6.527   2.715  11.247 -1.0636  2.0325 -1.1744
10086TIP3    H254454   6.518   2.804  11.369  0.5039 -1.7219  1.9100
10087TIP3   OH254455   4.862   4.228  10.984 -0.0376 -0.5438 -0.1070
10087TIP3    H154456   4.846   4.314  10.947 -2.2400 -0.9277 -0.1551
10087TIP3    H254457   4.874   4.244  11.078 -1.5902 -0.2690  0.0651
10088TIP3   OH254458   3.134   4.499  11.224 -0.0623 -0.3039  0.9817
10088TIP3    H154459   3.199   4.437  11.257 -0.2943 -0.1099  1.8055
10088TIP3    H254460   3.183   4.558  11.168  0.0908 -1.5255 -0.2382
10089TIP3   OH254461   6.664   5.697  12.533 -0.0339  0.2590 -0.8312
10089TIP3    H154462   6.742   5.649  12.505 -0.5353 -0.7982 -0.4736
10089TIP3    H254463   6.615   5.634  12.585 -0.4138  1.3653  0.1965
10090TIP3   OH254464   0.541   0.392  11.544  0.5196  0.3440  0.2879
10090TIP3    H154465   0.543   0.324  11.612 -0.9664  0.1820  0.1956
10090TIP3    H254466   0.586   0.352  11.470  2.2942  0.5745  1.1786
10091TIP3   OH254467   6.624   0.975  12.445 -0.6189 -0.0430  0.4464
10091TIP3    H154468   6.640   0.907  12.511 -3.3251  1.2833  2.6912
10091TIP3    H254469   6.589   0.926  12.370  2.9437 -1.6319 -0.4045
10092TIP3   OH254470   3.231   5.811  11.420  0.0826 -0.2513 -0.1351
10092TIP3    H154471   3.158   5.800  11.360 -0.1788 -2.4550  0.5104
10092TIP3    H254472   3.308   5.819  11.363 -0.3012 -1.1228 -0.7940
10093TIP3   OH254473   1.403   3.262  11.133  0.1202 -0.3713  0.2928
10093TIP3    H154474   1.464   3.311  11.078 -1.1222 -0.7300 -1.4643
10093TIP3    H254475   1.360   3.201  11.074 -1.5686 -0.5088  1.5763
10094TIP3   OH254476   0.662   0.132   9.362  0.4423  0.3945 -0.1968
10094TIP3    H154477   0.567   0.134   9.371  0.5086  2.4555  0.7740
10094TIP3    H254478   0.681   0.196   9.293  1.1823  1.5801  1.0434
10095TIP3   OH254479   6.151   5.545  11.870 -0.1619  0.1833  0.7223
10095TIP3    H154480   6.247   5.543  11.878 -0.0173 -0.4505 -0.8747
10095TIP3    H254481   6.131   5.480  11.803 -1.7214  0.3310  1.0145
10096TIP3   OH254482   0.075   4.739  10.759  0.4485 -0.4301  0.1349
10096TIP3    H154483   0.087   4.718  10.666  0.2735 -1.0080  0.2406
10096TIP3    H254484   0.003   4.682  10.788 -0.9910  1.2561  0.0952
10097TIP3   OH254485   4.421   0.799  10.444  0.4589 -0.4587  0.2793
10097TIP3    H154486   4.514   0.779  10.430  0.3650 -0.4903 -0.3430
10097TIP3    H254487   4.420   0.894  10.459  0.8484 -0.7775  2.7672
10098TIP3   OH254488   0.942   0.185  12.555 -0.2875  0.0789  0.2600
10098TIP3    H154489   0.976   0.198  12.644  1.2484 -1.6241 -0.0144
10098TIP3    H254490   0.988   0.251  12.503  0.3444 -0.2373  0.4073
10099TIP3   OH254491   4.660   1.111  10.174 -0.2461 -0.1974 -0.6416
10099TIP3    H154492   4.632   1.130  10.085 -0.1959  0.4703 -0.5271
10099TIP3    H254493   4.708   1.028  10.168  1.8140  0.9726 -1.6661
10100TIP3   OH254494   0.677   4.663  11.626  0.0315 -0.4626  0.1775
10100TIP3    H154495   0.708   4.751  11.648  1.3347 -1.1919  1.4824
10100TIP3    H254496   0.651   4.668  11.534  0.4319  1.1785  0.1254
10101TIP3   OH254497   5.863   1.288  10.085 -0.0822  0.6263  0.2067
10101TIP3    H154498   5.913   1.294  10.167 -0.7474  0.4508  0.6295
10101TIP3    H254499   5.890   1.366  10.036  0.9818  0.2767  0.2108
10102TIP3   OH254500   0.884   5.589  18.240  0.3943 -0.4962 -0.0272
10102TIP3    H154501   0.877   5.584  18.335 -1.0793 -0.6981 -0.1340
10102TIP3    H254502   0.912   5.501  18.213  0.8348 -0.4318  0.2171
10103TIP3   OH254503   3.529   2.224   9.655 -0.2696  0.2502  0.0950
10103TIP3    H154504   3.507   2.306   9.610  0.2957  0.3701  0.0339
10103TIP3    H254505   3.580   2.251   9.732  0.3256 -0.0676 -0.1776
10104TIP3   OH254506   3.268   2.826  11.999 -0.1103 -0.3406 -0.7862
10104TIP3    H154507   3.301   2.898  11.945 -0.6965  0.3973 -0.1790
10104TIP3    H254508   3.269   2.860  12.088 -0.5863 -1.0256 -0.5106
10105TIP3   OH254509   5.314   3.825  12.024  0.2987  0.1276 -0.0674
10105TIP3    H154510   5.231   3.810  12.069 -0.5140 -0.8134 -1.8224
10105TIP3    H254511   5.291   3.878  11.948  1.0711 -1.1938 -1.2664
10106TIP3   OH254512   3.843   0.394  11.254  0.4402 -0.2114  0.5820
10106TIP3    H154513   3.927   0.377  11.211  0.4265  0.0701  0.4413
10106TIP3    H254514   3.813   0.477  11.216 -0.8780 -1.2889 -0.9045
10107TIP3   OH254515   6.272   4.669  10.600  0.0274 -0.0268 -0.2410
10107TIP3    H154516   6.357   4.629  10.584  0.7769  0.7329  1.6552
10107TIP3    H254517   6.268   4.744  10.540  0.9637  0.3139  0.1196
10108TIP3   OH254518   4.045   2.876  10.122  0.0791 -0.6882  0.7245
10108TIP3    H154519   3.962   2.872  10.074 -0.1018  1.6039  0.7396
10108TIP3    H254520   4.104   2.923  10.063 -0.2061  2.3689  2.6631
10109TIP3   OH254521   5.563   6.151  11.841  0.2151  0.1058 -0.1043
10109TIP3    H154522   5.468   6.143  11.831  0.2926  0.1147 -0.9029
10109TIP3    H254523   5.589   6.214  11.773  0.7572  0.3059  0.2818
10110TIP3   OH254524   3.524   0.954   9.946 -0.2934 -0.0492 -0.0834
10110TIP3    H154525   3.601   0.968   9.891 -0.5919 -1.4074 -0.9114
10110TIP3    H254526   3.469   1.031   9.932 -0.9335 -0.8754 -2.7262
10111TIP3   OH254527   1.378   2.359  11.889 -0.5424  0.0274  0.1073
10111TIP3    H154528   1.290   2.390  11.871 -1.1590 -1.0441  1.1538
10111TIP3    H254529   1.374   2.325  11.979  0.5034 -1.4858 -0.3752
10112TIP3   OH254530   2.792   2.318  11.426  0.6899  0.2253  0.0884
10112TIP3    H154531   2.744   2.235  11.419 -2.0671  1.7217  0.0208
10112TIP3    H254532   2.754   2.373  11.358  0.8124  2.2905  1.6080
10113TIP3   OH254533   3.911   6.356  10.332  0.2408  0.4505 -0.3611
10113TIP3    H154534   3.862   6.276  10.317  0.0204  0.2422  1.2738
10113TIP3    H254535   3.858   6.425  10.293 -0.3088 -0.0254 -0.4549
10114TIP3   OH254536   1.914   1.536  13.073  0.5207  0.1481  0.5761
10114TIP3    H154537   1.876   1.616  13.038  0.7016 -0.2327 -0.5448
10114TIP3    H254538   1.839   1.480  13.092  0.4398  0.0722  0.0561
10115TIP3   OH254539   1.117   6.163  13.578 -0.4570  0.2940 -0.2064
10115TIP3    H154540   1.114   6.236  13.516  0.5670  2.5679  2.2280
10115TIP3    H254541   1.024   6.142  13.594 -0.7501  0.4418 -1.5855
10116TIP3   OH254542   1.222   6.519  12.078  0.6191  0.0426  0.2491
10116TIP3    H154543   1.265   6.440  12.044 -0.5702 -0.0716 -1.0496
10116TIP3    H254544   1.187   6.493  12.162  1.4024 -0.4099  0.4513
10117TIP3   OH254545   3.735   5.394  12.436 -0.1915 -0.0562 -0.0911
10117TIP3    H154546   3.777   5.413  12.520  0.5189 -0.2456 -0.3906
10117TIP3    H254547   3.781   5.316  12.404  0.0717  0.4590 -1.0025
10118TIP3   OH254548   4.376   5.067   9.246  0.5004  0.0031 -0.1595
10118TIP3    H154549   4.419   4.988   9.279  1.3002  0.8020  0.7456
10118TIP3    H254550   4.435   5.101   9.179  0.9383  0.6873  0.5571
10119TIP3   OH254551   1.027   3.206  13.251 -0.4396  0.1785  0.0320
10119TIP3    H154552   1.041   3.206  13.157  0.8776  1.1805  0.2019
10119TIP3    H254553   0.951   3.150  13.264  1.2155 -2.5498 -1.3266
10120TIP3   OH254554   1.826   3.701  12.956  0.0671  0.0059 -0.7598
10120TIP3    H154555   1.874   3.653  12.889 -0.3982 -0.8154 -0.5210
10120TIP3    H254556   1.742   3.722  12.915 -0.7758 -1.7105 -0.0197
10121TIP3   OH254557   3.865   5.050   9.455  0.6465  0.3029  0.1376
10121TIP3    H154558   3.924   5.070   9.383  2.0721 -0.3161  1.0818
10121TIP3    H254559   3.916   4.994   9.513 -0.2023  1.3283  1.9694
10122TIP3   OH254560   5.177   4.132   9.855 -0.5847 -0.1122  0.3238
10122TIP3    H154561   5.094   4.171   9.883  0.9101  3.1525  0.6848
10122TIP3    H254562   5.239   4.155   9.924  1.1427 -0.2519 -1.0938
10123TIP3   OH254563   4.941   4.464  10.857 -0.0257 -0.4105  0.0590
10123TIP3    H154564   4.998   4.400  10.815 -0.3326 -0.1180 -0.8178
10123TIP3    H254565   4.985   4.548  10.845 -0.6679 -0.1660 -0.7190
10124TIP3   OH254566   5.614   5.314  11.784  0.6765  0.4016  0.4003
10124TIP3    H154567   5.565   5.396  11.791 -1.0811 -0.5670 -0.0270
10124TIP3    H254568   5.698   5.340  11.746  0.1053  1.9767  0.1213
10125TIP3   OH254569   3.825   6.583  10.248  0.2561  0.1082 -0.1839
10125TIP3    H154570   3.877   6.654  10.285  1.6081 -1.2478  0.6284
10125TIP3    H254571   3.741   6.623  10.227  0.8520  1.8458  0.6086
10126TIP3   OH254572   0.157   3.197  11.721  0.0372  0.5284 -0.0257
10126TIP3    H154573   0.166   3.186  11.816 -2.3967  0.6426  0.2848
10126TIP3    H254574   0.241   3.167  11.686  1.3222  1.2626  2.1847
10127TIP3   OH254575   0.354   1.769  11.988 -0.1470  0.1313 -0.4642
10127TIP3    H154576   0.342   1.856  12.025 -0.7138 -0.7939  1.7352
10127TIP3    H254577   0.449   1.760  11.979 -0.0762  0.9164 -0.5499
10128TIP3   OH254578   2.672   5.851  11.705  0.0010  0.1275 -0.4137
10128TIP3    H154579   2.614   5.861  11.780 -0.7287 -0.7904 -0.8238
10128TIP3    H254580   2.740   5.791  11.735  0.6098  1.0029 -0.0112
10129TIP3   OH254581   2.097   3.461  10.474 -0.3124  0.2467 -0.4161
10129TIP3    H154582   2.096   3.369  10.500  0.0325  0.0773 -0.9681
10129TIP3    H254583   2.006   3.482  10.455 -0.9122  0.9423  2.7644
10130TIP3   OH254584   1.674   1.907  10.322  0.3429  0.1528 -0.0806
10130TIP3    H154585   1.715   1.982  10.278  1.1557  0.0202  0.4325
10130TIP3    H254586   1.613   1.947  10.383  1.2549  0.4371  0.6718
10131TIP3   OH254587   5.441   2.795   9.980 -0.4213 -0.2098 -0.3143
10131TIP3    H154588   5.470   2.886   9.969 -1.2231 -0.0994 -1.7720
10131TIP3    H254589   5.519   2.743   9.959  0.0592  0.1255  0.5781
10132TIP3   OH254590   4.502   6.376  11.142 -0.0259 -0.0208  0.3169
10132TIP3    H154591   4.492   6.300  11.198 -0.8056  0.8396  1.3792
10132TIP3    H254592   4.556   6.437  11.193  2.3165 -0.6006 -1.3140
10133TIP3   OH254593   4.602   2.915  11.762 -0.4238 -0.0032 -0.3695
10133TIP3    H154594   4.690   2.922  11.725 -0.0138 -2.7000 -0.0942
10133TIP3    H254595   4.615   2.872  11.846 -2.0403 -0.8855 -0.5345
10134TIP3   OH254596   6.347   3.552  10.303  0.4163  0.4473  0.4684
10134TIP3    H154597   6.351   3.625  10.242 -0.3117  0.3577  0.2962
10134TIP3    H254598   6.280   3.578  10.366  2.4662  1.3876  2.3951
10135TIP3   OH254599   1.758   2.080   9.738 -0.5015 -1.0229  0.0988
10135TIP3    H154600   1.819   2.069   9.665 -1.1345 -0.6844 -0.4876
10135TIP3    H254601   1.715   1.995   9.748 -0.8398 -0.9022 -0.3120
10136TIP3   OH254602   6.348   4.744  11.517  0.0780 -0.1863  0.1507
10136TIP3    H154603   6.323   4.833  11.493  0.2510 -0.1518  0.0921
10136TIP3    H254604   6.433   4.755  11.560  1.2635 -0.5606 -1.9642
10137TIP3   OH254605   3.551   1.355   9.949 -0.0234 -0.3933 -0.6436
10137TIP3    H154606   3.571   1.262   9.962  1.1490  0.0463  0.9775
10137TIP3    H254607   3.637   1.398   9.950 -0.7086  1.1606  2.7074
10138TIP3   OH254608   0.030   3.731  11.801  0.5932 -0.2647 -0.3251
10138TIP3    H154609  -0.029   3.743  11.876 -0.2976 -0.3589 -0.9929
10138TIP3    H254610   0.076   3.649  11.820 -0.3385 -0.8083 -0.3358
10139TIP3   OH254611   0.197   4.058  10.638 -0.2566 -0.0547  0.4455
10139TIP3    H154612   0.287   4.077  10.613 -0.4259 -0.7312 -0.7713
10139TIP3    H254613   0.203   3.985  10.700 -0.0063 -0.6217 -0.2365
10140TIP3   OH254614   3.903   4.249  11.286  0.3884  0.1850  0.3382
10140TIP3    H154615   3.928   4.191  11.358  1.6277  0.9688  0.5664
10140TIP3    H254616   3.941   4.209  11.208 -1.6890 -1.1399 -0.0792
10141TIP3   OH254617   3.312   2.079  12.377  0.5568  0.5335  0.0233
10141TIP3    H154618   3.392   2.097  12.425  0.4186  0.2001  0.3823
10141TIP3    H254619   3.332   2.001  12.325 -0.3760 -1.2754  2.2133
10142TIP3   OH254620   1.488   1.689  10.497 -0.0200  0.2293 -0.1458
10142TIP3    H154621   1.455   1.646  10.418 -0.8608 -1.8682  1.2637
10142TIP3    H254622   1.568   1.642  10.519 -0.8176 -0.5303  1.2845
10143TIP3   OH254623   5.200   0.230  11.163 -0.7567  0.1322  0.0577
10143TIP3    H154624   5.257   0.156  11.180 -0.9504  0.2601  1.4737
10143TIP3    H254625   5.170   0.219  11.073  1.4414  0.0520 -0.7132
10144TIP3   OH254626   3.499   6.099  11.409 -0.3605  0.3046  0.3563
10144TIP3    H154627   3.425   6.085  11.351  0.4794  1.8858 -1.1634
10144TIP3    H254628   3.575   6.069  11.358  0.3689  1.5287  0.6973
10145TIP3   OH254629   5.145   2.294   9.610 -0.0990 -0.1466 -0.0115
10145TIP3    H154630   5.221   2.298   9.668 -0.1299 -2.1306  0.2225
10145TIP3    H254631   5.074   2.330   9.663  0.6606  1.8950 -0.2988
10146TIP3   OH254632   6.543   1.823  10.413 -0.2041  0.2738  0.4456
10146TIP3    H154633   6.583   1.767  10.346 -0.4340  0.7742 -0.1237
10146TIP3    H254634   6.524   1.765  10.486  0.9312 -0.1107  0.4521
10147TIP3   OH254635   3.572   1.716  10.919 -0.2054 -0.0122 -0.4765
10147TIP3    H154636   3.519   1.638  10.935 -0.3768  0.5282  2.0000
10147TIP3    H254637   3.507   1.787  10.908 -0.0266  0.1717 -0.3509
10148TIP3   OH254638   0.057   0.039  10.315 -0.8147 -0.4652 -0.0309
10148TIP3    H154639   0.112   0.115  10.334 -1.9467  1.7051 -4.2397
10148TIP3    H254640  -0.023   0.054  10.367 -0.4102  0.3898  0.3605
10149TIP3   OH254641   6.686   3.686  12.318  0.6312 -0.8051  0.2435
10149TIP3    H154642   6.614   3.740  12.285  0.4759  0.0363  1.8860
10149TIP3    H254643   6.759   3.748  12.328  1.1213 -1.3487  0.0711
10150TIP3   OH254644   3.535   0.929  12.866 -0.0673  0.6832 -0.0387
10150TIP3    H154645   3.460   0.871  12.879  0.2224  0.6863  2.0917
10150TIP3    H254646   3.579   0.931  12.952  2.1099  1.0402 -1.0829
10151TIP3   OH254647   2.944   0.700  10.782  0.8197 -0.2286  0.4119
10151TIP3    H154648   3.003   0.672  10.712  0.6460 -2.2023  0.9956
10151TIP3    H254649   2.926   0.792  10.763  2.4987 -0.1258 -0.8886
10152TIP3   OH254650   1.872   2.124   9.447  0.5517 -0.0852  0.3294
10152TIP3    H154651   1.928   2.187   9.491 -1.8269  1.7577  0.8964
10152TIP3    H254652   1.862   2.159   9.358 -1.4619  0.8906  0.8942
10153TIP3   OH254653   4.944   2.429  12.314 -0.0586  0.8846  0.4700
10153TIP3    H154654   5.000   2.358  12.282 -0.6388  1.3687 -1.8336
10153TIP3    H254655   4.997   2.475  12.379  0.8329 -0.8101  0.9872
10154TIP3   OH254656   4.447   6.190  11.534  1.1486  0.0814  0.0860
10154TIP3    H154657   4.447   6.094  11.527  0.8231  0.2112 -2.4779
10154TIP3    H254658   4.367   6.217  11.490  1.5915  1.5737  0.1490
10155TIP3   OH254659   5.621   1.182   9.759 -0.5112 -0.5215 -0.5288
10155TIP3    H154660   5.617   1.178   9.854 -0.6099  1.3060 -0.4278
10155TIP3    H254661   5.531   1.196   9.731 -0.3638 -0.1260 -0.8254
10156TIP3   OH254662   5.053   5.513  10.403  0.1344  0.0762  0.0720
10156TIP3    H154663   5.019   5.441  10.456 -0.2847  0.3328  0.1582
10156TIP3    H254664   4.993   5.521  10.330 -0.3062  0.8747  0.5027
10157TIP3   OH254665   6.169   0.242  12.783  0.0377 -0.0158 -0.8801
10157TIP3    H154666   6.149   0.269  12.873 -1.5683  0.7847 -1.4508
10157TIP3    H254667   6.190   0.149  12.791 -3.9795 -1.0233 -0.1254
10158TIP3   OH254668   6.240   2.852  10.612  0.1794 -0.3235 -0.5816
10158TIP3    H154669   6.185   2.841  10.690 -0.8477 -1.4558 -1.4391
10158TIP3    H254670   6.298   2.925  10.635 -0.5998 -0.1324  0.9555
10159TIP3   OH254671   1.181   4.635   9.923  0.4509  0.1391  0.1689
10159TIP3    H154672   1.256   4.614   9.868  0.2627  0.6367 -0.2876
10159TIP3    H254673   1.158   4.553   9.965  1.2831 -0.0087  0.3508
10160TIP3   OH254674   2.291   3.139   9.706 -0.2611  0.4189 -0.6096
10160TIP3    H154675   2.373   3.186   9.719 -0.7833  0.8147  1.5560
10160TIP3    H254676   2.238   3.199   9.652 -0.0721  1.3000  0.1636
10161TIP3   OH254677   3.461   2.346  10.409 -0.4679  0.1352 -0.0487
10161TIP3    H154678   3.414   2.428  10.396 -0.0288  0.2858 -0.7575
10161TIP3    H254679   3.422   2.308  10.487  0.2842  1.7096  1.1574
10162TIP3   OH254680   0.912   2.813  11.739  0.1466 -0.4222 -0.1150
10162TIP3    H154681   0.872   2.844  11.658  2.1960  2.1107 -0.3127
10162TIP3    H254682   0.931   2.721  11.723  1.1514  0.1612 -2.8454
10163TIP3   OH254683   0.334   5.224  11.176  0.3702  1.0344  0.3668
10163TIP3    H154684   0.247   5.252  11.148  0.0617 -1.6801 -1.6994
10163TIP3    H254685   0.320   5.141  11.221  1.5518  2.4745  3.6917
10164TIP3   OH254686   3.750   0.228  10.217  0.3523 -0.1666  0.0063
10164TIP3    H154687   3.789   0.287  10.281 -0.7327  0.7660 -0.1632
10164TIP3    H254688   3.656   0.236  10.231  0.0401  0.6276 -2.1781
10165TIP3   OH254689   0.082   5.282  11.951  0.2631 -0.7253 -0.6137
10165TIP3    H154690   0.054   5.196  11.985  2.6369 -0.0455  3.8798
10165TIP3    H254691   0.176   5.272  11.935  0.9308  1.2294  1.4473
10166TIP3   OH254692   4.495   0.597   9.666  0.2160 -0.2247 -0.7550
10166TIP3    H154693   4.465   0.510   9.640  1.3541 -0.5443 -1.1015
10166TIP3    H254694   4.581   0.581   9.706 -0.0589  0.6267  0.1908
10167TIP3   OH254695   1.777   1.783  11.756 -0.2254  0.1444  0.5433
10167TIP3    H154696   1.806   1.695  11.780  0.1700  0.0158 -0.3396
10167TIP3    H254697   1.803   1.838  11.830 -3.7350 -0.9885  2.8304
10168TIP3   OH254698   2.823   5.565  11.326 -0.1666  0.0115  0.0943
10168TIP3    H154699   2.864   5.580  11.241 -0.5767 -0.3413 -0.1740
10168TIP3    H254700   2.745   5.513  11.306 -0.2918 -0.0377  0.6816
10169TIP3   OH254701   2.238   6.518  12.522 -0.0115 -0.5388 -0.2584
10169TIP3    H154702   2.219   6.484  12.434  0.1622 -1.7669  0.1617
10169TIP3    H254703   2.305   6.460  12.556  0.9077  0.7480  0.1901
10170TIP3   OH254704   5.517   5.589   9.590 -0.3657 -0.4805  0.3264
10170TIP3    H154705   5.607   5.568   9.616  0.2424  0.2789 -1.0687
10170TIP3    H254706   5.491   5.516   9.534 -0.3298 -0.3184  0.0968
10171TIP3   OH254707   4.459   0.106  10.559 -0.5064  0.3918  0.1685
10171TIP3    H154708   4.434   0.163  10.631 -0.1631  1.6659 -0.6851
10171TIP3    H254709   4.387   0.044  10.550 -0.4689  0.0860  1.7067
10172TIP3   OH254710   5.195   2.794  11.919 -0.0335 -0.2098 -0.2437
10172TIP3    H154711   5.251   2.729  11.961  0.2150  0.8075  1.0809
10172TIP3    H254712   5.153   2.840  11.991 -0.2579  1.0424 -1.1292
10173TIP3   OH254713   3.328   2.575  10.328  0.5742 -0.1776  0.2851
10173TIP3    H154714   3.240   2.557  10.295 -0.7649 -0.5222  3.6553
10173TIP3    H254715   3.338   2.670  10.320 -0.0061 -0.1573 -0.3168
10174TIP3   OH254716   2.870   6.272  11.090 -0.2719  0.1401  0.0930
10174TIP3    H154717   2.919   6.287  11.171 -0.6938 -0.6173  0.4931
10174TIP3    H254718   2.892   6.348  11.035  0.3074  0.4743  0.7663
10175TIP3   OH254719   3.861   3.419  11.177 -0.4893  0.7251  0.5289
10175TIP3    H154720   3.930   3.485  11.178 -0.4295  0.6580  0.9026
10175TIP3    H254721   3.878   3.365  11.254  0.1089 -0.3978 -0.3646
10176TIP3   OH254722   2.041   0.012  10.146  0.1737  0.2586  0.2024
10176TIP3    H154723   2.102  -0.049  10.187 -0.2718  0.7647  1.6876
10176TIP3    H254724   2.055   0.095  10.191 -1.3441  0.4778  0.3361
10177TIP3   OH254725   5.830   1.770  11.562 -0.3341  0.3788 -0.9050
10177TIP3    H154726   5.840   1.784  11.468  2.2628  0.0886 -0.7483
10177TIP3    H254727   5.905   1.715  11.586 -1.0506  0.2558  1.3029
10178TIP3   OH254728   2.143   3.315   9.559 -0.4557 -0.5473  0.0057
10178TIP3    H154729   2.064   3.332   9.507 -0.2325  1.0118  0.1157
10178TIP3    H254730   2.158   3.396   9.606  0.9111 -1.0084  0.4090
10179TIP3   OH254731   3.758   4.928  12.005  0.0257 -0.5189 -0.3334
10179TIP3    H154732   3.763   4.969  11.918 -0.6675 -1.4784 -0.8415
10179TIP3    H254733   3.846   4.938  12.041 -0.1109  1.4691 -0.3998
10180TIP3   OH254734   0.264   2.788  10.758  0.1961 -0.0069 -0.3932
10180TIP3    H154735   0.330   2.828  10.702  1.6313 -0.0908  1.1651
10180TIP3    H254736   0.271   2.834  10.841 -0.8915 -0.8303  0.1949
10181TIP3   OH254737   2.925   5.400  12.638  0.0091  0.3361 -0.2633
10181TIP3    H154738   2.834   5.429  12.630  0.1141  0.6043 -0.4662
10181TIP3    H254739   2.934   5.332  12.572 -0.2259 -0.1459  0.1877
10182TIP3   OH254740   6.649   3.796  13.265 -0.9711 -0.2935 -0.4865
10182TIP3    H154741   6.679   3.841  13.186 -0.3657  1.3770  0.6589
10182TIP3    H254742   6.650   3.863  13.333  0.5450 -2.1412  1.4365
10183TIP3   OH254743   5.413   4.509  10.624 -0.5770 -0.2462 -0.1760
10183TIP3    H154744   5.447   4.505  10.534  0.6895  0.5091  0.2356
10183TIP3    H254745   5.401   4.418  10.649  0.7728 -0.5441 -0.5108
10184TIP3   OH254746   3.725   2.811  11.078  0.0496  0.4790 -0.4517
10184TIP3    H154747   3.752   2.764  10.999 -1.2402 -0.2013 -0.5081
10184TIP3    H254748   3.633   2.787  11.091 -0.2777  1.9508  0.2700
10185TIP3   OH254749   0.998   4.744  11.065  0.0440 -0.6049 -0.4261
10185TIP3    H154750   1.028   4.835  11.066 -1.7798  0.0519 -1.2761
10185TIP3    H254751   1.078   4.693  11.052  0.9030  0.9985 -1.8808
10186TIP3   OH254752   5.981   2.538  10.779 -0.1849  0.1701  0.5942
10186TIP3    H154753   5.980   2.574  10.868 -0.7101 -0.6968  0.9613
10186TIP3    H254754   5.946   2.449  10.789  0.1457 -0.0919 -0.4205
10187TIP3   OH254755   5.639   1.941  11.966  0.2988  0.8069 -0.4718
10187TIP3    H154756   5.587   2.004  11.915  0.8486  2.3919  0.8332
10187TIP3    H254757   5.574   1.883  12.006 -0.3623  1.5861 -0.3808
10188TIP3   OH254758   1.368   2.528  10.638 -0.0840  0.3524 -0.0982
10188TIP3    H154759   1.321   2.610  10.629  1.0114  1.0315  0.2196
10188TIP3    H254760   1.393   2.505  10.549 -1.1619 -0.1236 -0.2962
10189TIP3   OH254761   0.238   1.124  11.814  0.1577  0.2069 -0.2714
10189TIP3    H154762   0.262   1.073  11.736 -1.1161  1.5191 -1.5901
10189TIP3    H254763   0.288   1.205  11.805  0.0747  0.3287  0.3491
10190TIP3   OH254764   5.367   1.548  11.459 -0.4520 -0.5112  0.2559
10190TIP3    H154765   5.285   1.506  11.433 -1.5723  1.4028  0.5223
10190TIP3    H254766   5.355   1.640  11.437  1.2359 -0.0091  1.2574
10191TIP3   OH254767   6.653   5.400  11.301  0.3048  0.8486 -0.2030
10191TIP3    H154768   6.591   5.468  11.277  0.4774  0.0684 -3.2766
10191TIP3    H254769   6.717   5.399  11.230  1.4696 -1.1821  0.7647
10192TIP3   OH254770   2.538   4.577  10.399  0.6839  0.2008  0.1091
10192TIP3    H154771   2.551   4.483  10.406  0.0691  0.0512 -0.6376
10192TIP3    H254772   2.514   4.605  10.488 -1.1953 -0.6915 -0.0712
10193TIP3   OH254773   1.749   1.936  12.687 -0.5693 -0.6098  0.0867
10193TIP3    H154774   1.680   1.928  12.621 -0.5404 -0.0610 -0.0212
10193TIP3    H254775   1.737   2.024  12.723  0.6330 -0.1513 -0.5806
10194TIP3   OH254776   3.987   0.659  10.718 -0.3007 -0.3563  0.4405
10194TIP3    H154777   3.900   0.671  10.679 -0.0416  0.8037  0.1868
10194TIP3    H254778   4.014   0.747  10.743  1.0390 -0.6289 -0.0016
10195TIP3   OH254779   4.867   3.555  10.397 -0.4175  0.0365 -0.4727
10195TIP3    H154780   4.858   3.625  10.461 -0.2127 -1.0712  0.8041
10195TIP3    H254781   4.784   3.555  10.349 -0.9512  0.2524  0.4449
10196TIP3   OH254782   1.876   5.941  10.988 -0.1739  0.0921 -0.3906
10196TIP3    H154783   1.817   5.916  10.917  2.2267  2.3248 -3.4675
10196TIP3    H254784   1.842   6.024  11.019 -0.2783 -0.0435 -0.1479
10197TIP3   OH254785   0.087   4.625  12.540  0.5172  0.0033  0.0383
10197TIP3    H154786   0.025   4.688  12.501 -0.8408 -1.4749 -0.3272
10197TIP3    H254787   0.056   4.613  12.629  0.3941 -0.5746 -0.0764
10198TIP3   OH254788   0.997   0.672  10.416  0.0205  0.1290 -0.1990
10198TIP3    H154789   0.946   0.672  10.496 -1.1289 -1.0092 -0.8929
10198TIP3    H254790   0.957   0.740  10.361  0.7358  0.8307  0.1160
10199TIP3   OH254791   4.993   2.203  11.890 -0.3883  0.0459 -0.5161
10199TIP3    H154792   5.069   2.176  11.838  0.3850  0.5871  0.3196
10199TIP3    H254793   5.004   2.159  11.974 -1.7869 -1.0635 -0.8677
10200TIP3   OH254794   2.359   2.074  10.477 -0.4177  0.1229  0.2466
10200TIP3    H154795   2.335   2.167  10.482  0.7421  0.4344  0.5005
10200TIP3    H254796   2.309   2.033  10.548 -0.3233  0.7080  0.6633
10201TIP3   OH254797   4.690   1.385  11.023 -0.0611 -0.5352 -0.1455
10201TIP3    H154798   4.677   1.294  11.049 -1.1535 -0.7570 -1.3689
10201TIP3    H254799   4.603   1.424  11.026 -0.2137 -0.4559 -2.8696
10202TIP3   OH254800   1.528   2.301  11.679 -0.1995 -0.3980  0.2000
10202TIP3    H154801   1.540   2.206  11.688 -0.9251 -0.6071 -0.8409
10202TIP3    H254802   1.475   2.326  11.755 -0.2304 -0.8726  0.3358
10203TIP3   OH254803   2.782   4.097   9.621  0.2410 -0.1982  0.4926
10203TIP3    H154804   2.875   4.074   9.623  0.4561  0.6452  0.4669
10203TIP3    H254805   2.737   4.013   9.615  1.0446 -0.5414 -1.2236
10204TIP3   OH254806   0.629   2.685  12.570  0.4895 -0.0224 -0.3074
10204TIP3    H154807   0.704   2.723  12.615  0.7556  1.8692 -2.1990
10204TIP3    H254808   0.659   2.597  12.546  1.7182  0.3167 -0.1175
10205TIP3   OH254809   4.025   1.642  11.472  0.2785  0.3434  0.4939
10205TIP3    H154810   4.011   1.555  11.509  1.0060 -0.3195 -0.7313
10205TIP3    H254811   3.953   1.654  11.411  0.4645  0.3799  0.2802
10206TIP3   OH254812   5.867   0.509  10.492 -0.6052 -0.3522  0.1158
10206TIP3    H154813   5.808   0.563  10.440 -0.8325 -0.6301  0.0823
10206TIP3    H254814   5.929   0.571  10.530 -1.8079  0.1491  1.3497
10207TIP3   OH254815   0.930   0.625  11.876 -1.0156  0.0467 -0.8116
10207TIP3    H154816   1.025   0.621  11.865 -0.9072  2.3884 -1.1798
10207TIP3    H254817   0.917   0.614  11.970 -0.2243  1.2240 -0.5411
10208TIP3   OH254818   4.217   6.630  12.042 -0.0648  0.2206  0.1234
10208TIP3    H154819   4.309   6.603  12.039  0.0302  0.6296 -0.7929
10208TIP3    H254820   4.175   6.562  12.095  0.7809  0.0912  0.6591
10209TIP3   OH254821   6.310   3.602  12.032 -0.0556  0.5024  0.5150
10209TIP3    H154822   6.278   3.684  11.996  0.2814  0.6450  0.5358
10209TIP3    H254823   6.301   3.612  12.127  0.6829  0.8183  0.5634
10210TIP3   OH254824   6.636   0.343  10.244  0.1624 -0.1028  0.0994
10210TIP3    H154825   6.543   0.330  10.225  0.6426 -0.2014 -2.6218
10210TIP3    H254826   6.653   0.433  10.218  1.2488 -0.7794 -1.7747
10211TIP3   OH254827   5.422   0.314  11.477  0.2005  0.6349 -0.7259
10211TIP3    H154828   5.470   0.246  11.525 -0.4184  0.8902  0.2822
10211TIP3    H254829   5.331   0.287  11.482 -0.4331  2.7858  1.9677
10212TIP3   OH254830   1.178   4.258  12.167 -0.3188  0.2104  0.2594
10212TIP3    H154831   1.264   4.217  12.176 -1.3200 -2.0449  0.0759
10212TIP3    H254832   1.184   4.310  12.087 -0.4499 -3.7596 -2.6124
10213TIP3   OH254833   6.545   2.450  11.248 -0.0079  0.6830  0.3477
10213TIP3    H154834   6.595   2.369  11.260  0.7003  1.2052  0.9638
10213TIP3    H254835   6.510   2.470  11.335 -1.6784  0.0982 -0.1471
10214TIP3   OH254836   3.690   0.085  10.878 -0.1695  0.0552 -0.4002
10214TIP3    H154837   3.759   0.105  10.941 -2.1620 -1.0553  2.3839
10214TIP3    H254838   3.622   0.150  10.897  0.2697  1.6218 -3.5937
10215TIP3   OH254839   0.413   5.648  12.008 -0.2152  0.0800  0.1346
10215TIP3    H154840   0.459   5.564  12.004  0.4862  0.4804 -1.2176
10215TIP3    H254841   0.321   5.626  12.013 -0.0036 -0.7737  0.3298
10216TIP3   OH254842   3.397   5.539  10.684 -0.1812  0.1914  0.6990
10216TIP3    H154843   3.462   5.567  10.619 -2.0603  1.4736 -0.7388
10216TIP3    H254844   3.401   5.443  10.682  0.7118  0.2247 -0.3374
10217TIP3   OH254845   4.428   2.102  10.894 -0.0555 -0.1780 -0.8375
10217TIP3    H154846   4.435   2.119  10.800 -1.4635 -0.3920 -0.9957
10217TIP3    H254847   4.352   2.045  10.903  1.3219 -1.9742  0.2370
10218TIP3   OH254848   0.183   5.822  10.943 -0.2603 -0.3540 -0.2376
10218TIP3    H154849   0.200   5.747  10.886 -0.6432 -0.1414 -0.6415
10218TIP3    H254850   0.161   5.784  11.028 -0.9141 -0.7235 -0.5587
10219TIP3   OH254851   4.753   6.602  12.307 -0.2066  0.4939 -0.0447
10219TIP3    H154852   4.836   6.560  12.330 -0.1774 -1.0817 -2.6421
10219TIP3    H254853   4.686   6.536  12.327 -0.3489 -0.0932 -2.1476
10220TIP3   OH254854   6.241   4.529  12.472 -0.2153  0.1325  0.3707
10220TIP3    H154855   6.212   4.570  12.553 -2.3071 -1.9763  0.7686
10220TIP3    H254856   6.302   4.461  12.499 -0.5516 -0.2682  0.1206
10221TIP3   OH254857   4.680   1.853  10.560 -0.2846  0.2842 -0.1450
10221TIP3    H154858   4.700   1.906  10.637 -2.7496  0.3598  0.5154
10221TIP3    H254859   4.650   1.770  10.596  1.4784 -0.8621 -1.1403
10222TIP3   OH254860   5.771   0.053  10.829 -0.3532 -0.0894  0.0998
10222TIP3    H154861   5.853   0.094  10.855 -0.5829 -0.8473  2.2018
10222TIP3    H254862   5.750   0.093  10.744  1.6593  0.8258 -0.0227
10223TIP3   OH254863   1.884   1.716  12.231 -0.2796 -0.1393 -0.6513
10223TIP3    H154864   1.891   1.735  12.325  0.2899  1.0511 -0.9095
10223TIP3    H254865   1.969   1.742  12.195  0.0322 -1.9079 -1.3088
10224TIP3   OH254866   0.748   0.335  11.080  0.7285  0.6128 -0.3991
10224TIP3    H154867   0.809   0.267  11.052 -0.0950 -0.5162  0.4409
10224TIP3    H254868   0.788   0.417  11.052  1.8827 -0.2000 -1.1907
10225TIP3   OH254869   4.419   3.416   9.789  0.7446 -0.2644  0.3521
10225TIP3    H154870   4.326   3.421   9.766  0.9749  2.5412 -0.3512
10225TIP3    H254871   4.465   3.427   9.706  1.6545  0.4811  0.9334
10226TIP3   OH254872   1.186   0.333  13.115  0.1400 -0.4055  0.2077
10226TIP3    H154873   1.180   0.354  13.022 -0.1107 -0.8235  0.1304
10226TIP3    H254874   1.192   0.419  13.158 -0.4820 -0.1778 -0.1399
10227TIP3   OH254875   6.212   1.894  11.640  0.1943 -0.3499  0.4176
10227TIP3    H154876   6.272   1.914  11.569  1.5630 -0.5810  1.4849
10227TIP3    H254877   6.142   1.843  11.598  0.0507  0.9783 -1.0620
10228TIP3   OH254878   2.575   6.602  12.437  0.6125  0.0473  0.2060
10228TIP3    H154879   2.574   6.556  12.353 -0.4318 -1.3541  0.9316
10228TIP3    H254880   2.538   6.538  12.499  0.5264  1.3615  1.5549
10229TIP3   OH254881   2.564   5.037  11.981  0.1080 -0.2471 -0.5934
10229TIP3    H154882   2.605   4.984  11.913  1.3985 -1.7056  1.2090
10229TIP3    H254883   2.633   5.050  12.046 -1.2017  0.6114  0.7024
10230TIP3   OH254884   0.609   2.493  11.214  0.0487 -0.1107 -0.0728
10230TIP3    H154885   0.619   2.428  11.283 -1.4627  0.1512  0.4270
10230TIP3    H254886   0.689   2.546  11.219  0.3104 -0.5795  0.9494
10231TIP3   OH254887   4.525   4.534  11.687 -0.2327  0.6918  0.0468
10231TIP3    H154888   4.574   4.453  11.678 -1.2023  0.0326  0.4824
10231TIP3    H254889   4.573   4.583  11.754  0.7775  0.8244 -0.7491
10232TIP3   OH254890   1.146   1.664  10.870  0.0872 -0.4556  0.1493
10232TIP3    H154891   1.167   1.575  10.899  2.0413 -0.2219 -0.3967
10232TIP3    H254892   1.212   1.683  10.803 -1.2318  0.8608 -0.8325
10233TIP3   OH254893   4.225   2.347  12.512  0.6025  0.1383 -0.1791
10233TIP3    H154894   4.285   2.351  12.587 -0.8798 -0.6731  1.1162
10233TIP3    H254895   4.230   2.435  12.474  0.7058  0.8923  1.4476
10234TIP3   OH254896   0.903   5.580  11.772 -0.2563 -0.3907 -0.2512
10234TIP3    H154897   0.809   5.567  11.776 -0.3824  0.4323 -0.3393
10234TIP3    H254898   0.934   5.515  11.710 -0.8057 -0.4736 -0.4413
10235TIP3   OH254899   1.009   5.685   9.753 -0.1916  0.1435  0.0434
10235TIP3    H154900   1.022   5.713   9.843 -1.4186 -2.3637  1.0969
10235TIP3    H254901   1.069   5.740   9.702  0.8654  1.3247  2.4030
10236TIP3   OH254902   2.368   5.186  12.368 -0.8347 -0.3851  0.6213
10236TIP3    H154903   2.374   5.093  12.346 -0.2673 -0.3793  0.7415
10236TIP3    H254904   2.293   5.191  12.428  0.1637 -1.0563  2.0014
10237TIP3   OH254905   2.280   2.219  12.221 -0.3548 -0.4277  0.1299
10237TIP3    H154906   2.306   2.169  12.144 -1.5639  1.3332 -1.5060
10237TIP3    H254907   2.220   2.161  12.268  0.2014 -1.4263 -0.3647
10238TIP3   OH254908   0.462   0.601  11.845  0.2498 -0.7182 -0.2625
10238TIP3    H154909   0.523   0.643  11.784  0.5875 -1.2071 -0.2649
10238TIP3    H254910   0.400   0.555  11.789 -0.0445 -0.3264 -0.2581
10239TIP3   OH254911   1.716   4.979  13.238 -0.1617 -0.5974 -0.2659
10239TIP3    H154912   1.764   4.910  13.284 -0.6982  0.5509  2.1895
10239TIP3    H254913   1.627   4.972  13.272 -0.0015  1.8887  0.8614
10240TIP3   OH254914   5.105   4.981   9.347 -0.5973  0.0380  0.0558
10240TIP3    H154915   5.108   4.890   9.375  0.9458  0.0644  0.0890
10240TIP3    H254916   5.042   5.023   9.405 -0.2440 -0.7092  1.0020
10241TIP3   OH254917   5.337   3.261  10.846  0.0649 -0.1720  1.0700
10241TIP3    H154918   5.390   3.187  10.876 -1.0483 -0.6827  1.8538
10241TIP3    H254919   5.259   3.220  10.808  0.6303  0.5192 -0.9991
10242TIP3   OH254920   1.544   3.489  10.227 -0.0504  0.0130 -0.0544
10242TIP3    H154921   1.612   3.432  10.190 -1.2534 -0.0211 -2.4087
10242TIP3    H254922   1.464   3.438  10.219 -0.5238  0.3374  2.0158
10243TIP3   OH254923   1.609   2.759  11.086  0.3870 -0.1862 -0.1606
10243TIP3    H154924   1.560   2.841  11.098  0.5973 -0.2086  1.0083
10243TIP3    H254925   1.700   2.786  11.081  0.6636 -0.4568  2.3049
10244TIP3   OH254926   4.080   1.146   9.695 -0.3720 -0.3586  0.2583
10244TIP3    H154927   4.046   1.060   9.669 -0.0913 -1.1937  2.3986
10244TIP3    H254928   4.112   1.132   9.784  0.4021  1.8017  0.3622
10245TIP3   OH254929   4.298   0.607  10.604 -0.0440 -0.4918  0.7601
10245TIP3    H154930   4.363   0.658  10.556 -0.9907  0.0350  0.0008
10245TIP3    H254931   4.226   0.668  10.620  0.2199 -0.6545  2.8525
10246TIP3   OH254932   0.891   6.169  12.205 -0.1641  0.1826  0.2204
10246TIP3    H154933   0.895   6.217  12.288  0.8184  1.7485 -0.6636
10246TIP3    H254934   0.927   6.083  12.225 -0.8769  0.1845  1.6251
10247TIP3   OH254935   0.913   5.422   9.993 -0.8961 -0.1223 -0.5180
10247TIP3    H154936   0.837   5.443   9.939 -2.3279  0.7306  1.6888
10247TIP3    H254937   0.920   5.494  10.055  1.6851 -0.2277 -0.5439
10248TIP3   OH254938   5.731   6.106  13.173 -0.0830  0.1497 -0.3798
10248TIP3    H154939   5.741   6.031  13.232  0.4269  1.0530  0.7089
10248TIP3    H254940   5.694   6.068  13.093 -2.0768 -0.9151  0.9742
10249TIP3   OH254941   0.777   2.649  12.044 -0.4366 -0.1762  0.0335
10249TIP3    H154942   0.687   2.634  12.014 -0.3528 -2.2318  0.6757
10249TIP3    H254943   0.773   2.633  12.138  0.3073  1.3514  0.3549
10250TIP3   OH254944   5.249   4.885  10.425  0.2365  0.3247  0.0538
10250TIP3    H154945   5.223   4.849  10.340  1.7909  0.2336 -0.4260
10250TIP3    H254946   5.266   4.978  10.408  1.8078  0.0485 -0.0825
10251TIP3   OH254947   5.613   6.027   9.800  0.0064 -0.0554 -0.5241
10251TIP3    H154948   5.543   6.091   9.808  1.4341  1.3843  1.7178
10251TIP3    H254949   5.620   5.989   9.888  1.3791 -0.8686 -0.9572
10252TIP3   OH254950   0.800   2.876  12.319  0.2114  0.2467  0.0490
10252TIP3    H154951   0.875   2.932  12.296  1.0664 -1.2707 -1.0568
10252TIP3    H254952   0.730   2.906  12.261  1.0671 -0.6588 -1.5326
10253TIP3   OH254953   3.231   2.881  11.592 -0.3722  0.1850 -0.3890
10253TIP3    H154954   3.282   2.932  11.529 -0.5556 -0.0416 -0.7204
10253TIP3    H254955   3.159   2.939  11.617 -0.7973 -0.0508 -1.0558
10254TIP3   OH254956   2.372   0.499   9.952 -0.2895  0.3266 -0.0093
10254TIP3    H154957   2.318   0.424   9.976  1.0232  0.0574  2.4224
10254TIP3    H254958   2.345   0.568  10.013  0.4057  0.9577 -0.4029
10255TIP3   OH254959   6.478   2.057  10.270  0.2836 -0.3591  0.0214
10255TIP3    H154960   6.480   2.035  10.177  0.5749  0.6431 -0.2323
10255TIP3    H254961   6.507   1.978  10.314  0.3758 -0.7735 -0.7598
10256TIP3   OH254962   3.548   3.329  10.041  0.1871  0.0319 -0.1225
10256TIP3    H154963   3.595   3.304  10.121  0.7774 -1.5756 -0.9481
10256TIP3    H254964   3.611   3.379   9.991 -0.0352  0.6337  0.1816
10257TIP3   OH254965   1.773   3.968   9.541 -0.0579 -0.0350 -0.6011
10257TIP3    H154966   1.681   3.994   9.529 -0.5669 -0.2699  2.1469
10257TIP3    H254967   1.817   4.048   9.570  0.2431 -0.3231 -0.2639
10258TIP3   OH254968   4.551   0.930  12.826 -0.5047  0.3469  0.5860
10258TIP3    H154969   4.597   1.013  12.822  1.0696 -0.5564 -1.6114
10258TIP3    H254970   4.484   0.936  12.758 -0.5940 -0.0639  0.6353
10259TIP3   OH254971   0.506   4.254  10.003  0.3505 -0.2606  0.7054
10259TIP3    H154972   0.593   4.288   9.985  0.1791  0.3855  1.0668
10259TIP3    H254973   0.522   4.168  10.043  0.7731 -0.8398 -0.6536
10260TIP3   OH254974   1.675   5.049  10.730 -0.1666 -0.4991 -0.2035
10260TIP3    H154975   1.658   5.142  10.713  1.1202 -0.2783 -0.3475
10260TIP3    H254976   1.671   5.042  10.826  3.3729  0.5164  0.1438
10261TIP3   OH254977   0.628   1.132  11.542  0.1353  0.0450  0.2708
10261TIP3    H154978   0.713   1.173  11.556  0.1252 -0.2443  1.3441
10261TIP3    H254979   0.648   1.048  11.502  0.6335 -1.1606  2.8123
10262TIP3   OH254980   4.865   5.382  11.515  0.0436 -0.0261  0.5317
10262TIP3    H154981   4.928   5.391  11.443  1.6755  0.6181  1.9952
10262TIP3    H254982   4.878   5.293  11.547 -0.9866 -0.4625 -0.1886
10263TIP3   OH254983   0.080   6.303  10.937 -0.5542 -0.1031  0.6443
10263TIP3    H154984   0.115   6.345  11.016 -0.2246 -2.5982  1.9157
10263TIP3    H254985   0.040   6.222  10.969  0.3195 -1.6145 -1.8574
10264TIP3   OH254986   1.050   2.594  11.592 -0.6662  0.3340 -0.3913
10264TIP3    H154987   0.976   2.534  11.580  0.2584 -0.9439  0.0895
10264TIP3    H254988   1.076   2.618  11.503 -1.7158  0.8869 -0.5623
10265TIP3   OH254989   3.548   6.516  11.047 -0.3851  0.1047  0.0327
10265TIP3    H154990   3.555   6.421  11.038 -2.5669 -0.0242 -1.0437
10265TIP3    H254991   3.542   6.548  10.957 -1.6718  1.0454  0.4287
10266TIP3   OH254992   5.692   6.071  11.511  0.2088  0.0856 -0.6025
10266TIP3    H154993   5.683   5.982  11.544 -1.6319  0.1218 -0.9011
10266TIP3    H254994   5.609   6.114  11.534  1.1226  1.7892 -0.2837
10267TIP3   OH254995   0.387   5.954  10.257  0.0550  0.2474  0.1917
10267TIP3    H154996   0.376   5.863  10.231  1.0835  0.0112  0.5395
10267TIP3    H254997   0.436   5.994  10.185  0.5771  0.2383  0.5281
10268TIP3   OH254998   5.320   5.671  10.801 -0.1036  0.0924 -0.0809
10268TIP3    H154999   5.286   5.589  10.837  1.0419  0.2456  1.4537
10268TIP3    H255000   5.329   5.654  10.707  2.0521 -2.3069  0.4430
10269TIP3   OH255001   1.186   3.209  12.154  0.3703 -0.4554 -0.3221
10269TIP3    H155002   1.181   3.295  12.112  0.7596 -1.4840 -2.6026
10269TIP3    H255003   1.256   3.164  12.107 -0.5712 -2.4189  0.0810
10270TIP3   OH255004   3.134   3.249  10.370 -0.0588  0.0001  0.3018
10270TIP3    H155005   3.225   3.268  10.350  1.0831 -1.1211  3.7255
10270TIP3    H255006   3.089   3.333  10.361  0.9237  0.3166 -2.7656
10271TIP3   OH255007   4.187   6.065  12.985  0.3771  0.4843 -0.0838
10271TIP3    H155008   4.207   6.003  12.915 -0.0349 -0.9235  0.9871
10271TIP3    H255009   4.143   6.138  12.941  0.5027 -0.1689 -1.3358
10272TIP3   OH255010   5.677   0.402  10.079 -0.0217  0.0382  0.1048
10272TIP3    H155011   5.587   0.396  10.111  0.0761  0.7558  0.5251
10272TIP3    H255012   5.668   0.430   9.988 -0.2297 -0.1203  0.0750
10273TIP3   OH255013   0.447   5.874  12.480  0.3832  0.2896 -0.0513
10273TIP3    H155014   0.399   5.901  12.558 -0.6816  2.3416 -1.3233
10273TIP3    H255015   0.536   5.857  12.511  0.5162  3.0018  1.3475
10274TIP3   OH255016   0.523   0.164   9.774 -0.1777  0.5091  0.0550
10274TIP3    H155017   0.510   0.173   9.868 -2.2454 -1.1470 -0.0087
10274TIP3    H255018   0.597   0.103   9.765  0.3177  1.0212  0.5669
10275TIP3   OH255019   4.851   5.350  10.558  0.2531 -0.0943  0.1366
10275TIP3    H155020   4.796   5.300  10.497  2.7151 -0.5202 -1.8863
10275TIP3    H255021   4.813   5.438  10.559 -1.6754 -0.8704  0.5103
10276TIP3   OH255022   1.644   1.111  11.672 -0.1475  0.4931  0.0812
10276TIP3    H155023   1.619   1.196  11.634  0.7886  1.1371  0.8598
10276TIP3    H255024   1.617   1.116  11.763  0.0148 -0.0065  0.1604
10277TIP3   OH255025   2.165   2.660  10.914 -0.0603  1.0918 -0.2054
10277TIP3    H155026   2.157   2.697  11.002  0.4254 -0.8668  0.7341
10277TIP3    H255027   2.084   2.610  10.902 -0.0189  1.1581 -0.7720
10278TIP3   OH255028   2.828   0.381  10.972 -0.4989  1.2781 -0.5051
10278TIP3    H155029   2.775   0.304  10.995 -1.1670  1.7697 -0.3762
10278TIP3    H255030   2.863   0.411  11.056  3.1004 -1.2135 -0.9018
10279TIP3   OH255031   5.139   1.594  13.245 -0.0818  0.6219 -0.1567
10279TIP3    H155032   5.213   1.634  13.289  0.5118  1.0173 -1.4560
10279TIP3    H255033   5.178   1.549  13.169 -0.7574 -2.1216  1.0128
10280TIP3   OH255034   3.925   5.335  12.030 -0.1075 -1.0419  0.5635
10280TIP3    H155035   3.849   5.371  11.983 -0.4599 -0.0805  1.8011
10280TIP3    H255036   3.935   5.393  12.105  2.6377 -0.3860 -0.2121
10281TIP3   OH255037   6.414   1.378  10.637  0.1093 -0.7344  0.5001
10281TIP3    H155038   6.365   1.421  10.708 -0.1488  0.1278 -0.1888
10281TIP3    H255039   6.358   1.304  10.611  0.2395 -1.1056  1.2342
10282TIP3   OH255040   2.582   6.462  12.185 -0.0703  0.2351 -0.1584
10282TIP3    H155041   2.676   6.444  12.190 -0.2105 -0.7628 -0.7579
10282TIP3    H255042   2.556   6.426  12.100 -0.8805  1.0778 -0.2781
10283TIP3   OH255043   4.246   0.955  12.359  0.2373 -0.4300  0.2570
10283TIP3    H155044   4.264   0.965  12.453 -1.4246  0.0152  0.5507
10283TIP3    H255045   4.155   0.926  12.355 -0.1665  0.9312 -1.2660
10284TIP3   OH255046   2.883   0.132   9.757 -0.1287 -0.2846  0.2537
10284TIP3    H155047   2.896   0.226   9.744 -1.9820 -0.0466 -0.0855
10284TIP3    H255048   2.953   0.091   9.706  1.1289  0.8854  0.9488
10285TIP3   OH255049   0.859   5.083  12.196 -0.1794  0.2290  0.5859
10285TIP3    H155050   0.836   5.098  12.105  0.8427 -2.6469 -0.2572
10285TIP3    H255051   0.825   4.996  12.216 -0.0473  0.6220  2.8656
10286TIP3   OH255052   0.583   3.926   9.922 -0.0364  0.4618 -0.3426
10286TIP3    H155053   0.586   3.950  10.015  1.3015 -2.1672  0.4075
10286TIP3    H255054   0.674   3.926   9.894 -0.3334  0.1949 -1.3758
10287TIP3   OH255055   2.051   4.986  12.204  0.1343  0.3091  0.1295
10287TIP3    H155056   2.016   5.044  12.271  1.3451 -0.1440  1.2101
10287TIP3    H255057   2.087   5.044  12.137  1.9732  0.8765  1.5308
10288TIP3   OH255058   5.203   5.185  11.749 -0.0003 -0.4110 -0.3897
10288TIP3    H155059   5.157   5.212  11.670 -0.9636  2.3359  0.9888
10288TIP3    H255060   5.141   5.202  11.820  1.8666 -0.0178  1.2189
10289TIP3   OH255061   4.591   2.606   9.304 -0.2350  0.8457  0.4098
10289TIP3    H155062   4.528   2.542   9.268 -0.9292  1.9708 -0.4657
10289TIP3    H255063   4.541   2.654   9.370 -0.3400  1.7676 -0.3113
10290TIP3   OH255064   2.270   4.395  10.991 -0.6283 -0.6147 -0.0908
10290TIP3    H155065   2.365   4.409  10.994 -0.9042  1.4390  0.5419
10290TIP3    H255066   2.257   4.335  10.918  1.1987 -1.4231  0.1873
10291TIP3   OH255067   1.194   2.912  11.135 -0.2687  0.0388 -0.2134
10291TIP3    H155068   1.160   2.830  11.100 -0.6208 -0.0207  0.2465
10291TIP3    H255069   1.276   2.926  11.088 -0.3148 -0.4610 -0.4562
10292TIP3   OH255070   6.498   5.423  10.018 -0.0739 -0.6425  0.0002
10292TIP3    H155071   6.527   5.504   9.974 -0.0479 -0.3649  0.5163
10292TIP3    H255072   6.480   5.362   9.947 -1.3574  0.2345 -0.4610
10293TIP3   OH255073   1.340   4.943  12.658  0.1710 -0.3768  0.4391
10293TIP3    H155074   1.252   4.906  12.657  0.1053 -0.2239  0.3834
10293TIP3    H255075   1.378   4.917  12.742  0.1791 -0.6911  0.3375
10294TIP3   OH255076   4.064   0.090  12.248 -0.1288 -0.4443  0.9373
10294TIP3    H155077   4.131   0.119  12.311  0.3088  0.4554  0.0831
10294TIP3    H255078   4.113   0.039  12.183 -0.3684 -0.3024  0.6442
10295TIP3   OH255079   1.888   4.816  11.843 -0.4524 -0.1586 -0.3586
10295TIP3    H155080   1.902   4.743  11.782  1.2177 -1.0405  1.0092
10295TIP3    H255081   1.941   4.794  11.919 -1.3952  1.6000  0.8651
10296TIP3   OH255082   4.959   0.318  10.014  0.0762 -0.3128 -0.2370
10296TIP3    H155083   4.880   0.335   9.963  0.4032 -1.5762 -1.2063
10296TIP3    H255084   5.030   0.321   9.951  1.0028  1.9381  0.8000
10297TIP3   OH255085   3.776   3.610  12.262  0.0157 -0.0253  0.1361
10297TIP3    H155086   3.808   3.698  12.243 -0.2178 -0.2576 -1.5029
10297TIP3    H255087   3.776   3.604  12.358  0.5818  1.5408  0.2582
10298TIP3   OH255088   0.976   0.007  12.824 -0.3579  0.1956 -0.0610
10298TIP3    H155089   0.964  -0.071  12.771 -0.1280 -0.5548  0.9637
10298TIP3    H255090   1.056   0.048  12.790 -0.4480 -0.0423 -0.5605
10299TIP3   OH255091   5.784   2.946  11.417  0.2378  0.4537  0.2271
10299TIP3    H155092   5.706   2.952  11.361  0.3628  0.0884  0.0101
10299TIP3    H255093   5.780   3.024  11.472 -0.6182  0.1426  0.6409
10300TIP3   OH255094   2.302   4.848   9.660 -0.5705  0.2911 -0.5906
10300TIP3    H155095   2.318   4.759   9.630  0.9057 -0.1793  1.3851
10300TIP3    H255096   2.388   4.883   9.682 -1.2946  1.4678  0.5653
10301TIP3   OH255097   1.832   5.033  11.193 -0.3606 -0.5435  0.0793
10301TIP3    H155098   1.873   5.110  11.154  1.5040 -0.7336  1.5474
10301TIP3    H255099   1.814   5.059  11.283  2.0381 -2.3356  1.1859
10302TIP3   OH255100   4.874   5.445  11.810  0.4630 -0.2203 -0.3645
10302TIP3    H155101   4.965   5.442  11.779  0.7545  1.0567  0.3031
10302TIP3    H255102   4.861   5.536  11.835 -0.5236 -0.7184  1.0077
10303TIP3   OH255103   0.843   0.088   9.844 -1.1687 -0.0154  0.6090
10303TIP3    H155104   0.909   0.027   9.811 -0.7158 -1.4054  3.6883
10303TIP3    H255105   0.803   0.125   9.766  2.2090 -0.2065 -1.4203
10304TIP3   OH255106   0.315   2.026  12.097 -0.0388 -0.3796  0.4647
10304TIP3    H155107   0.336   2.114  12.129 -0.0695 -0.0071 -0.5289
10304TIP3    H255108   0.220   2.021  12.102 -0.2939  0.6987 -2.1166
10305TIP3   OH255109   1.245   3.371  10.750 -0.2588 -0.4744  0.0521
10305TIP3    H155110   1.193   3.367  10.831  0.2552  0.6528  0.4516
10305TIP3    H255111   1.186   3.410  10.686 -0.2448 -0.1409  0.2393
10306TIP3   OH255112   6.018   2.354  12.664 -0.7521  0.6227 -0.7250
10306TIP3    H155113   6.050   2.354  12.754 -0.6245  0.1091 -0.7647
10306TIP3    H255114   5.994   2.445  12.646  0.0706  0.8921 -0.4794
10307TIP3   OH255115   0.323   5.026  11.391 -0.4181 -0.0386  0.3849
10307TIP3    H155116   0.287   4.956  11.444 -1.1476 -0.5699 -0.7603
10307TIP3    H255117   0.258   5.096  11.396 -1.0246 -0.5070 -0.6545
10308TIP3   OH255118   3.404   3.340  11.585 -0.4606  0.0714  0.1702
10308TIP3    H155119   3.362   3.369  11.666 -0.5032  0.3992  0.0323
10308TIP3    H255120   3.455   3.263  11.611  1.1295  1.3209  0.9344
10309TIP3   OH255121   5.437   6.399   9.447 -0.1637 -0.0627 -0.2609
10309TIP3    H155122   5.459   6.463   9.380  0.0563 -1.6387 -1.7695
10309TIP3    H255123   5.499   6.328   9.434 -1.9869 -1.7370 -0.3676
10310TIP3   OH255124   2.526   0.054  12.224  0.2224  0.3084 -0.1143
10310TIP3    H155125   2.544  -0.020  12.165  3.3605 -0.3956  1.5140
10310TIP3    H255126   2.528   0.015  12.312 -1.1531  1.8659  0.6516
10311TIP3   OH255127   5.662   2.251  11.648  0.8482 -0.1094 -0.4993
10311TIP3    H155128   5.748   2.208  11.649  0.9175  0.0307 -0.1787
10311TIP3    H255129   5.602   2.184  11.614  0.8124 -0.7501  0.7405
10312TIP3   OH255130   3.991   6.383  13.030  0.1235  0.2029 -0.2138
10312TIP3    H155131   4.053   6.455  13.044 -0.7303  0.8345  0.4000
10312TIP3    H255132   4.023   6.312  13.087  0.1985  0.5874  0.2319
10313TIP3   OH255133   6.360   5.361  11.195  0.0370 -0.1626 -0.1673
10313TIP3    H155134   6.399   5.443  11.167  2.6965 -0.2261  2.8567
10313TIP3    H255135   6.292   5.386  11.257  0.0035 -0.2335 -0.1751
10314TIP3   OH255136   5.895   5.157  12.081  0.3985  0.1866 -0.4636
10314TIP3    H155137   5.888   5.166  11.986 -0.0598  0.3561 -0.4149
10314TIP3    H255138   5.988   5.166  12.099  0.5632 -0.4048 -0.9574
10315TIP3   OH255139   3.130   6.104  11.346  0.0666  0.3365  0.0786
10315TIP3    H155140   3.104   6.013  11.335  0.6362  0.2738 -0.7988
10315TIP3    H255141   3.049   6.150  11.368 -0.6997  0.0393 -1.9287
10316TIP3   OH255142   3.174   6.162  12.472  0.5007  0.1716  0.4980
10316TIP3    H155143   3.236   6.138  12.541  1.1869  1.3081  0.3044
10316TIP3    H255144   3.133   6.242  12.504 -0.0499  0.0456  0.1121
10317TIP3   OH255145   3.194   3.799  13.380 -0.2893 -0.1607  0.3725
10317TIP3    H155146   3.145   3.767  13.304 -0.9755 -0.4313  0.9288
10317TIP3    H255147   3.131   3.798  13.452  0.4196 -0.1128  0.9999
10318TIP3   OH255148   2.556   3.564  10.207  0.0429 -0.4131 -0.8113
10318TIP3    H155149   2.479   3.537  10.256  1.3049 -2.8290 -0.0126
10318TIP3    H255150   2.612   3.486  10.204  2.0167  0.9462 -2.2310
10319TIP3   OH255151   1.509   4.126  12.607 -0.7537 -0.2162  0.3876
10319TIP3    H155152   1.511   4.068  12.684  1.6141 -0.2318  0.3995
10319TIP3    H255153   1.518   4.214  12.643 -0.0878 -0.1916  0.1866
10320TIP3   OH255154   6.379   4.108  11.969 -0.3581  0.5230  0.0450
10320TIP3    H155155   6.472   4.132  11.968 -0.2899  0.2651 -0.6720
10320TIP3    H255156   6.348   4.134  12.056  0.4912  0.2211  0.4522
10321TIP3   OH255157   6.225   6.379  12.176  0.1248  0.2431  0.3221
10321TIP3    H155158   6.268   6.461  12.202 -0.4959  0.2944  1.2349
10321TIP3    H255159   6.146   6.407  12.130  0.7416  0.1455 -0.8336
10322TIP3   OH255160   1.061   3.825  10.691 -0.4286 -0.4445  0.1745
10322TIP3    H155161   1.014   3.907  10.680 -0.2851 -0.5672 -1.6145
10322TIP3    H255162   1.078   3.819  10.785 -0.5161  1.5149  0.3403
10323TIP3   OH255163   1.814   5.884  10.616 -0.2684  0.1830 -0.1647
10323TIP3    H155164   1.774   5.846  10.538 -0.5479  0.4324 -0.1429
10323TIP3    H255165   1.768   5.843  10.689 -0.0870  0.0372 -0.1304
10324TIP3   OH255166   5.000   0.145  10.621 -0.5046  0.7024  0.1530
10324TIP3    H155167   5.091   0.127  10.643 -0.7039 -0.8795 -0.2006
10324TIP3    H255168   4.958   0.166  10.704  0.1346  1.2608  0.3406
10325TIP3   OH255169   2.754   4.910  10.881 -0.2947  0.3938 -0.3084
10325TIP3    H155170   2.822   4.955  10.830  0.2081  0.6945  0.6112
10325TIP3    H255171   2.686   4.888  10.817  0.0759  1.2587 -1.0057
10326TIP3   OH255172   6.232   0.875   9.387 -0.3322 -0.3254  0.2247
10326TIP3    H155173   6.165   0.927   9.432  0.6983 -0.0568  1.5087
10326TIP3    H255174   6.188   0.840   9.310 -1.9093 -0.0499  0.9690
10327TIP3   OH255175   2.258   2.335  11.575 -0.4579  0.0698  0.7104
10327TIP3    H155176   2.174   2.381  11.586 -0.9211 -0.1243 -1.5246
10327TIP3    H255177   2.278   2.345  11.482  0.2800 -2.8054  0.4774
10328TIP3   OH255178   3.921   5.209  11.584  0.6456  0.2653  0.2279
10328TIP3    H155179   3.963   5.142  11.531 -0.0204  0.2753 -0.3235
10328TIP3    H255180   3.860   5.253  11.525 -1.4576 -0.9011  1.3977
10329TIP3   OH255181   2.867   3.826  11.406 -0.6185  0.9264  0.6280
10329TIP3    H155182   2.906   3.906  11.441 -0.0667  1.0673 -0.2598
10329TIP3    H255183   2.795   3.857  11.351 -0.1020  0.8609 -0.1038
10330TIP3   OH255184   3.593   3.507  13.267 -0.3526 -0.8466  0.1967
10330TIP3    H155185   3.535   3.433  13.284 -0.6110 -1.0276 -1.3211
10330TIP3    H255186   3.618   3.539  13.354 -3.8279  0.1583  0.9706
10331TIP3   OH255187   6.515   3.598   9.589 -0.4332  0.4206 -0.3189
10331TIP3    H155188   6.530   3.659   9.661  1.0430 -0.0133 -0.2244
10331TIP3    H255189   6.553   3.641   9.512 -1.1634  0.4740 -0.6565
10332TIP3   OH255190   5.306   6.305  12.520  0.0858 -0.0833 -0.6606
10332TIP3    H155191   5.235   6.254  12.480 -0.1728 -0.1248 -0.1553
10332TIP3    H255192   5.297   6.289  12.614  2.1001 -1.8022 -0.7063
10333TIP3   OH255193   1.527   2.786  12.757 -0.1513 -0.1385  0.1911
10333TIP3    H155194   1.608   2.815  12.715 -0.0899 -0.1920  0.2725
10333TIP3    H255195   1.480   2.738  12.689 -1.0117  1.5331 -0.4434
10334TIP3   OH255196   0.508   2.610  11.516  0.2452 -0.2611 -0.6529
10334TIP3    H155197   0.438   2.604  11.451  1.9809  0.2715 -2.6839
10334TIP3    H255198   0.515   2.521  11.551 -2.8622  0.1144  1.2913
10335TIP3   OH255199   2.786   1.964  10.039  0.0031  0.3535 -0.4734
10335TIP3    H155200   2.755   1.878  10.011 -2.6831  1.0203  0.2190
10335TIP3    H255201   2.762   1.969  10.131 -2.2002  2.7384 -1.0717
10336TIP3   OH255202   5.211   6.377   9.897 -0.5696  0.6892  0.1524
10336TIP3    H155203   5.273   6.450   9.906  2.8962 -2.2199  4.9757
10336TIP3    H255204   5.140   6.399   9.957 -1.1436  1.3711 -0.7571
10337TIP3   OH255205   1.643   2.557  10.691  0.3493 -0.9323  0.7102
10337TIP3    H155206   1.678   2.543  10.779  0.6279 -2.3189  0.4001
10337TIP3    H255207   1.548   2.554  10.702  0.3721 -2.8600  0.7460
10338TIP3   OH255208   0.421   5.759  11.730 -0.0043 -0.5951  0.4815
10338TIP3    H155209   0.426   5.757  11.825 -1.4216 -0.7710  0.5704
10338TIP3    H255210   0.451   5.846  11.706  2.0384 -1.1093  0.9353
10339TIP3   OH255211   3.805   4.727  12.620 -0.0006  0.1715  0.3907
10339TIP3    H155212   3.717   4.742  12.656  0.0262  1.4563 -0.0207
10339TIP3    H255213   3.860   4.712  12.696 -0.3277  0.7519  0.7478
10340TIP3   OH255214   0.367   3.271  11.222 -0.2433  0.0701  0.3581
10340TIP3    H155215   0.384   3.365  11.227 -0.1582 -0.0115  1.7711
10340TIP3    H255216   0.292   3.257  11.279  1.4399 -1.0995  2.4128
10341TIP3   OH255217   3.577   5.054   9.435 -0.1730  0.2939 -0.1831
10341TIP3    H155218   3.537   5.141   9.434  2.2130  1.4551  0.2448
10341TIP3    H255219   3.666   5.068   9.467  0.6489 -2.1474 -1.1512
10342TIP3   OH255220   6.598   6.675  12.352 -0.0126 -0.3772  0.1697
10342TIP3    H155221   6.647   6.616  12.410  1.7227  1.0392  0.2138
10342TIP3    H255222   6.543   6.726  12.412  1.1861  0.5293  0.5389
10343TIP3   OH255223   3.040   3.422  12.677  0.2650  0.8833  0.6277
10343TIP3    H155224   3.020   3.405  12.769 -2.9433  1.3061  0.1169
10343TIP3    H255225   2.969   3.380  12.629  1.3591  1.4627 -1.6286
10344TIP3   OH255226   0.950   5.590  12.434  0.1635 -0.6712 -0.0359
10344TIP3    H155227   0.911   5.514  12.391  0.1368  0.0721 -1.3429
10344TIP3    H255228   0.875   5.642  12.464  0.1821 -1.0848  0.7600
10345TIP3   OH255229   4.302   5.632  13.378  0.7177  0.3253 -0.1410
10345TIP3    H155230   4.330   5.547  13.411 -0.3213 -0.6642 -1.6491
10345TIP3    H255231   4.232   5.611  13.316  0.5492  2.2781 -0.6678
10346TIP3   OH255232   0.532   3.671  10.218  0.2337 -0.1291 -0.1697
10346TIP3    H155233   0.463   3.673  10.284  1.2303 -0.4380  0.9195
10346TIP3    H255234   0.491   3.634  10.140 -0.7652 -0.5160  0.5271
10347TIP3   OH255235   0.644   3.628  11.107 -0.3292  0.5169 -0.1143
10347TIP3    H155236   0.622   3.712  11.146  0.0037  0.6626 -0.2362
10347TIP3    H255237   0.652   3.568  11.181  0.3917  0.8122  0.0540
10348TIP3   OH255238   2.167   4.777  12.622  0.4925 -0.2036  0.0352
10348TIP3    H155239   2.073   4.783  12.639  0.3624  0.1836 -0.7697
10348TIP3    H255240   2.182   4.840  12.551  1.8587  1.9480  2.0840
10349TIP3   OH255241   5.001   5.911  10.023  0.1220 -0.0533 -0.1930
10349TIP3    H155242   5.014   5.973  10.095 -2.8561  0.3455  0.1385
10349TIP3    H255243   4.937   5.848  10.057 -0.3348 -0.6537 -2.0305
10350TIP3   OH255244   1.043   2.165  10.550 -0.1398 -0.0368  0.1813
10350TIP3    H155245   1.060   2.082  10.594 -0.5991  1.4056  3.3351
10350TIP3    H255246   1.127   2.190  10.512  0.1328 -1.6357 -0.3421
10351TIP3   OH255247   1.916   5.327  11.705  0.1490  0.1132  0.1822
10351TIP3    H155248   1.947   5.413  11.733  0.8870  0.2021 -0.8440
10351TIP3    H255249   1.995   5.273  11.704  0.1794  0.1202 -1.6790
10352TIP3   OH255250   6.321   4.551  11.703 -0.4304  0.7289 -0.9334
10352TIP3    H155251   6.336   4.603  11.623  1.0324 -2.0818 -2.6201
10352TIP3    H255252   6.228   4.566  11.722 -1.2325  0.4627 -4.0186
10353TIP3   OH255253   3.595   0.250   9.617  0.1520  0.3482  0.1411
10353TIP3    H155254   3.595   0.332   9.569 -2.0197 -0.0334 -0.6019
10353TIP3    H255255   3.634   0.186   9.557 -1.7602  0.0537 -0.8405
10354TIP3   OH255256   1.425   6.581   9.891 -0.5806  0.1834 -0.1127
10354TIP3    H155257   1.356   6.608   9.829 -2.2348 -0.7165  1.2361
10354TIP3    H255258   1.398   6.621   9.974 -0.6265 -1.8456  0.8999
10355TIP3   OH255259   4.931   2.864  10.137  0.1940  0.3268 -0.2862
10355TIP3    H155260   5.023   2.839  10.135  0.0856 -0.1678  0.4715
10355TIP3    H255261   4.885   2.784  10.163 -0.2325  1.0927  1.4620
10356TIP3   OH255262   5.423   5.890  11.993 -0.2365  0.1855  0.4106
10356TIP3    H155263   5.399   5.800  11.972 -2.3896  0.8188 -0.0520
10356TIP3    H255264   5.427   5.934  11.908  1.7475  0.3703  0.5423
10357TIP3   OH255265   2.723   2.532  11.618 -0.1341 -0.4377  0.5036
10357TIP3    H155266   2.795   2.595  11.623 -0.4519  0.0655 -0.8974
10357TIP3    H255267   2.757   2.461  11.563 -0.6085 -0.3220  0.0558
10358TIP3   OH255268   2.693   1.729   9.866 -0.0630 -0.0460  0.1709
10358TIP3    H155269   2.787   1.714   9.862  0.2595  1.5700  1.1366
10358TIP3    H255270   2.663   1.717   9.775  0.5409 -3.4640  0.2859
10359TIP3   OH255271   5.034   5.817  11.941 -0.0356 -0.4799  0.1755
10359TIP3    H155272   5.029   5.816  12.037  1.0505 -1.2233  0.2356
10359TIP3    H255273   4.956   5.770  11.913 -1.7578  1.9117  0.5893
10360TIP3   OH255274   6.532   6.117  10.365  0.8245  0.1618 -0.1755
10360TIP3    H155275   6.582   6.073  10.434  0.1472  0.1298  0.3087
10360TIP3    H255276   6.510   6.048  10.303  0.8686  0.0644 -0.0816
10361TIP3   OH255277   3.777   2.019  11.922 -0.0493 -0.2873 -0.4510
10361TIP3    H155278   3.843   1.949  11.924  0.4151  0.1466  0.8404
10361TIP3    H255279   3.761   2.038  12.015  0.9462  2.3323 -0.7377
10362TIP3   OH255280   6.389   5.524  11.990  0.8545 -0.2922  0.0670
10362TIP3    H155281   6.376   5.430  12.005  1.7275 -0.2531  1.3039
10362TIP3    H255282   6.475   5.529  11.948  0.7770 -0.0560 -0.0624
10363TIP3   OH255283   5.487   2.204  11.872  0.1660  0.1618 -0.1217
10363TIP3    H155284   5.399   2.195  11.837 -0.6467 -0.5145  1.8856
10363TIP3    H255285   5.540   2.238  11.800 -1.0100 -2.4382 -2.4107
10364TIP3   OH255286   2.898   1.571  10.421 -0.3569 -0.2883  0.5206
10364TIP3    H155287   2.895   1.480  10.390  0.1220 -0.4928  1.0652
10364TIP3    H255288   2.988   1.584  10.450 -0.3327  0.4712  0.1347
10365TIP3   OH255289   1.362   4.570  11.561  0.3298 -0.8142  0.7681
10365TIP3    H155290   1.288   4.534  11.512 -0.4939 -0.6008  1.8176
10365TIP3    H255291   1.431   4.579  11.496 -0.1348 -2.2352  0.0201
10366TIP3   OH255292   2.725   5.316  10.656 -0.3200 -0.2284 -0.0291
10366TIP3    H155293   2.665   5.385  10.684 -1.0818  0.0878 -2.2267
10366TIP3    H255294   2.805   5.361  10.632 -0.2128 -0.3050  0.1877
10367TIP3   OH255295   6.565   2.756  11.895  0.4404 -0.0378  0.2051
10367TIP3    H155296   6.659   2.770  11.902  0.4618  0.3783 -0.7831
10367TIP3    H255297   6.545   2.769  11.802 -0.4349 -1.1176  0.2207
10368TIP3   OH255298   6.380   0.668  11.104 -0.0013 -0.2241  0.1283
10368TIP3    H155299   6.381   0.603  11.033 -1.0991 -0.2589  0.1274
10368TIP3    H255300   6.425   0.625  11.176 -1.2187 -1.2534  0.3191
10369TIP3   OH255301   1.780   6.261  12.566  0.7013 -0.2878  0.1948
10369TIP3    H155302   1.754   6.312  12.642 -0.0946  0.2839 -0.4380
10369TIP3    H255303   1.842   6.316  12.519  0.9557 -0.5117  0.2626
10370TIP3   OH255304   4.663   5.989  11.137 -0.3474 -0.2248 -0.2180
10370TIP3    H155305   4.697   5.932  11.207  0.4361 -0.2710 -0.6354
10370TIP3    H255306   4.630   5.928  11.071  0.5204 -0.2098 -0.6789
10371TIP3   OH255307   3.081   3.449  10.027 -0.5490  0.3477  0.6348
10371TIP3    H155308   3.161   3.483   9.988 -0.5472 -0.7921 -0.4440
10371TIP3    H255309   3.075   3.492  10.112  0.9784  0.7661  0.5618
10372TIP3   OH255310   2.801   4.478  11.787 -0.1635 -0.0672  0.5890
10372TIP3    H155311   2.757   4.443  11.864 -0.9228  2.2554  1.2774
10372TIP3    H255312   2.822   4.569  11.810  2.0343 -0.1035 -0.9595
10373TIP3   OH255313   4.956   1.761  11.304 -1.0198 -0.9053  0.6823
10373TIP3    H155314   4.905   1.725  11.231 -1.6055 -2.6966  1.9187
10373TIP3    H255315   4.891   1.788  11.368 -0.4930 -2.6211  2.0098
10374TIP3   OH255316   5.116   5.485  11.405  0.1768 -0.2142  0.2136
10374TIP3    H155317   5.126   5.493  11.310 -1.2299 -1.4096 -0.0735
10374TIP3    H255318   5.060   5.558  11.430 -1.1525 -1.0516 -0.2240
10375TIP3   OH255319   3.764   0.317   9.288 -0.4838 -0.3521  0.1821
10375TIP3    H155320   3.802   0.371   9.218  2.3758 -1.1163  0.9932
10375TIP3    H255321   3.745   0.379   9.358  2.1295 -0.1530  0.8425
10376TIP3   OH255322   2.988   0.537  10.133  0.2997  0.1422  0.6132
10376TIP3    H155323   2.946   0.603  10.188 -0.1497  0.3113  0.0796
10376TIP3    H255324   2.945   0.455  10.157  2.9435 -0.5850  3.5190
10377TIP3   OH255325   0.210   0.640  12.819 -0.2020  0.4419  0.1226
10377TIP3    H155326   0.146   0.652  12.890 -3.2178 -1.3690 -2.0343
10377TIP3    H255327   0.216   0.726  12.778 -1.2630  0.6751  0.4074
10378TIP3   OH255328   3.089   2.130  10.652 -0.0220 -0.1782  0.4003
10378TIP3    H155329   3.048   2.059  10.700  1.4534 -0.6416  1.0301
10378TIP3    H255330   3.040   2.135  10.569 -2.4655  0.4781  1.7829
10379TIP3   OH255331   3.641   1.589  12.291  0.3519 -0.5553  0.2387
10379TIP3    H155332   3.726   1.545  12.304 -0.5512 -2.9530 -1.1596
10379TIP3    H255333   3.598   1.536  12.224 -1.9244  1.1079  0.2921
10380TIP3   OH255334   3.766   6.537  11.995  0.1706 -0.5649  0.1970
10380TIP3    H155335   3.814   6.617  11.971 -1.3203  0.0388 -0.8702
10380TIP3    H255336   3.736   6.554  12.084 -1.1276  0.5843 -0.4314
10381TIP3   OH255337   3.355   3.043   9.928 -0.3854  0.5739  0.7312
10381TIP3    H155338   3.426   3.023   9.989  0.2540 -0.6509 -0.3555
10381TIP3    H255339   3.300   3.106   9.974 -0.2967 -0.7930  2.8249
10382TIP3   OH255340   2.240   5.362  10.593 -0.2629  0.0552 -0.4004
10382TIP3    H155341   2.288   5.281  10.578  0.3972  0.2882  0.3707
10382TIP3    H255342   2.307   5.431  10.590 -0.8121  0.5795 -1.0244
10383TIP3   OH255343   1.490   0.292  11.127  0.3538 -0.1222 -0.1269
10383TIP3    H155344   1.519   0.269  11.216 -0.1883  0.2816  0.1571
10383TIP3    H255345   1.500   0.211  11.077  0.8982 -0.2876  0.2395
10384TIP3   OH255346   0.077   2.019  10.427  0.6162  0.0746  0.4206
10384TIP3    H155347   0.007   1.954  10.425  1.4474 -0.8250 -1.3127
10384TIP3    H255348   0.070   2.058  10.514 -1.1310 -0.9660  0.8043
10385TIP3   OH255349   6.664   6.529  10.097 -0.1155  0.1456 -0.3315
10385TIP3    H155350   6.573   6.502  10.101 -0.8538  2.3894 -0.7312
10385TIP3    H255351   6.671   6.604  10.156  0.9835  1.1884 -1.6838
10386TIP3   OH255352   1.365   0.275   9.823 -0.4647 -0.3492 -0.3035
10386TIP3    H155353   1.432   0.237   9.881  2.5282  1.4746 -2.3094
10386TIP3    H255354   1.396   0.364   9.806 -2.7642  0.1352 -2.4021
10387TIP3   OH255355   1.170   0.844  11.573  0.3495 -0.0623  0.3555
10387TIP3    H155356   1.220   0.764  11.590  1.7653  0.5574 -0.7537
10387TIP3    H255357   1.140   0.834  11.483  1.6926  1.2216 -0.2740
10388TIP3   OH255358   6.277   2.972  11.515 -0.1155  0.3133 -0.1296
10388TIP3    H155359   6.198   2.932  11.480 -0.3640 -0.3545  1.1255
10388TIP3    H255360   6.258   3.066  11.516 -0.7343  0.1938 -0.2259
10389TIP3   OH255361   2.587   0.234  12.451  0.0623 -0.2491  0.5636
10389TIP3    H155362   2.506   0.205  12.408 -0.7116  1.8002  0.5641
10389TIP3    H255363   2.568   0.322  12.484  1.2098 -0.9803  3.5588
10390TIP3   OH255364   5.804   1.516  11.854 -0.2629  0.3672 -0.1802
10390TIP3    H155365   5.749   1.528  11.777 -1.8539 -0.4795  0.7691
10390TIP3    H255366   5.754   1.457  11.910  0.1974  2.0206  2.1315
10391TIP3   OH255367   0.888   6.367  11.291  0.2355 -0.0926 -0.2293
10391TIP3    H155368   0.890   6.391  11.198  0.2464 -2.0860 -0.7856
10391TIP3    H255369   0.963   6.309  11.303  1.4470  1.7473  1.5490
10392TIP3   OH255370   3.900   6.065  11.315 -0.3385  0.7852 -0.1687
10392TIP3    H155371   3.837   5.995  11.331  0.0853  0.3183 -0.5290
10392TIP3    H255372   3.857   6.122  11.252 -0.8686  1.1048  0.4637
10393TIP3   OH255373   1.856   4.337  10.717  0.0685  0.0434 -0.2663
10393TIP3    H155374   1.927   4.376  10.769 -0.4347 -0.2727  0.6854
10393TIP3    H255375   1.898   4.309  10.636  1.3397 -1.3718  0.8282
10394TIP3   OH255376   3.860   3.986  11.422  0.1880  0.2183 -0.2225
10394TIP3    H155377   3.767   3.968  11.439  0.3007  0.6254  0.9497
10394TIP3    H255378   3.889   3.914  11.366 -0.4951 -0.6952  0.5583
10395TIP3   OH255379   1.862   3.960  11.614  0.3666 -0.6389  0.0769
10395TIP3    H155380   1.947   3.973  11.571 -0.8090  0.5890 -2.0837
10395TIP3    H255381   1.804   4.022  11.569 -2.1948 -3.0717 -0.2019
10396TIP3   OH255382   3.866   2.117   9.855 -0.5986 -0.0691  0.3422
10396TIP3    H155383   3.885   2.210   9.840  1.9807 -0.3512  1.4356
10396TIP3    H255384   3.773   2.115   9.877 -1.1649  1.9942 -1.4805
10397TIP3   OH255385   5.409   5.451  12.905 -0.1100  0.0594  0.3277
10397TIP3    H155386   5.500   5.442  12.931 -0.0846  0.6655  0.4639
10397TIP3    H255387   5.395   5.381  12.842  0.5455  0.1756  0.0450
10398TIP3   OH255388   2.382   4.403  12.377  0.7321 -0.1994 -0.1428
10398TIP3    H155389   2.391   4.308  12.370  2.8788 -0.1570  1.1516
10398TIP3    H255390   2.317   4.416  12.446  1.9276 -0.7955  1.1496
10399TIP3   OH255391   2.162   5.124  10.111 -0.4380  0.1929 -0.8447
10399TIP3    H155392   2.245   5.078  10.103  0.1984  1.1742 -0.1127
10399TIP3    H255393   2.184   5.216  10.101 -1.1636  0.6110  0.9572
10400TIP3   OH255394   2.809   1.257  11.569 -0.1313 -0.1741  0.1415
10400TIP3    H155395   2.856   1.214  11.498  1.2939 -1.1637  1.5971
10400TIP3    H255396   2.719   1.264  11.539  0.0719 -2.1164 -1.0709
10401TIP3   OH255397   5.789   4.468  11.419  0.4696  0.5455 -0.1045
10401TIP3    H155398   5.812   4.410  11.491 -0.8439  1.3494  1.0089
10401TIP3    H255399   5.801   4.414  11.341 -0.5948 -1.2170  0.8816
10402TIP3   OH255400   1.667   1.136  11.055  0.2301  0.2618  0.2167
10402TIP3    H155401   1.690   1.147  10.962  1.7181  0.8990  0.6290
10402TIP3    H255402   1.594   1.073  11.054  0.0624  0.4265 -1.3902
10403TIP3   OH255403   0.060   3.907  10.435  0.2377 -0.3008 -0.3435
10403TIP3    H155404   0.120   3.843  10.398  0.5381  0.5222 -1.3178
10403TIP3    H255405   0.116   3.964  10.489  0.2033  0.0001 -0.6265
10404TIP3   OH255406   4.762   3.675  10.951 -0.3346 -0.3727 -1.1865
10404TIP3    H155407   4.763   3.741  11.020 -0.4566 -0.6518 -0.9166
10404TIP3    H255408   4.854   3.659  10.931 -0.2730 -0.9164 -0.4914
10405TIP3   OH255409   2.871   1.646  11.882 -0.3504  0.4543  0.2563
10405TIP3    H155410   2.909   1.672  11.798 -1.7720 -0.4154 -0.6988
10405TIP3    H255411   2.848   1.554  11.871 -1.6679  0.6382  1.1622
10406TIP3   OH255412   2.769   3.630  10.732 -0.1248 -0.0048 -0.1734
10406TIP3    H155413   2.761   3.643  10.826  4.0103  2.3858  0.0864
10406TIP3    H255414   2.844   3.571  10.722 -2.1790 -2.5444 -2.0648
10407TIP3   OH255415   0.609   3.373  10.448  0.0835  0.7114 -0.0639
10407TIP3    H155416   0.648   3.441  10.393  1.5326 -1.4648 -1.9026
10407TIP3    H255417   0.681   3.343  10.504 -1.3665  2.9488  3.3451
10408TIP3   OH255418   1.492   6.297  13.418 -0.2614  0.5299 -0.2173
10408TIP3    H155419   1.509   6.274  13.509 -0.4704  0.3251 -0.2273
10408TIP3    H255420   1.545   6.235  13.368 -2.7120 -1.6764 -0.3029
10409TIP3   OH255421   5.629   1.471  11.352  0.0636  0.1634 -0.2103
10409TIP3    H155422   5.620   1.514  11.267  0.6666 -0.6569 -0.7091
10409TIP3    H255423   5.540   1.443  11.375  0.0159 -0.3300 -0.9722
10410TIP3   OH255424   2.879   0.965  11.680  0.5667  0.1730  0.1090
10410TIP3    H155425   2.906   0.876  11.657 -0.7962 -0.3709  0.5435
10410TIP3    H255426   2.784   0.964  11.676  0.5375  1.8080 -0.5287
10411TIP3   OH255427   1.847   0.364  10.859 -0.2174 -0.0671 -0.1470
10411TIP3    H155428   1.854   0.457  10.881 -2.3959  0.4259 -1.2666
10411TIP3    H255429   1.764   0.357  10.812 -0.8309 -2.8236  1.1464
10412TIP3   OH255430   5.849   2.812  10.865 -0.0880 -0.4849  0.0726
10412TIP3    H155431   5.841   2.804  10.960 -1.4217  0.1443  0.0383
10412TIP3    H255432   5.938   2.847  10.852 -0.1474  0.1323  1.1378
10413TIP3   OH255433   3.922   4.644  11.098 -0.5961 -0.1747 -0.2866
10413TIP3    H155434   3.997   4.597  11.134 -0.7397  0.0771  0.3430
10413TIP3    H255435   3.855   4.577  11.086 -0.3293 -0.3746 -0.7129
10414TIP3   OH255436   6.172   2.271  11.724  0.3052 -0.2293 -0.3491
10414TIP3    H155437   6.231   2.323  11.779 -0.8283  0.3064  0.3941
10414TIP3    H255438   6.143   2.201  11.781  0.3339 -0.5823 -0.7636
10415TIP3   OH255439   0.965   6.611  12.509 -0.7844  0.0605 -0.3503
10415TIP3    H155440   0.944   6.702  12.526 -0.2032  0.6730 -2.5863
10415TIP3    H255441   1.060   6.610  12.494 -0.5559 -1.1532  0.9150
10416TIP3   OH255442   5.443   6.127  12.101 -0.1782 -0.2793 -0.5124
10416TIP3    H155443   5.446   6.034  12.079 -1.5487 -0.3102 -0.6487
10416TIP3    H255444   5.535   6.154  12.104  0.2108 -1.4562 -1.2192
10417TIP3   OH255445   2.221   2.308  10.492  0.6736 -0.2506  0.1206
10417TIP3    H155446   2.228   2.379  10.556 -1.5033 -0.7147  0.9742
10417TIP3    H255447   2.209   2.352  10.408  0.4393  0.4015  0.4868
10418TIP3   OH255448   6.382   4.875  10.403 -0.2613  0.2382  0.2042
10418TIP3    H155449   6.370   4.856  10.310 -1.7114  2.2227 -0.0918
10418TIP3    H255450   6.476   4.888  10.413  0.1500 -1.8279 -0.5501
10419TIP3   OH255451   6.370   0.403  10.203 -0.0942  0.0980 -0.3977
10419TIP3    H155452   6.371   0.472  10.270  0.4316 -0.4395  0.1618
10419TIP3    H255453   6.309   0.337  10.237 -0.3274  0.1211 -0.7635
10420TIP3   OH255454   1.822   6.167  10.404  0.2019 -0.3934  0.0449
10420TIP3    H155455   1.875   6.208  10.337  2.0125 -0.7128  1.2114
10420TIP3    H255456   1.878   6.099  10.441 -1.2532 -1.1837  0.9226
10421TIP3   OH255457   6.135   0.903  11.150  0.1708 -0.1977  0.3709
10421TIP3    H155458   6.184   0.836  11.200 -0.9252  1.1342  3.4797
10421TIP3    H255459   6.193   0.979  11.149  0.0817 -0.1329 -0.2337
10422TIP3   OH255460   6.014   5.142  13.170 -0.1917  0.6817  0.2665
10422TIP3    H155461   5.938   5.102  13.212  1.3136  0.6193  3.1120
10422TIP3    H255462   6.001   5.236  13.182  0.6556  0.6325  1.7249
10423TIP3   OH255463   4.109   1.491  10.305 -0.6373 -0.2865 -0.0593
10423TIP3    H155464   4.083   1.399  10.302 -1.4979 -0.1634  1.7945
10423TIP3    H255465   4.110   1.519  10.214 -0.2532 -2.1517 -0.6690
10424TIP3   OH255466   4.682   0.701  10.352 -0.7088 -0.3886  0.2544
10424TIP3    H155467   4.704   0.607  10.353 -0.5258 -0.3465  1.6719
10424TIP3    H255468   4.691   0.726  10.260 -0.1860 -1.6326 -0.0596
10425TIP3   OH255469   4.462   3.155  11.849 -0.3981 -0.1964  0.3999
10425TIP3    H155470   4.435   3.202  11.770  0.5082  1.0287  0.7889
10425TIP3    H255471   4.487   3.068  11.818 -0.5094  0.1140 -0.5882
10426TIP3   OH255472   4.496   5.917  11.492 -0.2806 -0.1782  0.1288
10426TIP3    H155473   4.474   5.857  11.421 -0.5751  0.4432 -0.3154
10426TIP3    H255474   4.504   5.861  11.569  3.3377 -1.3787 -0.9318
10427TIP3   OH255475   6.442   5.488  11.628 -0.3899  0.1502  0.3350
10427TIP3    H155476   6.498   5.521  11.699  0.3474  0.9044 -0.5667
10427TIP3    H255477   6.353   5.495  11.662 -0.2638  2.7249  0.3845
10428TIP3   OH255478   0.287   2.656  11.810 -0.1563  0.0850 -0.1689
10428TIP3    H155479   0.256   2.742  11.783 -0.6526 -0.0077  0.0890
10428TIP3    H255480   0.252   2.596  11.745 -1.6026 -0.1762  0.7956
10429TIP3   OH255481   3.836   3.798  11.135 -0.2321 -0.7010  0.0418
10429TIP3    H155482   3.827   3.815  11.041  0.0262 -1.4098 -0.1196
10429TIP3    H255483   3.889   3.718  11.140 -0.4620 -0.8170  0.7847
10430TIP3   OH255484   6.174   3.821  10.791  0.6436 -0.7554 -0.5331
10430TIP3    H155485   6.242   3.785  10.848 -0.1733 -1.6082 -0.0596
10430TIP3    H255486   6.141   3.745  10.742 -1.5784 -0.8445  0.9613
10431TIP3   OH255487   2.256   2.845   9.745 -0.2802  0.2403 -0.0806
10431TIP3    H155488   2.336   2.792   9.743 -0.1561  0.4347 -1.1707
10431TIP3    H255489   2.276   2.920   9.689 -0.8121  0.9231  0.6262
10432TIP3   OH255490   5.971   3.292   9.919  0.1171 -0.3490 -0.2918
10432TIP3    H155491   6.046   3.339   9.954 -1.0624  1.6175 -0.2604
10432TIP3    H255492   5.945   3.342   9.841 -2.5029  0.4210  0.9472
10433TIP3   OH255493   3.061   1.811   9.468 -0.5154 -0.1677 -0.5395
10433TIP3    H155494   3.092   1.734   9.515 -0.2168  0.2769  0.0088
10433TIP3    H255495   3.140   1.847   9.427 -0.2079  1.1001  1.0505
10434TIP3   OH255496   6.271   4.170  12.541  0.0035  0.0882 -0.6465
10434TIP3    H155497   6.323   4.091  12.557  1.0836  0.5859 -1.5592
10434TIP3    H255498   6.332   4.242  12.553 -0.8980  0.7889 -0.1195
10435TIP3   OH255499   5.649   1.434  10.360  0.3659 -0.3761  0.5595
10435TIP3    H155500   5.556   1.441  10.381  0.0943 -1.6536 -0.0893
10435TIP3    H255501   5.654   1.455  10.267  0.7637 -0.0784  0.6466
10436TIP3   OH255502   3.009   5.084  10.137  0.5397  0.5732 -0.0952
10436TIP3    H155503   3.052   5.038  10.065 -0.5595 -1.5446  0.5255
10436TIP3    H255504   2.927   5.118  10.098  0.4963  0.4402 -0.1193
10437TIP3   OH255505   0.854   2.558  10.954  0.1320  0.4239  0.1423
10437TIP3    H155506   0.838   2.465  10.935  0.6701  0.1573  0.9027
10437TIP3    H255507   0.767   2.597  10.960 -0.2384 -0.5488  2.1380
10438TIP3   OH255508   6.467   5.116  12.106 -0.4154 -0.0452  0.2301
10438TIP3    H155509   6.454   5.023  12.089  0.6622  0.0940 -1.6021
10438TIP3    H255510   6.422   5.160  12.034  1.7784  0.7007 -0.7813
10439TIP3   OH255511   1.194   1.436  12.764 -0.3509 -0.0209 -0.0178
10439TIP3    H155512   1.126   1.475  12.709 -0.8386 -0.0855  0.5287
10439TIP3    H255513   1.241   1.377  12.705 -1.0773 -0.3409 -0.2974
   6.68904   6.68904  30.00000
