Title
55513
    1DOPE     N    1   6.545   4.399  17.838  0.9054 -0.7440 -0.5321
    1DOPE   HN1    2   6.490   4.406  17.926  3.0018  1.2495  0.7229
    1DOPE   HN2    3   6.539   4.302  17.799 -0.6299 -0.9040  0.0248
    1DOPE   HN3    4   6.641   4.433  17.860  0.0105  0.8557  1.2121
    1DOPE   C12    5   6.463   4.479  17.739  0.1597 -0.1335 -0.6718
    1DOPE  H12A    6   6.369   4.422  17.723  0.2811 -0.5447  0.0368
    1DOPE  H12B    7   6.511   4.485  17.640  0.9815 -1.0366 -0.3394
    1DOPE   C11    8   6.424   4.615  17.795 -0.5957 -0.3533  0.1477
    1DOPE  H11A    9   6.363   4.586  17.883  0.8747  0.6101  1.5466
    1DOPE  H11B   10   6.351   4.681  17.745 -0.1876 -0.7614 -1.0213
    1DOPE     P   11   6.581   4.833  17.789  0.3051 -0.2611  0.2670
    1DOPE   O13   12   6.723   4.857  17.804  0.0328 -0.0408 -0.0728
    1DOPE   O14   13   6.493   4.918  17.869 -0.0703 -0.3352  0.0761
    1DOPE   O11   14   6.530   4.834  17.636  0.1396  0.6760 -0.6708
    1DOPE   O12   15   6.553   4.685  17.831  0.0782 -0.1980 -0.4705
    1DOPE    C1   16   6.606   4.759  17.540  0.2141  0.1607  0.0312
    1DOPE    HA   17   6.529   4.712  17.475 -0.2865 -0.1845  0.8593
    1DOPE    HB   18   6.654   4.668  17.579  0.8688  0.1970 -0.6662
    1DOPE    C2   19   6.704   4.840  17.454  0.5615  0.3338 -0.1160
    1DOPE    HS   20   6.793   4.870  17.514  0.8756  0.7553 -0.7799
    1DOPE   O21   21   6.642   4.964  17.422 -0.0283 -0.2890  0.4456
    1DOPE   C21   22   6.729   5.059  17.375 -0.1645 -0.2603 -0.7430
    1DOPE   O22   23   6.851   5.046  17.376  0.2388 -0.0578  0.0017
    1DOPE   C22   24   6.650   5.181  17.327  0.2417  0.5084  0.3038
    1DOPE   H2R   25   6.663   5.256  17.407 -1.0868  1.6482 -0.5123
    1DOPE   H2S   26   6.543   5.153  17.324  0.4033 -0.0731 -0.4225
    1DOPE    C3   27   6.766   4.761  17.325  0.1523  0.1197  0.0910
    1DOPE    HX   28   6.817   4.669  17.360  1.6526  0.3246 -1.4341
    1DOPE    HY   29   6.847   4.825  17.284  0.3469 -0.4655 -0.4533
    1DOPE   O31   30   6.662   4.733  17.221  0.1059  0.1811 -0.0820
    1DOPE   C31   31   6.693   4.647  17.128  0.3399 -0.1887 -0.1352
    1DOPE   O32   32   6.798   4.589  17.121 -0.3556  0.3034  0.6467
    1DOPE   C32   33   6.581   4.647  17.024 -0.2187 -0.4422 -0.2651
    1DOPE   H2X   34   6.485   4.616  17.071 -0.1479  1.5528  1.3424
    1DOPE   H2Y   35   6.580   4.752  16.988  1.5416 -0.0727  0.6844
    1DOPE   C23   36   6.703   5.230  17.189  0.3323 -0.1951 -0.0161
    1DOPE   H3R   37   6.812   5.249  17.193  0.2424  0.3301  0.0779
    1DOPE   H3S   38   6.647   5.326  17.180 -1.8183 -1.5044 -1.5731
    1DOPE   C24   39   6.659   5.137  17.076  0.4889 -0.4458 -0.4770
    1DOPE   H4R   40   6.549   5.138  17.062 -0.0185 -1.4571  2.6290
    1DOPE   H4S   41   6.681   5.032  17.104  0.3281 -0.5340 -0.6814
    1DOPE   C25   42   6.728   5.167  16.943  0.3943 -0.6081 -0.1819
    1DOPE   H5R   43   6.839   5.158  16.950  0.3241 -0.2143  2.7948
    1DOPE   H5S   44   6.714   5.277  16.935  1.3674 -0.5539 -1.3606
    1DOPE   C26   45   6.674   5.090  16.830  0.2681  0.8161 -0.1104
    1DOPE   H6R   46   6.661   4.981  16.843 -0.5327  1.0372  1.0492
    1DOPE   H6S   47   6.752   5.107  16.752 -0.2681  1.0513 -0.6029
    1DOPE   C27   48   6.548   5.159  16.776  0.0452  0.5418 -0.3042
    1DOPE   H7R   49   6.569   5.267  16.762  0.2930  0.5108 -0.1682
    1DOPE   H7S   50   6.463   5.146  16.847 -0.1887 -1.6532 -0.9162
    1DOPE   C28   51   6.502   5.098  16.644 -0.7416  0.8116 -0.2490
    1DOPE   H8R   52   6.589   5.098  16.575 -1.2610 -0.3540 -0.9429
    1DOPE   H8S   53   6.423   5.160  16.597 -0.1317  1.3346 -0.5824
    1DOPE   C29   54   6.432   4.967  16.670 -0.4178 -0.4224 -0.9956
    1DOPE   H9R   55   6.378   4.960  16.766  1.6446  1.6868  0.4198
    1DOPE  C210   56   6.419   4.867  16.583 -0.4699  0.1846 -0.0498
    1DOPE  H10R   57   6.363   4.775  16.604 -0.9316  0.2887 -0.7895
    1DOPE  C211   58   6.483   4.857  16.445 -0.2975  0.2228  0.6956
    1DOPE  H11R   59   6.523   4.754  16.438 -0.9002 -0.0734  1.5226
    1DOPE  H11S   60   6.576   4.914  16.422 -2.4673  2.7212 -2.9622
    1DOPE  C212   61   6.389   4.859  16.327  0.6519  0.3161 -0.2217
    1DOPE  H12R   62   6.339   4.957  16.305 -0.1684 -0.3808 -1.6115
    1DOPE  H12S   63   6.304   4.792  16.352  0.4846  0.2958 -0.8332
    1DOPE  C213   64   6.448   4.808  16.195  1.1750  0.1445 -0.4112
    1DOPE  H13R   65   6.371   4.786  16.117  1.6589  2.1569 -1.5361
    1DOPE  H13S   66   6.501   4.712  16.215  0.9972 -0.0049 -0.6564
    1DOPE  C214   67   6.539   4.918  16.143  0.0119  0.5322 -0.2900
    1DOPE  H14R   68   6.626   4.908  16.211 -0.3118 -1.4877 -0.0901
    1DOPE  H14S   69   6.490   5.017  16.153  0.5326  0.7170  0.5795
    1DOPE  C215   70   6.590   4.899  15.997 -0.2223 -0.1328 -0.4035
    1DOPE  H15R   71   6.641   4.801  15.991  2.0850  0.7952  2.1319
    1DOPE  H15S   72   6.664   4.978  15.970  2.8810 -2.9322 -0.6663
    1DOPE  C216   73   6.470   4.900  15.887  0.7567 -0.2284 -0.0824
    1DOPE  H16R   74   6.394   4.976  15.914  0.8165  0.9387 -2.8595
    1DOPE  H16S   75   6.417   4.804  15.906 -0.6064  0.5761  0.2665
    1DOPE  C217   76   6.532   4.907  15.748 -0.7852 -0.0700 -0.1376
    1DOPE  H17R   77   6.619   4.841  15.727 -0.0300  0.5957  0.7868
    1DOPE  H17S   78   6.571   5.011  15.739  0.2537 -0.5141 -0.9841
    1DOPE  C218   79   6.425   4.882  15.651 -0.9477  1.3039  0.5276
    1DOPE  H18R   80   6.341   4.822  15.691  0.1841 -1.7368 -1.3286
    1DOPE  H18S   81   6.458   4.835  15.556  0.4738  1.4980  0.8973
    1DOPE  H18T   82   6.379   4.974  15.609 -0.1255  0.3298 -2.8448
    1DOPE   C33   83   6.619   4.548  16.908 -0.0011  0.4139  0.5173
    1DOPE   H3X   84   6.525   4.504  16.870  0.8753 -2.6944  1.6184
    1DOPE   H3Y   85   6.675   4.463  16.952  0.7785 -0.0509 -1.3016
    1DOPE   C34   86   6.715   4.606  16.805 -0.2746  0.2837  0.9298
    1DOPE   H4X   87   6.691   4.713  16.785  1.1489  0.6016  0.8124
    1DOPE   H4Y   88   6.821   4.614  16.836  0.0806 -0.5797  0.0071
    1DOPE   C35   89   6.704   4.529  16.675  0.0080 -0.0471  0.0722
    1DOPE   H5X   90   6.595   4.532  16.657 -0.1466  3.1017  0.9582
    1DOPE   H5Y   91   6.732   4.426  16.707  0.8856  0.4065  0.8260
    1DOPE   C36   92   6.788   4.578  16.557 -0.4365 -0.0250  0.0432
    1DOPE   H6X   93   6.893   4.605  16.582 -0.2224  1.4905 -2.1648
    1DOPE   H6Y   94   6.753   4.677  16.520 -0.0053  0.1352  0.0658
    1DOPE   C37   95   6.796   4.490  16.427 -0.6359  0.0078 -0.6060
    1DOPE   H7X   96   6.858   4.535  16.346  0.5633 -1.0095 -0.2870
    1DOPE   H7Y   97   6.839   4.393  16.462 -1.3290  0.7502  2.5775
    1DOPE   C38   98   6.664   4.452  16.356  0.2940  0.6063 -0.1189
    1DOPE   H8X   99   6.625   4.553  16.331  2.4362  1.5141 -0.0958
    1DOPE   H8Y  100   6.590   4.410  16.428 -1.4683  1.4127 -1.3923
    1DOPE   C39  101   6.672   4.358  16.235 -0.6314  0.2311  1.0151
    1DOPE   H9X  102   6.647   4.253  16.256 -2.1623 -0.0517 -1.7875
    1DOPE  C310  103   6.714   4.405  16.115  0.1942  0.4694  0.3070
    1DOPE  H10X  104   6.697   4.340  16.028  2.3766  1.1817 -0.7324
    1DOPE  C311  105   6.758   4.544  16.069 -0.6361 -0.0885 -0.5865
    1DOPE  H11X  106   6.664   4.604  16.061 -0.7911 -0.3769 -0.9232
    1DOPE  H11Y  107   6.825   4.598  16.140 -1.3595  0.5029 -0.3323
    1DOPE  C312  108   6.827   4.542  15.932 -0.4254  0.3116  0.0746
    1DOPE  H12X  109   6.901   4.459  15.934 -0.5020  0.0465 -3.0219
    1DOPE  H12Y  110   6.867   4.645  15.918  0.0652  0.2452  0.9039
    1DOPE  C313  111   6.727   4.510  15.820 -0.1711  0.6376 -0.3193
    1DOPE  H13X  112   6.702   4.402  15.830  1.7450 -0.0279 -2.0029
    1DOPE  H13Y  113   6.635   4.569  15.841  0.3414  2.0173 -1.7618
    1DOPE  C314  114   6.774   4.547  15.677 -0.2377  0.2796  0.1947
    1DOPE  H14X  115   6.876   4.510  15.654 -0.3425 -0.2540  0.5706
    1DOPE  H14Y  116   6.781   4.657  15.662 -1.3454  0.1595 -1.5262
    1DOPE  C315  117   6.679   4.496  15.572  0.0349  0.3541  0.4303
    1DOPE  H15X  118   6.573   4.520  15.596 -0.2083  0.4467 -0.6956
    1DOPE  H15Y  119   6.702   4.387  15.572  0.6731  0.4569  1.9789
    1DOPE  C316  120   6.695   4.557  15.431  0.1285  0.4201 -0.1035
    1DOPE  H16X  121   6.805   4.559  15.412  0.2512 -0.6886  0.4069
    1DOPE  H16Y  122   6.651   4.659  15.421  1.4877  0.8423 -2.5372
    1DOPE  C317  123   6.630   4.477  15.316 -0.2864  0.7370  0.5096
    1DOPE  H17X  124   6.647   4.369  15.336  0.7682  0.9251  0.6982
    1DOPE  H17Y  125   6.521   4.494  15.302 -0.3807 -0.9473 -1.1684
    1DOPE  C318  126   6.698   4.507  15.179  0.4759  0.0206  0.1340
    1DOPE  H18X  127   6.803   4.543  15.179  1.2319 -2.0119 -0.4107
    1DOPE  H18Y  128   6.685   4.428  15.101 -2.0216 -0.5140  0.9974
    1DOPE  H18Z  129   6.645   4.596  15.140  0.1312 -0.7842 -1.3079
    2DOPE     N  130   6.340   4.971  17.504 -0.3155  0.2055  0.5905
    2DOPE   HN1  131   6.398   4.904  17.558  1.0107  0.5927 -0.3151
    2DOPE   HN2  132   6.364   4.955  17.404 -0.0404  1.0795  0.5112
    2DOPE   HN3  133   6.374   5.066  17.526  0.7196  0.3945 -1.5716
    2DOPE   C12  134   6.192   4.944  17.520 -0.2390  0.5400  0.3704
    2DOPE  H12A  135   6.136   5.037  17.493  1.9548  2.0430  0.7488
    2DOPE  H12B  136   6.174   4.915  17.626 -0.3145  2.4917  0.9380
    2DOPE   C11  137   6.153   4.817  17.435 -0.5994 -0.3315 -0.1439
    2DOPE  H11A  138   6.177   4.843  17.330 -1.0384  2.4215  0.3568
    2DOPE  H11B  139   6.046   4.793  17.456 -0.3681 -0.1552  1.3643
    2DOPE     P  140   6.213   4.571  17.433 -0.1041  0.4360  0.0039
    2DOPE   O13  141   6.089   4.505  17.486 -0.5240 -0.3761  0.2957
    2DOPE   O14  142   6.337   4.494  17.465 -0.2872  0.4847  0.6454
    2DOPE   O11  143   6.193   4.586  17.278 -0.2220 -0.1046  0.3625
    2DOPE   O12  144   6.227   4.710  17.489 -0.0259 -0.1092  1.0449
    2DOPE    C1  145   6.110   4.509  17.189  0.3271 -0.8001  0.3809
    2DOPE    HA  146   6.006   4.539  17.213  1.1858  2.2493  0.7383
    2DOPE    HB  147   6.130   4.400  17.193 -1.0794 -1.1060 -0.4931
    2DOPE    C2  148   6.135   4.545  17.040 -0.0819  0.0640 -0.8732
    2DOPE    HS  149   6.245   4.545  17.023 -0.0717 -1.1194 -0.8438
    2DOPE   O21  150   6.079   4.675  17.018 -0.1384  0.2170  0.8758
    2DOPE   C21  151   6.164   4.776  17.018 -0.3696 -0.5395 -0.9715
    2DOPE   O22  152   6.286   4.767  17.032 -0.1761  0.1792 -0.1350
    2DOPE   C22  153   6.087   4.908  17.016  0.3376  0.4061 -0.0021
    2DOPE   H2R  154   6.146   4.962  17.093  0.8259  0.6436 -0.5353
    2DOPE   H2S  155   5.979   4.896  17.041  0.0881  0.8033 -0.8391
    2DOPE    C3  156   6.068   4.431  16.965 -0.1152 -0.9460 -0.4450
    2DOPE    HX  157   5.971   4.397  17.008  0.1324 -1.5333 -0.3398
    2DOPE    HY  158   6.142   4.349  16.969  1.5679  0.4492 -1.3495
    2DOPE   O31  159   6.050   4.470  16.828  0.3935  0.0799 -0.0552
    2DOPE   C31  160   6.162   4.452  16.750  0.0004  0.2236  0.2407
    2DOPE   O32  161   6.268   4.417  16.791 -0.3670  0.2581 -0.0123
    2DOPE   C32  162   6.124   4.476  16.604  0.1304  0.1114 -0.1615
    2DOPE   H2X  163   6.057   4.391  16.578  1.2311 -1.3314  1.4913
    2DOPE   H2Y  164   6.066   4.570  16.597  1.1897  0.8944  1.2271
    2DOPE   C23  165   6.105   4.984  16.880 -0.2728  0.1672 -0.5427
    2DOPE   H3R  166   6.210   5.020  16.877  0.1243 -0.2421  3.2071
    2DOPE   H3S  167   6.027   5.064  16.878 -0.2926  0.1757  0.1903
    2DOPE   C24  168   6.075   4.896  16.758 -0.4260 -0.3692  0.2874
    2DOPE   H4R  169   5.984   4.838  16.784 -0.6101  0.3055  1.1979
    2DOPE   H4S  170   6.163   4.829  16.747  0.5432  0.6813  1.3653
    2DOPE   C25  171   6.055   4.981  16.630 -0.7062 -0.2809  0.0703
    2DOPE   H5R  172   6.147   5.039  16.608 -2.9479  2.3570 -3.6932
    2DOPE   H5S  173   5.975   5.057  16.641 -1.9755 -1.3533 -1.3078
    2DOPE   C26  174   6.015   4.899  16.514 -0.5350 -0.4357  0.3974
    2DOPE   H6R  175   5.939   4.828  16.552 -0.9485 -0.6325 -0.7524
    2DOPE   H6S  176   6.109   4.847  16.487  0.4582  1.9286 -0.9436
    2DOPE   C27  177   5.942   4.978  16.405  0.5143  0.0041 -0.4462
    2DOPE   H7R  178   5.996   5.071  16.380  0.9982  0.6446  2.5530
    2DOPE   H7S  179   5.846   5.014  16.448 -0.1991 -0.3135 -1.7126
    2DOPE   C28  180   5.910   4.898  16.274  0.1657 -0.0720  0.0981
    2DOPE   H8R  181   5.847   4.956  16.203  0.8836  0.1277 -0.3951
    2DOPE   H8S  182   5.837   4.816  16.291  2.5350 -2.6214 -1.1054
    2DOPE   C29  183   6.025   4.834  16.195  0.4321 -0.1849 -0.4460
    2DOPE   H9R  184   6.116   4.819  16.255 -0.6429  0.0341  1.3207
    2DOPE  C210  185   6.021   4.801  16.064  0.2368  0.2135 -0.4262
    2DOPE  H10R  186   6.107   4.751  16.015 -1.1252  0.7320 -3.5277
    2DOPE  C211  187   5.911   4.825  15.973 -0.0263 -0.0701  0.1255
    2DOPE  H11R  188   5.818   4.842  16.031 -0.9429 -0.2140 -1.2530
    2DOPE  H11S  189   5.908   4.730  15.915  2.0517 -0.1066  0.0326
    2DOPE  C212  190   5.923   4.948  15.882  0.6911 -0.0592  0.7680
    2DOPE  H12R  191   6.028   4.981  15.868  0.4586  0.1915 -0.5454
    2DOPE  H12S  192   5.869   5.033  15.928 -0.2994  0.0269 -0.4786
    2DOPE  C213  193   5.853   4.933  15.750 -0.5449  0.1855  0.6374
    2DOPE  H13R  194   5.850   5.030  15.696 -0.2790 -0.1676 -0.0231
    2DOPE  H13S  195   5.750   4.906  15.784 -0.5855 -0.6284 -0.0928
    2DOPE  C214  196   5.908   4.829  15.645  0.1092 -0.3740 -0.0595
    2DOPE  H14R  197   5.842   4.826  15.555  1.2588 -1.8781 -0.9004
    2DOPE  H14S  198   5.911   4.726  15.687  1.2583  0.0631  0.9799
    2DOPE  C215  199   6.055   4.848  15.595  0.2514 -0.1717 -0.3262
    2DOPE  H15R  200   6.129   4.836  15.677  1.2249  1.3533 -0.9260
    2DOPE  H15S  201   6.065   4.953  15.558  0.4060 -0.8048 -2.1832
    2DOPE  C216  202   6.106   4.762  15.480 -0.1309 -0.6120 -0.0548
    2DOPE  H16R  203   6.149   4.669  15.522  0.0950 -0.7560 -0.5913
    2DOPE  H16S  204   6.190   4.814  15.429 -0.3389 -0.1425  0.0752
    2DOPE  C217  205   5.997   4.726  15.380  0.9354  0.4652 -0.7783
    2DOPE  H17R  206   5.941   4.812  15.336 -0.0687  1.2595  1.8471
    2DOPE  H17S  207   5.917   4.671  15.436 -1.4071  3.9957 -0.3182
    2DOPE  C218  208   6.046   4.637  15.268 -0.4420  0.4049  0.5605
    2DOPE  H18R  209   6.075   4.535  15.303  1.7563  0.7456 -0.1335
    2DOPE  H18S  210   6.129   4.679  15.208 -1.4193 -1.1170 -2.0330
    2DOPE  H18T  211   5.961   4.620  15.199  2.0640  1.2197 -3.0048
    2DOPE   C33  212   6.240   4.480  16.501  0.0846 -0.0907  0.2464
    2DOPE   H3X  213   6.303   4.394  16.530 -2.1612 -1.8252  0.2699
    2DOPE   H3Y  214   6.293   4.576  16.516  0.6328 -0.6611  2.2184
    2DOPE   C34  215   6.196   4.462  16.351 -0.7479 -0.6445 -0.5484
    2DOPE   H4X  216   6.138   4.368  16.359 -1.0002 -0.4245  0.3176
    2DOPE   H4Y  217   6.130   4.549  16.332 -1.9626 -0.9796  1.7650
    2DOPE   C35  218   6.314   4.447  16.256 -1.0851  0.1065  0.1054
    2DOPE   H5X  219   6.379   4.360  16.279 -1.7025  0.1637  2.2079
    2DOPE   H5Y  220   6.371   4.542  16.267 -2.7477  1.3314 -1.2996
    2DOPE   C36  221   6.275   4.435  16.114  0.4070  0.2467  0.6603
    2DOPE   H6X  222   6.204   4.518  16.094  0.2377 -0.2994 -1.1644
    2DOPE   H6Y  223   6.220   4.341  16.092  0.8881  0.2056 -0.4133
    2DOPE   C37  224   6.394   4.432  16.019  0.3648 -0.3889 -0.7730
    2DOPE   H7X  225   6.448   4.528  16.034  0.7835 -0.7150 -0.1883
    2DOPE   H7Y  226   6.457   4.347  16.051 -0.4460  0.3559  3.3224
    2DOPE   C38  227   6.354   4.408  15.870  0.4688  0.3875 -0.5009
    2DOPE   H8X  228   6.290   4.317  15.865 -0.9975  1.4072 -1.4345
    2DOPE   H8Y  229   6.451   4.388  15.820  1.3153  1.5869  0.6011
    2DOPE   C39  230   6.285   4.523  15.796 -0.0235  0.3682  0.5645
    2DOPE   H9X  231   6.354   4.604  15.768 -0.8737  1.0919  0.5296
    2DOPE  C310  232   6.156   4.547  15.771  1.0083  1.3900 -0.5129
    2DOPE  H10X  233   6.142   4.646  15.725  0.4126  0.4635 -2.4283
    2DOPE  C311  234   6.033   4.460  15.797  0.4093  0.1398 -0.4108
    2DOPE  H11X  235   6.053   4.385  15.877 -1.5595  0.3559  0.3509
    2DOPE  H11Y  236   5.954   4.528  15.834  0.5350  0.2695 -0.3800
    2DOPE  C312  237   5.978   4.389  15.669  0.0731  0.6900 -0.2066
    2DOPE  H12X  238   5.964   4.469  15.593 -2.9909 -0.0392 -0.5605
    2DOPE  H12Y  239   5.876   4.347  15.684  1.3300 -2.6139 -0.0582
    2DOPE  C313  240   6.058   4.268  15.619  0.5036  0.6757 -0.1735
    2DOPE  H13X  241   6.161   4.300  15.593  1.5878 -2.2636  0.0805
    2DOPE  H13Y  242   6.079   4.194  15.699  1.5197  1.1925  0.0511
    2DOPE  C314  243   5.997   4.204  15.494  0.6068 -0.8035  0.0746
    2DOPE  H14X  244   6.006   4.276  15.410  0.8368 -1.3252 -0.3556
    2DOPE  H14Y  245   5.897   4.169  15.528  0.7778  0.2007  1.7178
    2DOPE  C315  246   6.067   4.076  15.443 -0.2130  0.5527  0.3995
    2DOPE  H15X  247   6.015   4.023  15.360  3.0109 -0.3603 -1.2040
    2DOPE  H15Y  248   6.090   4.007  15.527  1.7466  0.3946 -0.2152
    2DOPE  C316  249   6.205   4.110  15.386 -0.0998  0.3776 -0.9534
    2DOPE  H16X  250   6.261   4.140  15.478 -1.2481  0.3662 -0.2254
    2DOPE  H16Y  251   6.191   4.190  15.310 -1.3836 -0.1776 -1.3144
    2DOPE  C317  252   6.291   4.000  15.325  0.0881  0.5468 -0.3002
    2DOPE  H17X  253   6.277   3.910  15.390  3.9470 -0.4025 -0.5565
    2DOPE  H17Y  254   6.246   3.978  15.225 -0.6423  0.6230  0.0042
    2DOPE  C318  255   6.435   4.043  15.316 -0.7059  0.2296 -0.0462
    2DOPE  H18X  256   6.456   4.112  15.232  2.4882 -2.6184 -1.8542
    2DOPE  H18Y  257   6.462   4.100  15.408  1.0345 -0.7589  0.0951
    2DOPE  H18Z  258   6.504   3.957  15.300 -1.9180 -1.1011  1.5513
    3DOPE     N  259   5.323   5.425  18.033  0.9977 -0.5137  0.1878
    3DOPE   HN1  260   5.412   5.465  18.069  1.0580  0.2019 -0.7059
    3DOPE   HN2  261   5.240   5.459  18.086  3.1512  1.2813  2.6219
    3DOPE   HN3  262   5.323   5.323  18.048 -2.2358 -0.6846 -0.2453
    3DOPE   C12  263   5.305   5.445  17.887 -0.2875  0.2105 -0.2280
    3DOPE  H12A  264   5.200   5.416  17.865 -0.9386  0.1543  2.5432
    3DOPE  H12B  265   5.382   5.397  17.823  0.0991  2.1554 -1.3256
    3DOPE   C11  266   5.325   5.594  17.856  0.2135  0.5418 -0.2329
    3DOPE  H11A  267   5.251   5.652  17.914 -1.6138  1.9778 -3.7106
    3DOPE  H11B  268   5.304   5.607  17.747 -1.1964  2.3946  0.2186
    3DOPE     P  269   5.589   5.617  17.810  0.2156 -0.2346 -0.1932
    3DOPE   O13  270   5.629   5.474  17.820 -0.2130 -0.2642 -0.4546
    3DOPE   O14  271   5.687   5.713  17.857 -0.7193 -0.0673  0.2662
    3DOPE   O11  272   5.551   5.633  17.659  0.2374  0.5455 -0.4147
    3DOPE   O12  273   5.458   5.638  17.893  0.2402  0.1071 -0.2198
    3DOPE    C1  274   5.529   5.758  17.597 -0.6151  0.3947 -0.0752
    3DOPE    HA  275   5.623   5.816  17.598 -1.2378  1.5014 -1.8292
    3DOPE    HB  276   5.447   5.812  17.648 -1.7889  0.9919 -2.4563
    3DOPE    C2  277   5.490   5.741  17.450  0.2148  0.2327  0.9644
    3DOPE    HS  278   5.461   5.840  17.409 -1.2554  0.7251  3.0785
    3DOPE   O21  279   5.383   5.641  17.437 -0.1098  0.0366 -0.1247
    3DOPE   C21  280   5.255   5.665  17.474 -0.4587  0.2976  0.0146
    3DOPE   O22  281   5.221   5.764  17.531 -0.2771 -0.6660 -0.2338
    3DOPE   C22  282   5.170   5.541  17.440 -0.5631 -1.1500  0.3426
    3DOPE   H2R  283   5.168   5.473  17.528 -1.1578 -1.3275  0.1937
    3DOPE   H2S  284   5.226   5.485  17.361  2.2213  0.2227  1.2192
    3DOPE    C3  285   5.612   5.695  17.357  0.2207  0.2505 -0.0029
    3DOPE    HX  286   5.654   5.597  17.387  1.6417  1.3592  1.8604
    3DOPE    HY  287   5.690   5.772  17.372  0.3424  0.7132 -2.6581
    3DOPE   O31  288   5.585   5.697  17.212 -0.7716 -1.0671 -0.1486
    3DOPE   C31  289   5.509   5.601  17.160  0.2868 -0.0182 -0.5366
    3DOPE   O32  290   5.475   5.497  17.216 -0.1806 -0.1950  0.3809
    3DOPE   C32  291   5.482   5.634  17.014 -0.4500  0.3482  0.3004
    3DOPE   H2X  292   5.392   5.700  17.010 -0.4407  0.4047  0.9245
    3DOPE   H2Y  293   5.579   5.684  16.992  0.2335 -0.5712  1.1366
    3DOPE   C23  294   5.031   5.578  17.384 -0.0840  0.1538  0.3827
    3DOPE   H3R  295   4.978   5.647  17.454  0.5790 -0.1226  1.1678
    3DOPE   H3S  296   4.970   5.487  17.362  0.5966 -0.1003 -0.5045
    3DOPE   C24  297   5.043   5.639  17.241 -0.0186 -0.7381 -0.3095
    3DOPE   H4R  298   5.107   5.570  17.182  0.5130  0.4496 -1.1678
    3DOPE   H4S  299   5.100   5.734  17.245 -1.0158 -0.0801 -1.4185
    3DOPE   C25  300   4.910   5.655  17.173  0.2982 -0.4282  0.2999
    3DOPE   H5R  301   4.847   5.739  17.209  0.7234 -0.2999  0.7488
    3DOPE   H5S  302   4.850   5.563  17.192  2.3565 -1.5055  1.9001
    3DOPE   C26  303   4.927   5.679  17.020  0.2946  0.5661 -0.3580
    3DOPE   H6R  304   4.986   5.595  16.979 -0.9591 -0.6285  0.2335
    3DOPE   H6S  305   4.987   5.773  17.022 -0.5348  1.1012 -0.1339
    3DOPE   C27  306   4.800   5.708  16.947  0.3139  0.1834  0.2213
    3DOPE   H7R  307   4.766   5.808  16.979 -1.1098  0.1637 -1.0898
    3DOPE   H7S  308   4.729   5.627  16.975 -0.1981  0.7305  0.5121
    3DOPE   C28  309   4.825   5.723  16.795 -0.1451  0.2240 -0.3823
    3DOPE   H8R  310   4.912   5.792  16.785  0.4884 -0.6804 -1.3300
    3DOPE   H8S  311   4.740   5.772  16.743 -1.5681 -1.9716 -0.2442
    3DOPE   C29  312   4.853   5.587  16.731  0.3647 -0.0273 -0.0433
    3DOPE   H9R  313   4.900   5.511  16.796 -0.1977  0.6060  1.1574
    3DOPE  C210  314   4.818   5.549  16.608  0.4078  0.1035  0.2948
    3DOPE  H10R  315   4.859   5.451  16.580  1.9635  1.2624 -1.6819
    3DOPE  C211  316   4.745   5.627  16.497  0.3780 -0.2677  0.3755
    3DOPE  H11R  317   4.748   5.737  16.513  0.0868  0.3334 -3.1114
    3DOPE  H11S  318   4.637   5.601  16.497 -0.2814  2.2734 -0.0934
    3DOPE  C212  319   4.804   5.603  16.359 -0.0817 -0.4162  0.3499
    3DOPE  H12R  320   4.823   5.496  16.337  2.1723 -0.0240  0.1660
    3DOPE  H12S  321   4.905   5.648  16.351 -0.6588  1.4716  2.7047
    3DOPE  C213  322   4.697   5.626  16.242  0.2745 -0.3134 -0.2916
    3DOPE  H13R  323   4.677   5.735  16.246 -0.4758 -0.4388 -0.5396
    3DOPE  H13S  324   4.597   5.584  16.268 -1.1220  1.3801 -2.5439
    3DOPE  C214  325   4.738   5.588  16.098  0.1375 -0.2003 -0.0760
    3DOPE  H14R  326   4.744   5.477  16.091 -1.8846 -0.4944  1.9617
    3DOPE  H14S  327   4.839   5.631  16.080 -0.0984 -0.1619 -1.4523
    3DOPE  C215  328   4.654   5.645  15.988  0.2048 -0.6473 -0.1980
    3DOPE  H15R  329   4.656   5.756  15.986  2.1415 -0.6518 -1.3789
    3DOPE  H15S  330   4.552   5.605  16.010 -0.1760 -0.1640 -1.0375
    3DOPE  C216  331   4.687   5.602  15.843  0.0544  0.0797 -0.6495
    3DOPE  H16R  332   4.659   5.495  15.828  1.3506 -0.2012 -1.2793
    3DOPE  H16S  333   4.798   5.599  15.834  0.1935  3.0928 -0.7957
    3DOPE  C217  334   4.639   5.694  15.735  0.0569 -0.6688  0.5245
    3DOPE  H17R  335   4.674   5.800  15.743  1.7468 -1.1736  0.2802
    3DOPE  H17S  336   4.529   5.703  15.742  0.1576  2.5662 -0.1386
    3DOPE  C218  337   4.675   5.644  15.595 -0.4536  0.6949  0.3030
    3DOPE  H18R  338   4.779   5.669  15.566 -0.1291 -0.2986  0.5552
    3DOPE  H18S  339   4.599   5.683  15.524 -1.6535 -0.0900  1.1016
    3DOPE  H18T  340   4.673   5.532  15.593 -1.6709  0.6829  0.7307
    3DOPE   C33  341   5.448   5.506  16.935  0.9240 -0.6056  0.1246
    3DOPE   H3X  342   5.352   5.460  16.966  0.8368 -1.3722 -1.2355
    3DOPE   H3Y  343   5.537   5.440  16.948  1.2270  0.1205  2.1510
    3DOPE   C34  344   5.427   5.536  16.787 -0.4646  0.4468 -0.1095
    3DOPE   H4X  345   5.472   5.633  16.757  1.5717 -0.4990 -0.2774
    3DOPE   H4Y  346   5.471   5.459  16.721 -0.5269  0.6175 -0.3525
    3DOPE   C35  347   5.273   5.548  16.757 -0.2254  0.1847 -0.1531
    3DOPE   H5X  348   5.221   5.616  16.828  0.3827  1.8519 -1.2557
    3DOPE   H5Y  349   5.232   5.449  16.784 -1.8818  0.5778 -1.1200
    3DOPE   C36  350   5.239   5.595  16.613 -0.1108  0.1321  0.2451
    3DOPE   H6X  351   5.266   5.703  16.602  0.6793 -0.1732 -1.0209
    3DOPE   H6Y  352   5.130   5.592  16.589 -0.1644 -0.1551  0.5204
    3DOPE   C37  353   5.309   5.502  16.510 -0.1905 -0.0658  0.7208
    3DOPE   H7X  354   5.409   5.549  16.498 -0.9450  1.1372 -1.6312
    3DOPE   H7Y  355   5.311   5.402  16.558  0.6470 -0.8507 -0.8528
    3DOPE   C38  356   5.240   5.503  16.372 -0.1440  0.0243  0.4696
    3DOPE   H8X  357   5.134   5.473  16.376  0.4662 -2.4815 -0.4420
    3DOPE   H8Y  358   5.289   5.427  16.307  1.5025  0.6784  0.8736
    3DOPE   C39  359   5.234   5.639  16.306 -0.2077  0.2645 -0.3675
    3DOPE   H9X  360   5.140   5.694  16.326 -0.3453  0.2949 -1.0757
    3DOPE  C310  361   5.283   5.666  16.186 -0.3611  0.1621  0.6737
    3DOPE  H10X  362   5.278   5.770  16.151  1.3830  0.7133  1.9591
    3DOPE  C311  363   5.342   5.562  16.091  0.1825  0.0249  0.0051
    3DOPE  H11X  364   5.452   5.555  16.101  0.2185 -0.9440 -0.9517
    3DOPE  H11Y  365   5.297   5.461  16.088  0.2720 -0.0383  0.6899
    3DOPE  C312  366   5.307   5.610  15.942  0.0899 -0.4934  0.6523
    3DOPE  H12X  367   5.332   5.718  15.932  0.3185 -0.6680 -0.9352
    3DOPE  H12Y  368   5.197   5.602  15.930  0.1079  0.6139 -0.4885
    3DOPE  C313  369   5.368   5.524  15.832 -0.4509  0.0998 -0.1369
    3DOPE  H13X  370   5.477   5.534  15.812 -0.7574 -0.3401 -2.3523
    3DOPE  H13Y  371   5.348   5.417  15.856  2.6197 -0.4753  0.3569
    3DOPE  C314  372   5.303   5.549  15.700  0.7006  0.6075  0.1636
    3DOPE  H14X  373   5.306   5.655  15.667  1.3939  0.2612 -0.9750
    3DOPE  H14Y  374   5.196   5.519  15.698  0.2454  2.0650 -2.6440
    3DOPE  C315  375   5.347   5.465  15.571 -0.0626 -0.3072 -0.2652
    3DOPE  H15X  376   5.338   5.358  15.600  1.9909 -0.8588 -1.4590
    3DOPE  H15Y  377   5.452   5.486  15.541  0.9992  0.0426  3.2363
    3DOPE  C316  378   5.271   5.491  15.440  0.2922 -0.2443  0.0786
    3DOPE  H16X  379   5.285   5.408  15.367 -0.6856  1.7710 -2.5912
    3DOPE  H16Y  380   5.314   5.581  15.391  1.8838 -1.5335 -0.9937
    3DOPE  C317  381   5.120   5.486  15.457  0.2006  0.2279 -0.5953
    3DOPE  H17X  382   5.100   5.395  15.518 -1.9453 -0.6328 -2.4324
    3DOPE  H17Y  383   5.079   5.572  15.514 -0.9941 -0.2333 -0.7251
    3DOPE  C318  384   5.043   5.458  15.324 -0.6826 -0.5150  0.1201
    3DOPE  H18X  385   5.062   5.355  15.288 -0.2186 -0.1722 -0.6418
    3DOPE  H18Y  386   4.935   5.454  15.349 -0.2086  0.8634  2.8186
    3DOPE  H18Z  387   5.061   5.539  15.250  1.5203 -0.2326  0.8819
    4DOPE     N  388   4.743   3.035  17.634 -0.3576  0.2121  0.2052
    4DOPE   HN1  389   4.657   2.980  17.653 -2.0224  3.1101  1.6657
    4DOPE   HN2  390   4.835   2.999  17.669  0.2660  0.6471 -0.9373
    4DOPE   HN3  391   4.732   3.133  17.666  1.3923  1.1707 -1.8680
    4DOPE   C12  392   4.751   3.038  17.484 -0.1588 -0.5849  0.0486
    4DOPE  H12A  393   4.820   3.125  17.475 -2.3509  1.1837 -0.5975
    4DOPE  H12B  394   4.654   3.076  17.446  0.0847 -0.0011  0.0032
    4DOPE   C11  395   4.788   2.898  17.426  0.3177  0.5563  0.2907
    4DOPE  H11A  396   4.788   2.902  17.315  2.4693  0.3751  0.2420
    4DOPE  H11B  397   4.695   2.837  17.436 -0.5638  1.7326 -0.3935
    4DOPE     P  398   5.038   2.833  17.410  0.2406  0.2306  0.0278
    4DOPE   O13  399   5.114   2.727  17.481  0.6375 -0.3787  0.0430
    4DOPE   O14  400   5.098   2.966  17.389  0.1313  0.7263 -0.4804
    4DOPE   O11  401   4.988   2.769  17.271 -0.3745 -0.2814  0.0566
    4DOPE   O12  402   4.898   2.841  17.487 -0.0130 -0.1088 -0.2598
    4DOPE    C1  403   4.971   2.629  17.247  0.3001  0.0677 -0.2244
    4DOPE    HA  404   4.866   2.600  17.268 -0.0236  1.6848  0.5422
    4DOPE    HB  405   5.043   2.564  17.302 -1.4560  0.3194  2.5485
    4DOPE    C2  406   4.980   2.606  17.093 -0.1195 -0.0163  1.1038
    4DOPE    HS  407   4.982   2.497  17.074 -2.0115  0.5097 -3.0435
    4DOPE   O21  408   5.092   2.669  17.032  0.2985 -0.1758 -0.1677
    4DOPE   C21  409   5.198   2.586  17.030  0.2232  0.0623 -0.1485
    4DOPE   O22  410   5.196   2.473  17.065  0.1723 -0.4335  0.7798
    4DOPE   C22  411   5.324   2.667  16.989 -0.5819 -0.1039  0.5666
    4DOPE   H2R  412   5.385   2.651  17.081  0.4818  1.2519  0.1317
    4DOPE   H2S  413   5.303   2.774  16.970  1.0638  0.1348 -0.1272
    4DOPE    C3  414   4.856   2.636  17.026  0.5889  0.1972 -0.5603
    4DOPE    HX  415   4.825   2.736  17.065 -0.0211  0.3162 -1.3304
    4DOPE    HY  416   4.770   2.579  17.067  1.0878 -0.3552 -0.2587
    4DOPE   O31  417   4.862   2.650  16.886  0.0671  0.8959 -0.1380
    4DOPE   C31  418   4.889   2.538  16.811 -0.2731 -0.3304 -0.8749
    4DOPE   O32  419   4.906   2.427  16.858  0.2620 -0.0610  0.1618
    4DOPE   C32  420   4.890   2.578  16.664  0.7630  0.2767  0.4422
    4DOPE   H2X  421   4.798   2.637  16.643 -1.0697 -2.1781  1.0779
    4DOPE   H2Y  422   4.982   2.637  16.643  1.6700 -0.4799  2.1352
    4DOPE   C23  423   5.396   2.617  16.863 -0.3248  0.1771 -0.5311
    4DOPE   H3R  424   5.423   2.511  16.883 -0.7238  0.3398  0.9653
    4DOPE   H3S  425   5.492   2.672  16.855 -1.4786  2.5936  1.2436
    4DOPE   C24  426   5.316   2.627  16.732 -0.5227  0.1245  0.1835
    4DOPE   H4R  427   5.323   2.731  16.694  0.9457 -0.4347 -1.1957
    4DOPE   H4S  428   5.206   2.614  16.743 -0.4274 -0.0428  0.9864
    4DOPE   C25  429   5.358   2.523  16.626 -0.2863 -0.5027 -0.9147
    4DOPE   H5R  430   5.283   2.523  16.544 -0.0761  0.8129 -1.1186
    4DOPE   H5S  431   5.368   2.419  16.664  4.5403 -0.0291 -0.2241
    4DOPE   C26  432   5.501   2.552  16.564  0.6995 -0.1673  0.2081
    4DOPE   H6R  433   5.589   2.546  16.632  0.9239  2.3331  0.2424
    4DOPE   H6S  434   5.499   2.654  16.519 -2.2439  0.6479  1.9670
    4DOPE   C27  435   5.531   2.462  16.448 -0.3586 -0.2539  0.3147
    4DOPE   H7R  436   5.528   2.360  16.492  1.0454 -0.2771  0.4008
    4DOPE   H7S  437   5.623   2.488  16.393 -0.7755  2.0488  0.5943
    4DOPE   C28  438   5.422   2.454  16.334  0.2426 -0.0087 -0.1047
    4DOPE   H8R  439   5.387   2.560  16.331 -1.0544 -0.4305 -2.1899
    4DOPE   H8S  440   5.337   2.388  16.362 -1.8161  1.6460 -2.0156
    4DOPE   C29  441   5.466   2.405  16.202 -0.1234  0.2301 -0.5891
    4DOPE   H9R  442   5.534   2.319  16.211 -1.2339 -0.6369 -0.2386
    4DOPE  C210  443   5.459   2.466  16.084  0.3865  0.9510 -0.3013
    4DOPE  H10R  444   5.514   2.424  15.998  2.4587 -0.5625  1.6421
    4DOPE  C211  445   5.392   2.596  16.064  0.3532  0.4754 -0.0119
    4DOPE  H11R  446   5.463   2.681  16.068  0.8209  0.1848 -1.5340
    4DOPE  H11S  447   5.316   2.615  16.142 -1.5306  1.0219 -1.8803
    4DOPE  C212  448   5.313   2.620  15.932 -0.3752 -0.7498  0.8360
    4DOPE  H12R  449   5.269   2.722  15.937 -1.7126 -1.3151  1.1008
    4DOPE  H12S  450   5.219   2.561  15.936 -2.2795  1.9977 -0.2532
    4DOPE  C213  451   5.391   2.593  15.795  0.9956  0.2074 -0.1812
    4DOPE  H13R  452   5.424   2.487  15.793  3.6946  0.9740 -1.3122
    4DOPE  H13S  453   5.485   2.647  15.771  1.3499 -1.1361 -2.0053
    4DOPE  C214  454   5.304   2.631  15.674 -0.7766 -0.0743  0.1954
    4DOPE  H14R  455   5.255   2.728  15.698  0.6390  0.9150 -0.7042
    4DOPE  H14S  456   5.219   2.560  15.664 -1.0189  0.1495  0.6507
    4DOPE  C215  457   5.377   2.647  15.540 -0.4033  0.2730  0.5428
    4DOPE  H15R  458   5.467   2.711  15.553  0.9786 -1.1817 -1.3132
    4DOPE  H15S  459   5.304   2.703  15.477 -1.4490  2.8310  3.7492
    4DOPE  C216  460   5.398   2.513  15.469 -0.3915 -0.4817 -0.7195
    4DOPE  H16R  461   5.309   2.446  15.480 -1.3773  1.0055  0.8408
    4DOPE  H16S  462   5.480   2.459  15.522 -0.5902  0.3841  0.5146
    4DOPE  C217  463   5.430   2.534  15.319  0.7961  0.0597 -0.7495
    4DOPE  H17R  464   5.521   2.595  15.304  1.0332 -0.5262 -1.7815
    4DOPE  H17S  465   5.350   2.603  15.283 -1.2566 -1.2047  1.1155
    4DOPE  C218  466   5.447   2.408  15.234  0.0047 -0.0415  0.5580
    4DOPE  H18R  467   5.474   2.444  15.132 -2.9316  0.4329 -0.1649
    4DOPE  H18S  468   5.349   2.355  15.235 -0.8453  1.4461  0.1975
    4DOPE  H18T  469   5.516   2.335  15.281  0.5125 -0.1527 -0.3518
    4DOPE   C33  470   4.891   2.463  16.573  0.2468 -1.0461 -0.0067
    4DOPE   H3X  471   4.805   2.396  16.595 -1.7768  1.3152 -0.3367
    4DOPE   H3Y  472   4.980   2.404  16.604  1.3696  0.1525 -0.8540
    4DOPE   C34  473   4.897   2.517  16.430 -0.9664  0.5298 -0.1742
    4DOPE   H4X  474   4.793   2.545  16.403 -0.6536  1.3419 -0.5564
    4DOPE   H4Y  475   4.972   2.598  16.415 -1.5267  0.7751 -1.7397
    4DOPE   C35  476   4.932   2.408  16.324 -0.0850  0.5587 -0.4947
    4DOPE   H5X  477   4.879   2.314  16.350 -2.0690  1.2335 -1.9087
    4DOPE   H5Y  478   5.042   2.388  16.322  0.0373  0.9667  1.1107
    4DOPE   C36  479   4.892   2.439  16.180  0.0332  0.7914  0.5857
    4DOPE   H6X  480   4.782   2.456  16.180 -0.8054 -3.3637 -1.9429
    4DOPE   H6Y  481   4.898   2.347  16.118 -0.5373  0.9384  0.3044
    4DOPE   C37  482   4.968   2.554  16.121  0.8995 -0.0678 -0.5131
    4DOPE   H7X  483   4.955   2.645  16.184 -1.1102 -0.9117  0.3770
    4DOPE   H7Y  484   5.078   2.535  16.124  1.1063  1.1662  1.3933
    4DOPE   C38  485   4.921   2.590  15.980 -0.4303 -0.0530  0.2889
    4DOPE   H8X  486   4.976   2.685  15.961  0.3062 -0.5566 -0.1590
    4DOPE   H8Y  487   4.810   2.603  15.978 -0.4733 -0.4798 -0.1311
    4DOPE   C39  488   4.959   2.484  15.882  0.0267  0.0575 -0.2763
    4DOPE   H9X  489   5.008   2.395  15.926  0.8241 -0.5964 -2.3684
    4DOPE  C310  490   4.930   2.500  15.748  0.0757  0.1489 -0.1897
    4DOPE  H10X  491   4.961   2.418  15.682 -1.7835 -0.8671  0.1142
    4DOPE  C311  492   4.870   2.627  15.685  0.2140 -0.9234 -0.1585
    4DOPE  H11X  493   4.764   2.605  15.660 -0.9967  0.9227  2.8596
    4DOPE  H11Y  494   4.874   2.715  15.752  4.2009 -0.6756 -0.5112
    4DOPE  C312  495   4.916   2.670  15.542  0.1215 -0.5026 -0.5574
    4DOPE  H12X  496   5.024   2.694  15.546  0.5316 -2.2505  0.0386
    4DOPE  H12Y  497   4.850   2.758  15.525  0.4269 -0.1205  0.1818
    4DOPE  C313  498   4.892   2.577  15.422 -0.1319 -0.1491  0.0264
    4DOPE  H13X  499   4.925   2.473  15.441  0.2051 -0.0189  0.1689
    4DOPE  H13Y  500   4.784   2.557  15.403 -0.3718  1.4493 -0.4508
    4DOPE  C314  501   4.962   2.620  15.287 -0.5753  0.8857 -0.1001
    4DOPE  H14X  502   5.067   2.644  15.315 -0.2271 -1.3070  0.6278
    4DOPE  H14Y  503   4.910   2.710  15.246 -0.6155  1.2180  0.6710
    4DOPE  C315  504   4.967   2.499  15.190 -0.4979  0.4801 -0.2457
    4DOPE  H15X  505   4.860   2.488  15.161 -0.4173 -0.4625 -0.1961
    4DOPE  H15Y  506   5.005   2.415  15.251 -1.4238  0.0182 -0.2904
    4DOPE  C316  507   5.054   2.517  15.065 -0.1440  0.6156 -0.1181
    4DOPE  H16X  508   5.159   2.528  15.101  0.2218 -1.9887 -0.2240
    4DOPE  H16Y  509   5.024   2.602  15.000 -0.7713  0.1825 -0.4045
    4DOPE  C317  510   5.072   2.394  14.974 -0.5115  0.2107 -0.5114
    4DOPE  H17X  511   5.115   2.308  15.031 -2.0427  1.2328  2.3704
    4DOPE  H17Y  512   4.968   2.369  14.943 -0.6022 -0.1192  0.0575
    4DOPE  C318  513   5.161   2.414  14.853  0.4578 -0.2103  0.2865
    4DOPE  H18X  514   5.174   2.322  14.793 -2.9287 -1.6648  1.5389
    4DOPE  H18Y  515   5.132   2.494  14.781  0.6793 -2.3048 -2.2931
    4DOPE  H18Z  516   5.258   2.456  14.889  0.2692  0.8369 -0.3684
    5DOPE     N  517   3.683   5.173  17.777  0.1961 -0.5605 -0.6129
    5DOPE   HN1  518   3.595   5.154  17.829  0.3204 -0.2363 -0.2725
    5DOPE   HN2  519   3.769   5.161  17.834 -0.1522  0.2291  0.1081
    5DOPE   HN3  520   3.683   5.274  17.749 -0.5946  0.5636  2.9370
    5DOPE   C12  521   3.684   5.080  17.660 -0.3798 -0.3256  0.3677
    5DOPE  H12A  522   3.634   5.129  17.574  0.3349  1.0548  0.7146
    5DOPE  H12B  523   3.626   4.987  17.679  1.3602 -1.8044 -1.1684
    5DOPE   C11  524   3.830   5.049  17.619 -0.1127 -0.1213 -0.0857
    5DOPE  H11A  525   3.890   5.141  17.596  0.8094 -0.4916  0.7679
    5DOPE  H11B  526   3.823   4.992  17.524 -0.5290 -2.5685  1.3359
    5DOPE     P  527   3.962   4.841  17.695 -0.3629  0.1740 -0.2581
    5DOPE   O13  528   3.857   4.741  17.681  0.6933  0.6333 -0.0360
    5DOPE   O14  529   4.056   4.815  17.804 -0.4379 -0.4021  0.4855
    5DOPE   O11  530   4.034   4.853  17.554 -0.2257  0.3326  0.0345
    5DOPE   O12  531   3.899   4.981  17.723  0.3832  0.4559 -0.0723
    5DOPE    C1  532   4.146   4.939  17.528  0.1683 -0.1474 -0.0971
    5DOPE    HA  533   4.230   4.896  17.587  0.5534 -0.6197 -0.9688
    5DOPE    HB  534   4.119   5.043  17.556 -0.2605 -0.4779  0.7398
    5DOPE    C2  535   4.183   4.938  17.381  0.5490  0.3638  0.0875
    5DOPE    HS  536   4.287   4.976  17.389  0.3407  0.6384  1.7847
    5DOPE   O21  537   4.092   5.019  17.299  0.2292  0.1310  0.6221
    5DOPE   C21  538   4.093   5.156  17.305  0.7771  0.9287 -0.4454
    5DOPE   O22  539   4.165   5.215  17.383 -0.5179 -0.7542  0.4184
    5DOPE   C22  540   3.984   5.216  17.211  0.3991 -0.2117  0.2897
    5DOPE   H2R  541   3.881   5.188  17.242 -0.2888  0.4445 -1.3158
    5DOPE   H2S  542   3.995   5.158  17.117  1.6586  0.8313 -0.2248
    5DOPE    C3  543   4.205   4.794  17.323 -0.4208  0.5025 -0.6157
    5DOPE    HX  544   4.115   4.731  17.340  2.1872 -3.1221  0.8030
    5DOPE    HY  545   4.291   4.748  17.375 -0.0105  2.6519  0.7173
    5DOPE   O31  546   4.244   4.797  17.183 -0.4295 -0.8137  0.4900
    5DOPE   C31  547   4.158   4.770  17.087 -0.0046 -0.0267  0.3989
    5DOPE   O32  548   4.046   4.737  17.108  0.3522  0.6066  0.3978
    5DOPE   C32  549   4.213   4.800  16.955 -0.1171  0.3048  0.6866
    5DOPE   H2X  550   4.310   4.854  16.964  1.0886 -1.4990 -0.8603
    5DOPE   H2Y  551   4.231   4.707  16.898 -0.5188  0.2211  0.6918
    5DOPE   C23  552   3.994   5.368  17.194  0.2149  0.6074  0.3392
    5DOPE   H3R  553   4.016   5.428  17.285  2.5759 -0.4947  0.5519
    5DOPE   H3S  554   3.890   5.394  17.164 -0.2461 -1.6684 -0.2912
    5DOPE   C24  555   4.086   5.415  17.079  0.3410  0.5036 -0.6404
    5DOPE   H4R  556   4.193   5.386  17.094  0.2320  1.0852  1.5557
    5DOPE   H4S  557   4.081   5.525  17.079 -1.7172  0.4387 -0.3358
    5DOPE   C25  558   4.029   5.365  16.944  0.1138  0.5295 -0.8549
    5DOPE   H5R  559   3.919   5.378  16.936  0.1899  0.9882 -1.2362
    5DOPE   H5S  560   4.047   5.256  16.932 -1.5582  0.3086 -1.6210
    5DOPE   C26  561   4.093   5.435  16.821  0.5682 -0.4050  0.1197
    5DOPE   H6R  562   4.198   5.470  16.836  0.6124 -0.2600 -0.4646
    5DOPE   H6S  563   4.048   5.532  16.790 -0.2839 -0.5178  0.9950
    5DOPE   C27  564   4.088   5.334  16.701  0.2437  0.7864  0.0704
    5DOPE   H7R  565   4.130   5.238  16.737 -0.6527  1.0659  1.9797
    5DOPE   H7S  566   4.152   5.378  16.621  0.8692  0.7261  0.5355
    5DOPE   C28  567   3.952   5.315  16.625 -0.0771 -0.0853 -0.5516
    5DOPE   H8R  568   3.918   5.407  16.573 -1.0307 -1.1917 -1.9794
    5DOPE   H8S  569   3.873   5.305  16.702 -1.1545 -3.5009 -1.9147
    5DOPE   C29  570   3.953   5.199  16.531 -0.0280  0.2569  0.7159
    5DOPE   H9R  571   3.937   5.100  16.576 -0.2392  0.5012  1.1831
    5DOPE  C210  572   3.952   5.214  16.392 -0.7067 -0.2300 -1.0321
    5DOPE  H10R  573   3.966   5.122  16.334 -0.6730 -0.9281  0.0437
    5DOPE  C211  574   3.951   5.348  16.317  0.0875  0.4856 -0.6411
    5DOPE  H11R  575   4.013   5.425  16.367 -1.2807  0.9240  0.4228
    5DOPE  H11S  576   3.846   5.381  16.302  0.3105  2.3492  1.3783
    5DOPE  C212  577   4.008   5.343  16.171  0.0887  0.4878 -0.7162
    5DOPE  H12R  578   4.117   5.322  16.170 -0.0715 -1.2603  2.6916
    5DOPE  H12S  579   3.995   5.447  16.135 -0.2207  0.5468 -0.4420
    5DOPE  C213  580   3.928   5.243  16.085  0.3476 -0.1906  0.1421
    5DOPE  H13R  581   3.819   5.262  16.094  0.3250  0.9488 -1.9108
    5DOPE  H13S  582   3.961   5.140  16.108 -0.8171 -0.9528 -1.4496
    5DOPE  C214  583   3.958   5.265  15.933 -1.2379  0.2270  0.5022
    5DOPE  H14R  584   4.062   5.225  15.933 -0.6186  1.7563  1.2684
    5DOPE  H14S  585   3.949   5.374  15.912 -0.7858  0.2159  0.2264
    5DOPE  C215  586   3.867   5.189  15.832 -1.0836 -0.5599 -1.3718
    5DOPE  H15R  587   3.770   5.241  15.817  1.6126  4.3812 -4.5860
    5DOPE  H15S  588   3.870   5.083  15.866  0.9334  0.0629  0.6358
    5DOPE  C216  589   3.916   5.178  15.684 -0.5650 -0.6129  0.0920
    5DOPE  H16R  590   3.844   5.118  15.625  0.8103 -2.8488  0.5582
    5DOPE  H16S  591   4.017   5.134  15.677  0.8060  2.4044 -1.1818
    5DOPE  C217  592   3.919   5.308  15.608 -0.1942 -0.3043 -0.7180
    5DOPE  H17R  593   3.969   5.388  15.667 -1.9842 -1.2917  2.4308
    5DOPE  H17S  594   3.813   5.342  15.604  0.2611  1.2300 -0.4516
    5DOPE  C218  595   3.966   5.289  15.461  0.4710 -0.7811 -0.1999
    5DOPE  H18R  596   3.943   5.374  15.393  1.0667 -2.7420 -3.0095
    5DOPE  H18S  597   3.913   5.201  15.420  1.1946 -2.0063  1.3558
    5DOPE  H18T  598   4.077   5.281  15.453  0.5955  0.7698 -0.4526
    5DOPE   C33  599   4.110   4.884  16.875  0.7750  0.0757  0.2547
    5DOPE   H3X  600   4.109   4.986  16.920 -1.7448  0.9003 -1.4382
    5DOPE   H3Y  601   4.002   4.856  16.878  0.5030  1.1464  0.8880
    5DOPE   C34  602   4.149   4.911  16.726 -0.2227  0.2634  0.2380
    5DOPE   H4X  603   4.108   5.014  16.713 -1.3449 -0.4224 -2.2976
    5DOPE   H4Y  604   4.255   4.923  16.697  0.0929  0.6827  1.5059
    5DOPE   C35  605   4.093   4.813  16.625  0.2361 -0.6691 -0.8469
    5DOPE   H5X  606   3.982   4.823  16.626  0.2532  1.2864  3.0585
    5DOPE   H5Y  607   4.115   4.708  16.655 -0.2395 -0.4763  0.2540
    5DOPE   C36  608   4.142   4.845  16.482  0.1543  0.4096  0.2248
    5DOPE   H6X  609   4.251   4.860  16.472  0.1283 -0.6846 -2.6946
    5DOPE   H6Y  610   4.105   4.947  16.455  1.8821  1.2164  0.7751
    5DOPE   C37  611   4.093   4.741  16.382  0.0531 -0.4595 -1.0129
    5DOPE   H7X  612   4.100   4.643  16.434 -1.5311  0.7017  1.6264
    5DOPE   H7Y  613   3.989   4.768  16.354  0.3585  0.6476 -1.1321
    5DOPE   C38  614   4.157   4.730  16.247  0.3135 -0.2254  0.4066
    5DOPE   H8X  615   4.092   4.666  16.183 -0.7662  0.4203  0.8369
    5DOPE   H8Y  616   4.257   4.682  16.258  1.2160  1.0765 -1.4323
    5DOPE   C39  617   4.189   4.867  16.192  0.2715 -0.1882  0.5838
    5DOPE   H9X  618   4.247   4.929  16.262  0.0923  1.5013 -0.6944
    5DOPE  C310  619   4.148   4.908  16.067  0.3092  0.0820 -0.5575
    5DOPE  H10X  620   4.176   5.009  16.034  1.5653  0.1741  0.7282
    5DOPE  C311  621   4.049   4.846  15.967  0.0211  0.1494 -0.0840
    5DOPE  H11X  622   3.979   4.778  16.020  0.9121 -0.5981  0.1674
    5DOPE  H11Y  623   3.990   4.928  15.921 -0.4420 -1.7009 -3.0776
    5DOPE  C312  624   4.120   4.763  15.861 -0.2455 -0.2311 -0.3047
    5DOPE  H12X  625   4.186   4.684  15.903  1.5367  0.0906 -2.2955
    5DOPE  H12Y  626   4.196   4.821  15.803  0.4463 -1.9538 -1.2210
    5DOPE  C313  627   4.020   4.688  15.771 -0.3074  0.2623 -0.5899
    5DOPE  H13X  628   3.941   4.640  15.834 -1.1171  3.2112  0.8083
    5DOPE  H13Y  629   3.966   4.759  15.705 -1.6079 -1.6223 -1.6282
    5DOPE  C314  630   4.093   4.586  15.677 -0.2364 -0.2807 -0.8424
    5DOPE  H14X  631   4.172   4.538  15.738 -0.0505  1.2435  0.1792
    5DOPE  H14Y  632   4.129   4.654  15.597 -1.6551  0.4429 -0.8996
    5DOPE  C315  633   3.997   4.474  15.625 -0.3749 -0.4472  0.4336
    5DOPE  H15X  634   3.953   4.426  15.715 -2.1404  2.4008  1.2291
    5DOPE  H15Y  635   4.052   4.392  15.575 -3.5897 -2.2613 -0.4098
    5DOPE  C316  636   3.882   4.523  15.541  0.1739 -0.9658  0.7987
    5DOPE  H16X  637   3.925   4.576  15.453  0.7919 -1.7968  0.5937
    5DOPE  H16Y  638   3.818   4.593  15.599  1.0688  0.5806  0.0017
    5DOPE  C317  639   3.794   4.405  15.487  0.1684 -0.1003 -0.0204
    5DOPE  H17X  640   3.748   4.352  15.573 -1.4850  2.8614  1.0641
    5DOPE  H17Y  641   3.711   4.454  15.432 -0.0361 -0.9810 -0.4997
    5DOPE  C318  642   3.866   4.298  15.406 -0.2979 -0.2119 -0.2322
    5DOPE  H18X  643   3.938   4.243  15.470 -0.9281 -0.8867 -0.0811
    5DOPE  H18Y  644   3.790   4.224  15.370 -1.2445  1.2434 -1.3880
    5DOPE  H18Z  645   3.918   4.336  15.316  3.0732 -0.8494  1.2972
    6DOPE     N  646   3.868   6.566  17.734  0.0468  0.1726 -0.5597
    6DOPE   HN1  647   3.891   6.652  17.789 -0.8784  0.2925 -0.3527
    6DOPE   HN2  648   3.945   6.547  17.667 -1.3788  1.3056 -2.5950
    6DOPE   HN3  649   3.785   6.596  17.680  0.1032  1.2830 -0.0655
    6DOPE   C12  650   3.849   6.442  17.822 -0.1293 -0.0096  0.4247
    6DOPE  H12A  651   3.782   6.377  17.762  0.3700 -0.2619  0.1340
    6DOPE  H12B  652   3.786   6.479  17.906  0.0968  0.3182  0.4521
    6DOPE   C11  653   3.977   6.371  17.871 -0.5488 -0.5622 -0.0557
    6DOPE  H11A  654   4.028   6.439  17.942  1.1046 -1.1471 -0.6184
    6DOPE  H11B  655   4.054   6.360  17.791 -1.3751  0.2218 -0.9829
    6DOPE     P  656   3.928   6.113  17.852  0.3884 -0.1857  0.2692
    6DOPE   O13  657   3.802   6.112  17.778  0.3346 -0.1447 -0.2310
    6DOPE   O14  658   3.953   5.996  17.943 -0.1016 -0.8205 -0.0758
    6DOPE   O11  659   4.048   6.115  17.746  0.0043  0.0949 -0.0270
    6DOPE   O12  660   3.933   6.245  17.929 -0.4460  0.2204  0.1301
    6DOPE    C1  661   4.085   6.007  17.658 -0.1610  0.5179 -0.2199
    6DOPE    HA  662   3.998   5.939  17.654 -0.0188  0.1547  1.8699
    6DOPE    HB  663   4.161   5.944  17.710 -1.9644 -1.4623  0.1380
    6DOPE    C2  664   4.136   6.051  17.520 -0.3570 -0.1797  0.0976
    6DOPE    HS  665   4.053   6.046  17.447  0.8852 -0.1620 -1.3688
    6DOPE   O21  666   4.248   5.963  17.477 -0.6389 -0.4954 -0.4609
    6DOPE   C21  667   4.214   5.839  17.438  0.4466 -0.5453 -0.0887
    6DOPE   O22  668   4.096   5.804  17.436  0.2978  0.2800  0.0252
    6DOPE   C22  669   4.330   5.753  17.401 -0.3388  0.7471  0.0212
    6DOPE   H2R  670   4.278   5.659  17.372  2.3087 -0.6584 -0.4864
    6DOPE   H2S  671   4.379   5.719  17.495  0.4205 -1.9714 -1.2242
    6DOPE    C3  672   4.187   6.201  17.523  0.0193  0.0823 -0.2590
    6DOPE    HX  673   4.277   6.203  17.588 -0.2259  0.5973  0.0773
    6DOPE    HY  674   4.111   6.255  17.585 -0.1759 -2.0779  1.5152
    6DOPE   O31  675   4.197   6.261  17.391  0.2470 -0.0841 -0.0215
    6DOPE   C31  676   4.311   6.225  17.329  0.8277 -0.3123 -0.2768
    6DOPE   O32  677   4.415   6.180  17.371  0.1610 -0.2884 -0.3824
    6DOPE   C32  678   4.283   6.251  17.180 -0.4274 -0.0613 -0.2696
    6DOPE   H2X  679   4.218   6.166  17.149 -1.2830  0.6877 -0.5676
    6DOPE   H2Y  680   4.218   6.341  17.173 -1.8688 -1.0382  0.1789
    6DOPE   C23  681   4.442   5.794  17.297 -0.4647  0.3858  0.2409
    6DOPE   H3R  682   4.519   5.714  17.298  0.9824  1.6851  2.7576
    6DOPE   H3S  683   4.487   5.888  17.335 -0.0113 -0.1373  1.0246
    6DOPE   C24  684   4.381   5.819  17.157 -0.2918 -0.4694 -0.4245
    6DOPE   H4R  685   4.310   5.903  17.147  0.2326 -0.1428 -1.6628
    6DOPE   H4S  686   4.333   5.728  17.115 -0.7706 -0.5447  0.2668
    6DOPE   C25  687   4.491   5.861  17.052  0.6225 -0.6250 -0.0472
    6DOPE   H5R  688   4.581   5.797  17.055  0.6606 -0.5766 -0.1321
    6DOPE   H5S  689   4.516   5.964  17.087 -1.2874 -0.3155  0.5837
    6DOPE   C26  690   4.438   5.875  16.905 -0.2355 -0.1356 -0.5498
    6DOPE   H6R  691   4.523   5.922  16.851 -0.3996  3.0941  1.7509
    6DOPE   H6S  692   4.358   5.950  16.898 -0.3787 -0.3988 -1.9555
    6DOPE   C27  693   4.409   5.740  16.836 -0.0804  0.8821 -0.2920
    6DOPE   H7R  694   4.305   5.711  16.861 -0.3206  2.5187  0.7778
    6DOPE   H7S  695   4.476   5.665  16.884  0.0923  1.3693  0.2418
    6DOPE   C28  696   4.437   5.739  16.679 -0.4274  1.1159 -0.8708
    6DOPE   H8R  697   4.428   5.640  16.631  0.6709  0.9281 -0.7069
    6DOPE   H8S  698   4.538   5.779  16.655 -0.0067  1.5385  1.4093
    6DOPE   C29  699   4.346   5.830  16.611 -0.3116 -0.7773 -0.0117
    6DOPE   H9R  700   4.339   5.935  16.643 -0.2488 -0.6047 -0.5517
    6DOPE  C210  701   4.255   5.798  16.519  0.0048  0.2241 -0.2534
    6DOPE  H10R  702   4.188   5.876  16.480 -0.0700 -0.7819 -2.2318
    6DOPE  C211  703   4.230   5.657  16.468 -0.6529 -0.8187  0.6169
    6DOPE  H11R  704   4.120   5.642  16.464 -0.7677  0.0989 -0.0345
    6DOPE  H11S  705   4.287   5.586  16.531  0.2793 -2.3472 -1.7984
    6DOPE  C212  706   4.272   5.658  16.322  0.9751 -0.3447  0.4476
    6DOPE  H12R  707   4.291   5.556  16.281  1.6275 -0.8509  1.9283
    6DOPE  H12S  708   4.368   5.709  16.304  0.9008 -0.5630 -0.6871
    6DOPE  C213  709   4.168   5.734  16.236  0.6613  0.4727 -0.2899
    6DOPE  H13R  710   4.140   5.829  16.285 -0.4428 -1.0138  2.1327
    6DOPE  H13S  711   4.071   5.679  16.236 -0.0604  1.4771  3.3794
    6DOPE  C214  712   4.216   5.758  16.088 -0.2822 -0.0597 -1.3681
    6DOPE  H14R  713   4.322   5.788  16.073  0.8922 -2.9914  0.0633
    6DOPE  H14S  714   4.142   5.831  16.050 -2.0343  0.2733  2.2858
    6DOPE  C215  715   4.214   5.628  16.009  0.0237  0.5162  0.3041
    6DOPE  H15R  716   4.110   5.589  16.005 -0.9038  2.4906  2.4918
    6DOPE  H15S  717   4.272   5.552  16.066 -0.4731  0.6857  1.0503
    6DOPE  C216  718   4.266   5.643  15.866 -0.1909  0.2838  0.5226
    6DOPE  H16R  719   4.376   5.654  15.858 -0.3377  0.5022 -1.7675
    6DOPE  H16S  720   4.225   5.737  15.825 -0.1565  1.4867  3.0183
    6DOPE  C217  721   4.221   5.531  15.774  0.1414 -0.0844  0.3073
    6DOPE  H17R  722   4.111   5.526  15.760  0.3205 -1.5663 -0.7268
    6DOPE  H17S  723   4.255   5.438  15.824 -2.2681 -0.4778  1.3252
    6DOPE  C218  724   4.277   5.545  15.631  0.1774 -0.0176 -0.1592
    6DOPE  H18R  725   4.223   5.478  15.560  1.1872 -1.2432  0.1910
    6DOPE  H18S  726   4.382   5.512  15.614  1.1667  2.2249  1.2219
    6DOPE  H18T  727   4.250   5.645  15.593 -0.7421 -0.3474 -0.4071
    6DOPE   C33  728   4.414   6.273  17.099 -0.1149 -0.7482  0.0519
    6DOPE   H3X  729   4.485   6.188  17.109  1.3803  0.1899 -1.9206
    6DOPE   H3Y  730   4.466   6.357  17.151 -1.9305  0.1590  0.5107
    6DOPE   C34  731   4.387   6.293  16.946  0.1288  0.5332 -0.1617
    6DOPE   H4X  732   4.349   6.192  16.918  1.6324  0.1809 -1.0279
    6DOPE   H4Y  733   4.314   6.373  16.919 -1.4244 -0.8154 -0.1295
    6DOPE   C35  734   4.509   6.318  16.864 -0.0135 -0.0921 -0.0529
    6DOPE   H5X  735   4.574   6.229  16.879 -0.6348 -0.2819  1.8187
    6DOPE   H5Y  736   4.558   6.409  16.905 -0.3631  0.1492 -0.1657
    6DOPE   C36  737   4.491   6.337  16.711 -0.4048  1.0081 -0.2773
    6DOPE   H6X  738   4.579   6.397  16.680 -0.3375  1.1370  0.1527
    6DOPE   H6Y  739   4.403   6.399  16.683 -0.8522  0.1383 -0.8258
    6DOPE   C37  740   4.493   6.200  16.636 -0.5223  0.3822  0.1863
    6DOPE   H7X  741   4.587   6.147  16.665 -0.6212  0.6011  0.9405
    6DOPE   H7Y  742   4.404   6.140  16.665 -1.7729  1.9874 -0.1832
    6DOPE   C38  743   4.494   6.234  16.488 -0.5137 -0.0327 -0.1302
    6DOPE   H8X  744   4.582   6.297  16.463  1.0276 -1.3196  1.8024
    6DOPE   H8Y  745   4.404   6.296  16.468  0.5925  1.3519 -1.0392
    6DOPE   C39  746   4.503   6.092  16.428 -0.4638 -0.5568  0.2700
    6DOPE   H9X  747   4.505   6.010  16.502 -0.3568  0.4224  1.3980
    6DOPE  C310  748   4.504   6.077  16.298  0.3750  0.5618  0.0052
    6DOPE  H10X  749   4.474   5.979  16.258  2.3108 -0.3465  0.6481
    6DOPE  C311  750   4.508   6.194  16.203  0.1744  0.0301 -0.1400
    6DOPE  H11X  751   4.404   6.222  16.174 -0.5693 -1.6574  0.7379
    6DOPE  H11Y  752   4.558   6.283  16.247  0.1957 -0.8581  1.7291
    6DOPE  C312  753   4.585   6.155  16.079 -0.7359 -0.1463 -0.1131
    6DOPE  H12X  754   4.685   6.111  16.102 -0.3186  1.9378  2.6524
    6DOPE  H12Y  755   4.610   6.245  16.018  0.8566  0.3439  1.1839
    6DOPE  C313  756   4.511   6.054  15.988 -0.1826 -0.4255 -0.0254
    6DOPE  H13X  757   4.574   6.028  15.900 -1.2548  3.6065 -2.2390
    6DOPE  H13Y  758   4.478   5.965  16.046 -1.1276 -0.2729 -0.3178
    6DOPE  C314  759   4.380   6.111  15.923  0.0667 -0.0400  0.5115
    6DOPE  H14X  760   4.385   6.211  15.874 -2.4584  0.8825  1.9203
    6DOPE  H14Y  761   4.297   6.113  15.997 -1.7320  0.6009 -1.4317
    6DOPE  C315  762   4.326   6.007  15.830 -0.3560  0.2481 -0.2095
    6DOPE  H15X  763   4.333   5.908  15.880  1.8953  1.9647  3.3212
    6DOPE  H15Y  764   4.390   6.009  15.740 -0.8074  1.4611 -0.5216
    6DOPE  C316  765   4.182   6.031  15.783 -0.2418  0.3414  0.1593
    6DOPE  H16X  766   4.101   6.016  15.857 -1.7510  1.5320 -1.1872
    6DOPE  H16Y  767   4.167   5.951  15.707  1.6655  1.5470 -1.6058
    6DOPE  C317  768   4.153   6.154  15.706 -0.1156 -0.0328  0.1507
    6DOPE  H17X  769   4.121   6.236  15.774  1.2163 -0.2070  1.0356
    6DOPE  H17Y  770   4.235   6.198  15.646 -0.8703 -0.9728 -1.6587
    6DOPE  C318  771   4.039   6.130  15.604  0.7659 -0.4860  0.9259
    6DOPE  H18X  772   4.042   6.038  15.541  0.3687  0.7264 -0.9269
    6DOPE  H18Y  773   3.940   6.138  15.654 -0.2701 -2.6546 -0.5964
    6DOPE  H18Z  774   4.046   6.212  15.530 -0.7441 -1.9214 -0.9195
    7DOPE     N  775   0.759   6.722  17.228  0.2199  0.6313  0.3589
    7DOPE   HN1  776   0.801   6.761  17.315 -1.3025  1.2697  0.8398
    7DOPE   HN2  777   0.775   6.619  17.220 -1.9420  0.4032 -2.1406
    7DOPE   HN3  778   0.801   6.765  17.143  0.2244  2.1483  1.1044
    7DOPE   C12  779   0.610   6.738  17.232 -0.6891  0.7995  0.4315
    7DOPE  H12A  780   0.589   6.847  17.230  0.4608  1.0346 -1.5618
    7DOPE  H12B  781   0.571   6.694  17.326 -2.0079  1.7270  0.3487
    7DOPE   C11  782   0.544   6.666  17.118  0.8213 -0.1502  0.5915
    7DOPE  H11A  783   0.526   6.559  17.142  0.9794 -1.1617 -3.1633
    7DOPE  H11B  784   0.610   6.671  17.029  0.9035  1.4292  0.7197
    7DOPE     P  785   0.306   6.758  17.195 -0.4620  0.0620  0.1334
    7DOPE   O13  786   0.329   6.885  17.274 -0.1367  0.1259  0.6590
    7DOPE   O14  787   0.309   6.632  17.271  0.3448  0.6350 -0.3222
    7DOPE   O11  788   0.177   6.774  17.110  0.0806  0.1805  0.3812
    7DOPE   O12  789   0.419   6.740  17.094 -0.1083 -0.2655  0.0881
    7DOPE    C1  790   0.113   6.661  17.053 -0.1290 -0.6571 -0.7628
    7DOPE    HA  791   0.007   6.669  17.087  0.8924  1.0377  2.3940
    7DOPE    HB  792   0.145   6.568  17.104  1.3979 -0.0880 -0.6585
    7DOPE    C2  793   0.125   6.654  16.902 -0.1688 -0.4564  0.7948
    7DOPE    HS  794   0.065   6.566  16.868 -0.5984 -0.8289  2.4195
    7DOPE   O21  795   0.261   6.644  16.848 -0.0057 -0.2367  0.1256
    7DOPE   C21  796   0.322   6.517  16.867  0.2812 -0.3410  0.2264
    7DOPE   O22  797   0.266   6.427  16.921 -0.0740 -0.4207 -0.1193
    7DOPE   C22  798   0.449   6.499  16.784  1.0087  0.4772  1.2053
    7DOPE   H2R  799   0.497   6.406  16.822 -1.0386 -2.0676 -1.8411
    7DOPE   H2S  800   0.512   6.588  16.800  1.6750  0.1185  0.6301
    7DOPE    C3  801   0.069   6.782  16.841  0.8136 -0.8174  0.1639
    7DOPE    HX  802   0.124   6.864  16.892  1.4049 -0.6951 -0.6375
    7DOPE    HY  803  -0.036   6.792  16.875  0.8041 -2.3201  0.6542
    7DOPE   O31  804   0.088   6.801  16.699  0.2428  0.0230 -0.0551
    7DOPE   C31  805   0.004   6.730  16.615  0.0269 -0.3646 -0.5215
    7DOPE   O32  806  -0.079   6.652  16.651 -0.0043 -0.1217  0.1657
    7DOPE   C32  807   0.039   6.752  16.469  0.6726 -0.2447  0.3416
    7DOPE   H2X  808  -0.053   6.791  16.422  0.4846 -1.4944 -0.3781
    7DOPE   H2Y  809   0.121   6.826  16.458 -0.6574  1.1027 -0.7708
    7DOPE   C23  810   0.429   6.479  16.631 -0.4298 -0.7462 -0.1073
    7DOPE   H3R  811   0.522   6.515  16.583 -1.0921  0.3321 -0.6319
    7DOPE   H3S  812   0.349   6.549  16.599 -0.7945  0.2671  2.7394
    7DOPE   C24  813   0.403   6.331  16.593  0.8136  0.3138  0.4707
    7DOPE   H4R  814   0.295   6.317  16.615  1.2083 -0.9025  1.7575
    7DOPE   H4S  815   0.454   6.267  16.668  0.9804  0.4466  0.4727
    7DOPE   C25  816   0.452   6.286  16.451  0.1614 -0.0520 -0.4214
    7DOPE   H5R  817   0.412   6.184  16.433 -0.6055  0.3873 -1.3021
    7DOPE   H5S  818   0.562   6.278  16.454  0.0513 -2.3139  2.2151
    7DOPE   C26  819   0.390   6.370  16.341 -0.2083 -0.5051 -0.0937
    7DOPE   H6R  820   0.386   6.477  16.370 -2.2296 -1.0073  1.7746
    7DOPE   H6S  821   0.286   6.332  16.337  0.4346 -2.1871 -2.1880
    7DOPE   C27  822   0.459   6.349  16.210  0.0625  0.3915 -0.8976
    7DOPE   H7R  823   0.458   6.238  16.197  0.2202  0.4041 -1.0157
    7DOPE   H7S  824   0.559   6.393  16.231 -0.3018  1.5948 -1.5997
    7DOPE   C28  825   0.391   6.409  16.093  0.0311 -0.1807  0.7906
    7DOPE   H8R  826   0.469   6.419  16.014 -1.7980  0.8546 -0.9886
    7DOPE   H8S  827   0.368   6.513  16.125  0.4848 -0.0146  0.5920
    7DOPE   C29  828   0.271   6.333  16.042  0.3369  0.5626  0.0274
    7DOPE   H9R  829   0.213   6.289  16.124  0.1155 -0.9689 -0.8901
    7DOPE  C210  830   0.252   6.278  15.914  0.5931 -0.6461 -0.1343
    7DOPE  H10R  831   0.159   6.222  15.903 -1.0192  1.3289  2.2979
    7DOPE  C211  832   0.333   6.307  15.781 -0.2891  0.1779 -0.8711
    7DOPE  H11R  833   0.391   6.218  15.750 -1.6252 -0.9534 -0.2296
    7DOPE  H11S  834   0.404   6.393  15.790  0.5829 -0.6724  0.8494
    7DOPE  C212  835   0.246   6.336  15.652 -0.2185  0.0464 -0.4971
    7DOPE  H12R  836   0.262   6.441  15.622 -0.9003  0.0802 -0.7619
    7DOPE  H12S  837   0.139   6.331  15.681 -0.2346  1.6132 -0.2241
    7DOPE  C213  838   0.274   6.230  15.543  0.1625  0.0392  0.8604
    7DOPE  H13R  839   0.237   6.134  15.586 -0.3916  0.0594  0.4419
    7DOPE  H13S  840   0.382   6.215  15.519 -0.1871 -1.3589  0.0109
    7DOPE  C214  841   0.200   6.258  15.422  0.2773 -0.2225  0.6170
    7DOPE  H14R  842   0.243   6.352  15.381 -0.4221 -0.1222  0.1091
    7DOPE  H14S  843   0.094   6.279  15.447  0.1123 -0.1845 -0.1160
    7DOPE  C215  844   0.210   6.151  15.313  0.2613 -0.1969  0.7065
    7DOPE  H15R  845   0.136   6.069  15.328  0.5036 -0.4290  0.6348
    7DOPE  H15S  846   0.315   6.119  15.329  0.1576 -0.5530  0.6875
    7DOPE  C216  847   0.169   6.208  15.179 -0.4135 -0.0122 -0.2452
    7DOPE  H16R  848   0.220   6.301  15.146 -0.8403  0.4036  0.2539
    7DOPE  H16S  849   0.064   6.240  15.161 -0.1261  0.6045 -0.8712
    7DOPE  C217  850   0.188   6.103  15.067  0.4828 -0.6871  0.2819
    7DOPE  H17R  851   0.218   6.007  15.113 -1.5405 -2.0503 -1.0947
    7DOPE  H17S  852   0.256   6.140  14.987  1.4247 -2.4736  0.2232
    7DOPE  C218  853   0.058   6.062  14.990  0.0324  0.1806  0.1951
    7DOPE  H18R  854   0.081   5.973  14.928  0.8132  0.3418  0.2385
    7DOPE  H18S  855   0.028   6.152  14.932 -0.7148  0.2671  0.6986
    7DOPE  H18T  856  -0.020   6.037  15.066 -0.8089  0.5703 -0.5255
    7DOPE   C33  857   0.078   6.619  16.409 -0.2498 -0.2981  0.4658
    7DOPE   H3X  858  -0.007   6.548  16.422 -0.3669 -0.2120  0.1806
    7DOPE   H3Y  859   0.162   6.570  16.462 -0.4870 -1.3843 -0.1332
    7DOPE   C34  860   0.121   6.634  16.268 -0.5322  0.6182  0.0282
    7DOPE   H4X  861   0.208   6.704  16.269  0.2195 -0.2954  0.6170
    7DOPE   H4Y  862   0.167   6.539  16.234 -0.2248  0.6446  0.3666
    7DOPE   C35  863   0.012   6.674  16.165  0.6123 -1.1335  0.3117
    7DOPE   H5X  864  -0.033   6.775  16.175  1.4473 -0.4323 -2.1133
    7DOPE   H5Y  865  -0.073   6.606  16.186 -0.2401 -0.4172 -0.6713
    7DOPE   C36  866   0.050   6.658  16.015 -0.5253  0.0952 -0.8396
    7DOPE   H6X  867   0.074   6.552  15.993 -0.4744 -0.3098  0.9628
    7DOPE   H6Y  868   0.147   6.708  15.995 -0.6931  1.7495  1.8417
    7DOPE   C37  869  -0.054   6.717  15.918  0.5664 -0.6381  0.2081
    7DOPE   H7X  870  -0.157   6.677  15.935 -0.5504  2.6195  1.9958
    7DOPE   H7Y  871  -0.063   6.824  15.946  0.6209 -0.9019  1.3106
    7DOPE   C38  872   0.001   6.707  15.778  0.3218 -0.6312 -0.1584
    7DOPE   H8X  873   0.004   6.599  15.753 -2.1686 -1.2362  1.6663
    7DOPE   H8Y  874   0.104   6.746  15.767 -0.0362  0.2345 -0.6114
    7DOPE   C39  875  -0.080   6.787  15.684  0.4140 -0.5440  0.4085
    7DOPE   H9X  876  -0.137   6.872  15.726  2.3462  0.4552  1.1336
    7DOPE  C310  877  -0.073   6.774  15.551  0.2058  0.0084  0.1627
    7DOPE  H10X  878  -0.119   6.852  15.489 -0.9027 -2.4652 -2.2774
    7DOPE  C311  879   0.027   6.682  15.477  0.8654 -0.2997  0.2040
    7DOPE  H11X  880   0.105   6.744  15.428  0.5735 -0.4152 -0.4040
    7DOPE  H11Y  881   0.082   6.613  15.545 -1.1135 -3.4970 -1.2179
    7DOPE  C312  882  -0.031   6.581  15.369  0.0587 -0.1006  0.3750
    7DOPE  H12X  883  -0.086   6.503  15.425 -0.9744  0.0596 -0.3760
    7DOPE  H12Y  884   0.048   6.544  15.301 -0.8652 -0.7819 -0.3673
    7DOPE  C313  885  -0.130   6.652  15.271 -0.0424  0.3651  0.6337
    7DOPE  H13X  886  -0.197   6.718  15.328 -1.6137 -0.3641 -0.3048
    7DOPE  H13Y  887  -0.076   6.721  15.202  0.2830  1.7491  2.2213
    7DOPE  C314  888  -0.209   6.552  15.182 -0.1660  0.3456 -0.4964
    7DOPE  H14X  889  -0.270   6.483  15.245 -1.8066  1.1332 -1.1690
    7DOPE  H14Y  890  -0.129   6.487  15.141 -0.7034 -1.2271  0.8724
    7DOPE  C315  891  -0.283   6.620  15.070 -0.5587 -0.3773  0.3451
    7DOPE  H15X  892  -0.311   6.536  15.001 -1.7073  0.3208 -0.0708
    7DOPE  H15Y  893  -0.221   6.692  15.013 -0.4122 -2.3150 -2.1282
    7DOPE  C316  894  -0.409   6.699  15.120  0.0592  0.5603 -0.2837
    7DOPE  H16X  895  -0.389   6.769  15.204 -0.5653 -1.0610  1.2839
    7DOPE  H16Y  896  -0.472   6.615  15.158 -2.4530  3.0894  1.5338
    7DOPE  C317  897  -0.484   6.772  15.013 -0.1005 -0.3821  0.0166
    7DOPE  H17X  898  -0.567   6.820  15.069 -1.2857 -1.6955 -0.5603
    7DOPE  H17Y  899  -0.422   6.856  14.974  0.3775 -0.1789  1.1853
    7DOPE  C318  900  -0.535   6.684  14.900 -0.8361 -0.4791  0.6362
    7DOPE  H18X  901  -0.460   6.614  14.857 -1.3910 -0.5269 -0.2779
    7DOPE  H18Y  902  -0.613   6.614  14.937 -1.0191  0.9223  3.0713
    7DOPE  H18Z  903  -0.579   6.757  14.828 -0.2481 -2.2065 -1.5954
    8DOPE     N  904   1.675   6.345  17.676  0.2794 -0.7799 -0.0045
    8DOPE   HN1  905   1.688   6.395  17.767  0.2093  0.8565 -0.8502
    8DOPE   HN2  906   1.586   6.376  17.631  1.6929  1.5180 -1.4447
    8DOPE   HN3  907   1.674   6.243  17.693  0.5391 -0.7463  0.2147
    8DOPE   C12  908   1.774   6.385  17.571  0.4670  0.2044  0.7205
    8DOPE  H12A  909   1.747   6.323  17.483  1.1374  1.7915 -0.6551
    8DOPE  H12B  910   1.875   6.352  17.603 -0.2928 -2.1257  0.9190
    8DOPE   C11  911   1.748   6.534  17.541  0.3221 -0.3093  0.0627
    8DOPE  H11A  912   1.802   6.559  17.447 -0.6469  2.4461  0.1627
    8DOPE  H11B  913   1.792   6.604  17.615 -1.2218 -1.7551  2.4853
    8DOPE     P  914   1.574   6.697  17.441 -0.2685  0.0808 -0.1670
    8DOPE   O13  915   1.695   6.779  17.435 -0.6159 -0.2295  0.5893
    8DOPE   O14  916   1.443   6.759  17.483 -0.9347 -0.2121 -0.2892
    8DOPE   O11  917   1.559   6.632  17.302  0.3364 -0.8759 -0.4617
    8DOPE   O12  918   1.610   6.570  17.532  0.2665 -0.0686 -0.4942
    8DOPE    C1  919   1.599   6.509  17.261 -0.0615 -0.4294  0.3736
    8DOPE    HA  920   1.559   6.432  17.330 -2.8434 -0.1644 -0.7980
    8DOPE    HB  921   1.709   6.508  17.252 -0.1567  1.4363 -2.4050
    8DOPE    C2  922   1.531   6.460  17.121  0.7458  0.1047 -0.1549
    8DOPE    HS  923   1.548   6.351  17.105  1.1116  0.2816 -1.0369
    8DOPE   O21  924   1.570   6.535  17.001  0.0249  0.7233 -1.0272
    8DOPE   C21  925   1.690   6.507  16.949  0.3964 -0.3381 -0.7212
    8DOPE   O22  926   1.767   6.424  16.990 -0.0713  0.1714 -0.4951
    8DOPE   C22  927   1.712   6.591  16.814 -0.1135  0.6686  0.1765
    8DOPE   H2R  928   1.707   6.700  16.832 -0.0778  0.5718  0.7853
    8DOPE   H2S  929   1.625   6.580  16.745 -0.0567 -1.6100  0.3857
    8DOPE    C3  930   1.373   6.463  17.141  0.3922  0.5174 -0.0342
    8DOPE    HX  931   1.340   6.568  17.155 -0.5962  0.1528  0.4736
    8DOPE    HY  932   1.337   6.411  17.232 -1.4444  2.1495  0.2614
    8DOPE   O31  933   1.317   6.403  17.015 -0.5681 -0.1651 -0.5980
    8DOPE   C31  934   1.310   6.274  17.012 -0.1009  0.7351  0.1288
    8DOPE   O32  935   1.343   6.199  17.104 -0.1669  0.3374  0.3400
    8DOPE   C32  936   1.252   6.226  16.874 -0.1398 -0.0962  0.2729
    8DOPE   H2X  937   1.143   6.246  16.866  0.1688  1.5423 -0.0228
    8DOPE   H2Y  938   1.300   6.285  16.793 -0.1224  1.1704  1.1836
    8DOPE   C23  939   1.836   6.531  16.745  0.2910 -0.3600 -0.1017
    8DOPE   H3R  940   1.830   6.420  16.741  1.5204 -0.3973 -2.9849
    8DOPE   H3S  941   1.919   6.561  16.812  0.6277  0.6525 -0.9660
    8DOPE   C24  942   1.856   6.577  16.605 -0.3489 -0.1154  0.5021
    8DOPE   H4R  943   1.800   6.669  16.578  1.0156  0.0735 -2.0853
    8DOPE   H4S  944   1.829   6.494  16.536  3.5785 -0.3270 -1.0555
    8DOPE   C25  945   2.003   6.612  16.578 -0.0411 -0.8459  0.1520
    8DOPE   H5R  946   2.066   6.524  16.602  1.6648  0.7015  1.7497
    8DOPE   H5S  947   2.026   6.700  16.642  0.0264 -0.6221 -0.1773
    8DOPE   C26  948   2.023   6.649  16.432 -0.1948 -0.5772 -0.4152
    8DOPE   H6R  949   2.108   6.719  16.423 -1.7968  1.4658 -0.4075
    8DOPE   H6S  950   1.936   6.715  16.412 -1.4952 -1.8561  0.8052
    8DOPE   C27  951   2.026   6.542  16.324 -0.0275 -0.2030 -0.6538
    8DOPE   H7R  952   1.926   6.494  16.330  0.5844 -1.7088 -1.7449
    8DOPE   H7S  953   2.103   6.466  16.351 -1.0751 -1.3839 -0.9172
    8DOPE   C28  954   2.061   6.591  16.182  0.4150 -0.1129 -0.5771
    8DOPE   H8R  955   2.154   6.650  16.192  0.9445 -0.9211 -0.6649
    8DOPE   H8S  956   1.987   6.662  16.139  1.6179 -0.2513 -3.0159
    8DOPE   C29  957   2.066   6.472  16.092  0.2406 -0.0823  0.6964
    8DOPE   H9R  958   2.147   6.400  16.111 -1.2046 -2.7814 -2.3250
    8DOPE  C210  959   1.996   6.466  15.971 -0.9721  0.6289 -0.1811
    8DOPE  H10R  960   2.042   6.401  15.895  2.9569  3.4095 -0.4991
    8DOPE  C211  961   1.899   6.565  15.911  0.0489  0.2609 -0.1288
    8DOPE  H11R  962   1.928   6.668  15.941 -1.3619  0.5872  0.1768
    8DOPE  H11S  963   1.797   6.541  15.949 -0.4111  0.6387 -1.1126
    8DOPE  C212  964   1.902   6.555  15.757 -0.2655 -0.3624  0.7539
    8DOPE  H12R  965   1.999   6.572  15.706 -1.4079 -0.7679 -1.6885
    8DOPE  H12S  966   1.834   6.637  15.728 -2.1553 -1.8252  0.8622
    8DOPE  C213  967   1.838   6.422  15.705  0.2316 -0.2841  0.3690
    8DOPE  H13R  968   1.764   6.382  15.777 -0.6948 -1.3919 -1.1562
    8DOPE  H13S  969   1.914   6.341  15.695  0.3343 -0.0961 -0.4700
    8DOPE  C214  970   1.753   6.438  15.573 -0.1304  0.4393 -0.5606
    8DOPE  H14R  971   1.668   6.510  15.584  0.1028  0.4456  1.8003
    8DOPE  H14S  972   1.715   6.338  15.543 -0.8236  0.5677 -0.1471
    8DOPE  C215  973   1.839   6.499  15.449  0.2317  0.2544 -0.5017
    8DOPE  H15R  974   1.880   6.594  15.490  0.0476  0.5439 -0.9861
    8DOPE  H15S  975   1.768   6.520  15.366  0.7298  0.8756 -0.7769
    8DOPE  C216  976   1.942   6.406  15.391 -0.4005 -0.3445 -0.5078
    8DOPE  H16R  977   1.891   6.308  15.394 -0.1593 -0.4837 -0.8949
    8DOPE  H16S  978   2.025   6.401  15.465  1.5248  1.8142 -2.3121
    8DOPE  C217  979   1.991   6.439  15.250  0.1132 -0.4051  1.6021
    8DOPE  H17R  980   2.070   6.365  15.225 -0.7519 -0.8505  0.0917
    8DOPE  H17S  981   2.041   6.538  15.246  2.0671 -1.3589 -1.1001
    8DOPE  C218  982   1.883   6.422  15.141  0.4602  0.3052 -0.1349
    8DOPE  H18R  983   1.918   6.442  15.038 -0.0882  0.2281 -0.3392
    8DOPE  H18S  984   1.805   6.495  15.173 -0.0760 -1.7568  3.9553
    8DOPE  H18T  985   1.841   6.320  15.145  0.7554  0.2100  0.6668
    8DOPE   C33  986   1.259   6.077  16.842 -0.3678  0.6068  0.6270
    8DOPE   H3X  987   1.204   6.008  16.909  0.4587  0.8628  1.5849
    8DOPE   H3Y  988   1.367   6.052  16.849 -0.4231 -0.1617 -0.8431
    8DOPE   C34  989   1.218   6.045  16.693 -0.6645  0.1858 -0.0039
    8DOPE   H4X  990   1.114   6.081  16.686 -0.5869  0.1739 -1.5864
    8DOPE   H4Y  991   1.273   6.106  16.618 -3.1749 -0.5373 -2.5700
    8DOPE   C35  992   1.227   5.897  16.658 -0.0991 -0.6657  0.0645
    8DOPE   H5X  993   1.164   5.833  16.724 -3.3141  0.7961 -1.3916
    8DOPE   H5Y  994   1.332   5.860  16.669  0.2404 -0.2234 -1.5239
    8DOPE   C36  995   1.186   5.877  16.513  0.9246  0.8253  0.1876
    8DOPE   H6X  996   1.084   5.920  16.510  0.8268  0.7573  1.6197
    8DOPE   H6Y  997   1.164   5.769  16.496 -0.8950  0.7651  2.3957
    8DOPE   C37  998   1.278   5.936  16.418 -0.3874  0.3587  0.5496
    8DOPE   H7X  999   1.284   6.046  16.434 -0.4922  0.3791  0.4508
    8DOPE   H7Y 1000   1.372   5.887  16.451 -1.7680 -0.7739  3.0142
    8DOPE   C38 1001   1.244   5.908  16.272 -0.6733 -0.1565 -0.6828
    8DOPE   H8X 1002   1.223   5.799  16.271 -1.9339  0.0607 -0.5644
    8DOPE   H8Y 1003   1.338   5.928  16.217 -0.0588  0.4244  0.5321
    8DOPE   C39 1004   1.129   5.980  16.213  0.2479  0.5892 -0.0353
    8DOPE   H9X 1005   1.053   6.011  16.286 -0.0246  0.5269 -0.2890
    8DOPE  C310 1006   1.131   6.017  16.082  0.9163  0.2963  0.4830
    8DOPE  H10X 1007   1.038   6.064  16.045  1.0451  1.6273  1.7627
    8DOPE  C311 1008   1.232   5.993  15.975 -0.9463  0.8297  0.3199
    8DOPE  H11X 1009   1.269   6.087  15.928  1.1930 -0.0390  0.1322
    8DOPE  H11Y 1010   1.318   5.937  16.018 -2.0368 -0.7748  0.4778
    8DOPE  C312 1011   1.182   5.913  15.849 -0.3684 -0.3931 -0.3119
    8DOPE  H12X 1012   1.160   5.812  15.890  4.1905 -1.8115 -0.7279
    8DOPE  H12Y 1013   1.268   5.905  15.779  0.1914  1.2977  0.1275
    8DOPE  C313 1014   1.065   5.974  15.782 -0.0424  0.3810 -0.9109
    8DOPE  H13X 1015   0.971   5.971  15.841  0.6427  3.0183  0.5017
    8DOPE  H13Y 1016   1.083   6.083  15.771  4.3503  0.1396  1.5359
    8DOPE  C314 1017   1.041   5.926  15.639 -0.1652 -0.3016  0.2950
    8DOPE  H14X 1018   0.961   5.987  15.591  0.8257  1.6560  1.0238
    8DOPE  H14Y 1019   1.028   5.816  15.634 -1.2291 -0.1412 -2.3569
    8DOPE  C315 1020   1.156   5.961  15.552 -0.0780 -0.5137  0.1092
    8DOPE  H15X 1021   1.223   5.873  15.566  2.6793  1.4850  0.4107
    8DOPE  H15Y 1022   1.205   6.048  15.601 -0.3554 -0.9119  1.1318
    8DOPE  C316 1023   1.136   5.984  15.396  0.7725 -0.3478  0.8591
    8DOPE  H16X 1024   1.234   6.021  15.359 -0.6130  0.9006 -1.8278
    8DOPE  H16Y 1025   1.070   6.072  15.380  1.7127  0.2820  0.3320
    8DOPE  C317 1026   1.095   5.861  15.321  0.3017 -0.5358 -0.0907
    8DOPE  H17X 1027   1.155   5.774  15.354  0.4032 -0.4421 -0.0279
    8DOPE  H17Y 1028   0.989   5.835  15.341  0.0328 -1.0329 -1.9599
    8DOPE  C318 1029   1.104   5.888  15.171  0.0409 -0.6078  0.7261
    8DOPE  H18X 1030   1.209   5.909  15.142 -0.3248  1.3320  0.7048
    8DOPE  H18Y 1031   1.051   5.983  15.152  0.2706 -0.4189  1.0192
    8DOPE  H18Z 1032   1.060   5.805  15.113 -0.8229  0.2088  0.1944
    9DOPE     N 1033   3.772   4.553  17.470  0.0294  0.3615 -0.2796
    9DOPE   HN1 1034   3.745   4.453  17.478 -0.2007  0.4270 -0.2283
    9DOPE   HN2 1035   3.822   4.572  17.380  0.5907 -0.6213 -0.1801
    9DOPE   HN3 1036   3.824   4.585  17.554 -1.2976 -0.3952  0.8625
    9DOPE   C12 1037   3.647   4.629  17.473  0.4474  0.3359  0.2824
    9DOPE  H12A 1038   3.647   4.734  17.438 -0.6013  0.5900  0.9808
    9DOPE  H12B 1039   3.613   4.630  17.579 -0.3052 -2.1098  0.1238
    9DOPE   C11 1040   3.543   4.548  17.384 -0.1170 -0.8504  0.8805
    9DOPE  H11A 1041   3.581   4.552  17.280 -1.1313  0.3926  0.5335
    9DOPE  H11B 1042   3.445   4.600  17.378  1.2069  1.8125  1.1435
    9DOPE     P 1043   3.420   4.317  17.377 -0.1343 -0.3318  0.4486
    9DOPE   O13 1044   3.288   4.373  17.384  0.2762 -0.5591  0.6194
    9DOPE   O14 1045   3.435   4.194  17.451 -0.7252  0.7098  0.2289
    9DOPE   O11 1046   3.461   4.296  17.230 -0.4251  0.0081 -0.0563
    9DOPE   O12 1047   3.532   4.416  17.437 -0.2053 -0.0270 -0.1179
    9DOPE    C1 1048   3.577   4.225  17.186  0.1845 -0.1212 -0.5813
    9DOPE    HA 1049   3.571   4.125  17.234  4.0365  0.4597  1.5428
    9DOPE    HB 1050   3.669   4.277  17.221  0.9796 -1.3844 -0.7570
    9DOPE    C2 1051   3.598   4.215  17.032 -0.0492 -0.7661 -0.4672
    9DOPE    HS 1052   3.690   4.158  17.009 -0.9467 -1.5024 -2.5004
    9DOPE   O21 1053   3.583   4.340  16.973  0.7741 -0.1211  0.1949
    9DOPE   C21 1054   3.703   4.410  16.964 -0.0480 -0.0868 -0.6462
    9DOPE   O22 1055   3.811   4.368  16.997 -0.0049 -0.0644 -0.3140
    9DOPE   C22 1056   3.682   4.561  16.941  0.1056  0.9655  0.0142
    9DOPE   H2R 1057   3.719   4.619  17.028 -0.0316  1.1338 -0.0392
    9DOPE   H2S 1058   3.571   4.567  16.941  0.0375  0.0760  1.7864
    9DOPE    C3 1059   3.472   4.126  16.986 -0.3961 -0.6525  0.1405
    9DOPE    HX 1060   3.385   4.147  17.052  1.0291 -1.8024  2.4925
    9DOPE    HY 1061   3.502   4.027  17.026  3.2316  0.2900  0.0965
    9DOPE   O31 1062   3.451   4.117  16.841  0.1993  0.3829 -0.5447
    9DOPE   C31 1063   3.379   4.203  16.786  0.1253  0.8725  0.6745
    9DOPE   O32 1064   3.328   4.298  16.839  0.3942 -0.1403 -1.0776
    9DOPE   C32 1065   3.376   4.181  16.630 -0.2299 -0.7591  0.1084
    9DOPE   H2X 1066   3.369   4.284  16.589 -0.2181 -0.1589  1.5766
    9DOPE   H2Y 1067   3.474   4.136  16.603  0.7044  1.5863 -0.7159
    9DOPE   C23 1068   3.753   4.593  16.809  0.3114 -0.3913 -0.4280
    9DOPE   H3R 1069   3.862   4.575  16.798  0.3970 -0.6878  0.7876
    9DOPE   H3S 1070   3.740   4.703  16.799  1.6644  0.0986  2.2014
    9DOPE   C24 1071   3.680   4.537  16.684 -0.3134 -0.2183 -0.3265
    9DOPE   H4R 1072   3.580   4.584  16.671 -0.3330 -0.8248 -3.0362
    9DOPE   H4S 1073   3.663   4.429  16.701  1.8752 -0.2509  2.1707
    9DOPE   C25 1074   3.757   4.550  16.557  0.0932 -0.0281  0.3674
    9DOPE   H5R 1075   3.852   4.492  16.563 -0.6471 -1.6358 -2.1168
    9DOPE   H5S 1076   3.785   4.653  16.527 -1.6328 -0.1925 -1.9997
    9DOPE   C26 1077   3.675   4.492  16.437 -0.0011 -0.0220  0.0394
    9DOPE   H6R 1078   3.580   4.550  16.446  0.3485  0.3609  1.5344
    9DOPE   H6S 1079   3.649   4.387  16.462 -0.1447  0.6104  2.8995
    9DOPE   C27 1080   3.734   4.491  16.296 -0.2361 -0.1651  0.1281
    9DOPE   H7R 1081   3.832   4.440  16.308  0.5030  1.3897  1.1163
    9DOPE   H7S 1082   3.767   4.592  16.263  1.7382 -0.6709  0.3968
    9DOPE   C28 1083   3.653   4.403  16.196  0.4806  0.4485  0.7339
    9DOPE   H8R 1084   3.554   4.455  16.199  0.1621  0.0710 -1.6306
    9DOPE   H8S 1085   3.661   4.300  16.237 -0.5232  0.6203  1.4225
    9DOPE   C29 1086   3.708   4.416  16.058  0.0134 -0.0729  0.2917
    9DOPE   H9R 1087   3.710   4.517  16.014 -1.3493 -0.1179  0.0929
    9DOPE  C210 1088   3.727   4.314  15.968 -0.0794 -0.5025 -0.2387
    9DOPE  H10R 1089   3.747   4.334  15.862 -0.3289  0.1766 -0.1614
    9DOPE  C211 1090   3.706   4.167  15.996  0.2845  0.2300 -0.4294
    9DOPE  H11R 1091   3.624   4.154  16.070  2.0950  0.3775  1.6945
    9DOPE  H11S 1092   3.797   4.121  16.038  0.8511 -0.2383 -2.0738
    9DOPE  C212 1093   3.671   4.089  15.867 -0.7910  0.1734 -0.1661
    9DOPE  H12R 1094   3.609   4.151  15.799  0.7647 -0.1194 -1.9313
    9DOPE  H12S 1095   3.603   4.006  15.897 -2.5428  0.6780 -2.4756
    9DOPE  C213 1096   3.801   4.044  15.785 -0.3431  1.1537 -0.9185
    9DOPE  H13R 1097   3.866   3.975  15.843 -0.3587  0.6126 -1.5341
    9DOPE  H13S 1098   3.858   4.137  15.765  1.1813  0.3491 -0.4994
    9DOPE  C214 1099   3.760   3.978  15.654 -0.2337  0.8049 -0.2666
    9DOPE  H14R 1100   3.693   4.048  15.599  1.7113  1.0397 -2.4773
    9DOPE  H14S 1101   3.690   3.896  15.683 -1.2401  1.6221 -0.3207
    9DOPE  C215 1102   3.874   3.920  15.574  0.5529 -0.0912 -0.4879
    9DOPE  H15R 1103   3.904   3.828  15.628 -1.3573 -2.1805 -2.7990
    9DOPE  H15S 1104   3.953   3.998  15.583  0.6599 -0.2947  0.4731
    9DOPE  C216 1105   3.832   3.882  15.436  0.9647  0.0011  0.7896
    9DOPE  H16R 1106   3.903   3.812  15.386  1.3349  0.4941  0.6159
    9DOPE  H16S 1107   3.820   3.978  15.382 -1.5287  0.8829  2.7083
    9DOPE  C217 1108   3.691   3.811  15.421  0.1837 -0.1545 -0.6321
    9DOPE  H17R 1109   3.612   3.888  15.435  0.5297  0.3363 -1.3169
    9DOPE  H17S 1110   3.686   3.737  15.504 -2.4948  0.1607 -0.4156
    9DOPE  C218 1111   3.668   3.736  15.297  0.1457 -0.0101 -0.3841
    9DOPE  H18R 1112   3.746   3.657  15.289  0.9509  0.8818 -1.8011
    9DOPE  H18S 1113   3.690   3.799  15.207  2.7055  1.5437  1.1993
    9DOPE  H18T 1114   3.565   3.696  15.302 -1.6693  4.2542  1.8506
    9DOPE   C33 1115   3.257   4.095  16.577  0.3661 -0.2440 -0.3318
    9DOPE   H3X 1116   3.161   4.149  16.596 -0.3366 -1.6106  0.1427
    9DOPE   H3Y 1117   3.260   3.992  16.619  1.3313  0.3082  0.9959
    9DOPE   C34 1118   3.249   4.064  16.422  0.4390 -0.1846 -0.4114
    9DOPE   H4X 1119   3.324   3.986  16.400 -2.0260 -2.7926 -0.2158
    9DOPE   H4Y 1120   3.148   4.017  16.417  1.6459 -3.0125 -0.1408
    9DOPE   C35 1121   3.264   4.190  16.342 -0.7197 -0.0569  0.7567
    9DOPE   H5X 1122   3.362   4.238  16.363 -0.3583 -0.6508  0.4605
    9DOPE   H5Y 1123   3.178   4.256  16.368 -2.3677 -2.3403  1.4251
    9DOPE   C36 1124   3.227   4.160  16.196 -1.0415  0.5297 -0.6164
    9DOPE   H6X 1125   3.200   4.256  16.148  0.1618  1.2604  0.1010
    9DOPE   H6Y 1126   3.139   4.093  16.191 -0.6990  0.1150 -1.2837
    9DOPE   C37 1127   3.340   4.079  16.121 -0.0435 -1.0194 -0.0257
    9DOPE   H7X 1128   3.423   4.152  16.114 -1.3408  0.3828 -1.7680
    9DOPE   H7Y 1129   3.375   4.001  16.191 -0.7914 -1.3241  0.0192
    9DOPE   C38 1130   3.301   4.027  15.993  0.6925  0.8833  0.3090
    9DOPE   H8X 1131   3.205   3.972  16.003  1.2085  0.0154  0.5419
    9DOPE   H8Y 1132   3.372   3.944  15.973 -0.4752 -0.0401 -0.1579
    9DOPE   C39 1133   3.289   4.125  15.883  0.1901  0.1300  0.6751
    9DOPE   H9X 1134   3.334   4.224  15.904  0.9906 -0.3981  1.5264
    9DOPE  C310 1135   3.222   4.111  15.766 -0.3901 -0.4821  0.6276
    9DOPE  H10X 1136   3.195   4.194  15.698 -0.5504 -1.3899 -0.4426
    9DOPE  C311 1137   3.161   3.983  15.724 -0.0239  0.5025 -0.1687
    9DOPE  H11X 1138   3.128   3.915  15.805  1.2811 -0.2176 -0.2236
    9DOPE  H11Y 1139   3.072   4.006  15.661  1.9495  2.6817 -2.3523
    9DOPE  C312 1140   3.260   3.899  15.637 -0.7166 -0.3759 -0.0942
    9DOPE  H12X 1141   3.214   3.800  15.619 -0.4489 -0.2505 -1.6987
    9DOPE  H12Y 1142   3.356   3.878  15.689  0.2039  0.9068 -1.1757
    9DOPE  C313 1143   3.282   3.961  15.497 -0.6369  0.1336 -0.3527
    9DOPE  H13X 1144   3.192   4.018  15.468 -0.3502  0.4004 -0.7309
    9DOPE  H13Y 1145   3.362   4.038  15.509  0.5125 -0.9826 -0.6281
    9DOPE  C314 1146   3.326   3.869  15.388 -0.4431 -0.2722 -0.0607
    9DOPE  H14X 1147   3.404   3.806  15.437 -1.0435  0.4513  1.9476
    9DOPE  H14Y 1148   3.391   3.921  15.315  0.2415  0.4267  1.0104
    9DOPE  C315 1149   3.215   3.798  15.318  0.1584 -0.9974 -0.0927
    9DOPE  H15X 1150   3.154   3.751  15.399 -0.3235 -1.6301 -0.8056
    9DOPE  H15Y 1151   3.253   3.723  15.245  1.8977  2.1499 -2.6978
    9DOPE  C316 1152   3.124   3.888  15.225 -0.5152  0.3604  0.3757
    9DOPE  H16X 1153   3.182   3.926  15.138 -2.2124  2.2218 -0.0199
    9DOPE  H16Y 1154   3.078   3.974  15.278  0.3063  1.0999 -0.0793
    9DOPE  C317 1155   3.005   3.809  15.152  0.0166 -0.3871 -0.3090
    9DOPE  H17X 1156   2.953   3.741  15.223  0.8750  0.0101  0.7247
    9DOPE  H17Y 1157   2.936   3.888  15.115 -0.6860  0.4179  2.4472
    9DOPE  C318 1158   3.049   3.734  15.025  0.4358 -1.0586 -0.0008
    9DOPE  H18X 1159   3.106   3.643  15.051  0.4751 -1.4572 -1.4011
    9DOPE  H18Y 1160   2.966   3.695  14.962 -1.5769  0.6737  1.4450
    9DOPE  H18Z 1161   3.114   3.798  14.961 -0.5305  0.0500  0.0969
   10DOPE     N 1162   3.122   6.705  17.466  0.6488 -0.1905 -0.2641
   10DOPE   HN1 1163   3.193   6.647  17.415  0.0104 -0.8109 -0.4654
   10DOPE   HN2 1164   3.069   6.636  17.522  2.1934 -1.1246  0.1239
   10DOPE   HN3 1165   3.060   6.760  17.403  0.8780  0.5295  0.1284
   10DOPE   C12 1166   3.183   6.800  17.565 -0.6065 -0.0200 -0.2326
   10DOPE  H12A 1167   3.099   6.846  17.622 -1.0403 -1.0994  0.0397
   10DOPE  H12B 1168   3.224   6.885  17.507 -1.4482  0.6296  0.1181
   10DOPE   C11 1169   3.279   6.738  17.666 -0.5028  0.3488  0.2433
   10DOPE  H11A 1170   3.210   6.686  17.736  0.4081  1.3599  1.9514
   10DOPE  H11B 1171   3.336   6.817  17.720 -0.4140  0.3111  0.2052
   10DOPE     P 1172   3.474   6.571  17.694 -0.0093  0.0554  0.2304
   10DOPE   O13 1173   3.493   6.430  17.650  0.0988  0.2076  0.1509
   10DOPE   O14 1174   3.446   6.593  17.838 -0.6896 -0.2362  0.0296
   10DOPE   O11 1175   3.609   6.652  17.665 -0.1728 -0.2281  0.3713
   10DOPE   O12 1176   3.372   6.644  17.601  0.3306 -0.0560 -0.3525
   10DOPE    C1 1177   3.639   6.712  17.544  0.5330  0.2921 -0.2163
   10DOPE    HA 1178   3.723   6.780  17.571 -0.0625  0.8146  0.3735
   10DOPE    HB 1179   3.558   6.783  17.513  0.3737  0.8854  1.4784
   10DOPE    C2 1180   3.682   6.607  17.433  0.5638  0.7763  0.0442
   10DOPE    HS 1181   3.589   6.571  17.383 -0.8064  1.2857  2.1054
   10DOPE   O21 1182   3.755   6.492  17.485 -0.0464 -0.6135  0.1303
   10DOPE   C21 1183   3.734   6.377  17.411  0.3093 -0.4167  0.2390
   10DOPE   O22 1184   3.657   6.370  17.317 -0.0696 -0.1665 -0.3699
   10DOPE   C22 1185   3.821   6.260  17.464 -0.0025 -0.3307  1.0346
   10DOPE   H2R 1186   3.788   6.242  17.569 -4.1095 -0.6436 -0.1128
   10DOPE   H2S 1187   3.928   6.284  17.453  0.1749 -2.1947 -3.0227
   10DOPE    C3 1188   3.761   6.681  17.327  0.1799  0.5401  0.2702
   10DOPE    HX 1189   3.858   6.707  17.373 -0.2765  0.2433  1.4386
   10DOPE    HY 1190   3.718   6.780  17.299  0.9359  0.2050 -2.3436
   10DOPE   O31 1191   3.784   6.603  17.209 -0.0894  0.2062 -0.7320
   10DOPE   C31 1192   3.691   6.616  17.110 -0.5056  0.3674 -1.2176
   10DOPE   O32 1193   3.582   6.671  17.125  0.2457 -0.3924  0.6866
   10DOPE   C32 1194   3.733   6.534  16.984  0.8783  0.3349  0.3953
   10DOPE   H2X 1195   3.841   6.510  16.992  0.7434 -0.6833 -0.5630
   10DOPE   H2Y 1196   3.681   6.437  17.000 -0.2818  0.9953  0.7203
   10DOPE   C23 1197   3.806   6.125  17.392  0.5670  0.3387  0.5054
   10DOPE   H3R 1198   3.696   6.108  17.385  0.5225  0.2322  1.4276
   10DOPE   H3S 1199   3.850   6.054  17.465  0.7470  2.2911  2.4024
   10DOPE   C24 1200   3.877   6.115  17.254  0.4521  0.0374 -0.5540
   10DOPE   H4R 1201   3.987   6.131  17.263  0.4174  0.3895 -0.7253
   10DOPE   H4S 1202   3.839   6.187  17.178  2.0448 -0.1520 -1.5713
   10DOPE   C25 1203   3.865   5.977  17.195  0.1964  0.3746  0.1747
   10DOPE   H5R 1204   3.757   5.960  17.178  0.1020  0.0897  1.0484
   10DOPE   H5S 1205   3.906   5.906  17.269  1.1313  1.1920  0.4638
   10DOPE   C26 1206   3.954   5.961  17.066 -0.1927  0.3246 -0.9835
   10DOPE   H6R 1207   3.934   5.854  17.041 -2.1572  0.1742  0.9440
   10DOPE   H6S 1208   4.056   5.981  17.106 -1.1277 -1.0783  2.5501
   10DOPE   C27 1209   3.929   6.056  16.946 -0.3257  0.1231 -0.0261
   10DOPE   H7R 1210   3.935   6.165  16.966 -1.0964  0.3973 -1.2312
   10DOPE   H7S 1211   3.827   6.046  16.904  0.1604  1.3346 -1.5530
   10DOPE   C28 1212   4.028   6.043  16.826 -0.0728  0.0337 -0.9000
   10DOPE   H8R 1213   4.133   6.069  16.854 -0.1208 -0.1087 -0.5778
   10DOPE   H8S 1214   3.991   6.118  16.753 -0.1221 -0.8784 -1.8403
   10DOPE   C29 1215   4.017   5.904  16.777 -0.2020 -0.4321  0.4343
   10DOPE   H9R 1216   4.103   5.847  16.816  1.2745  1.1722 -0.3497
   10DOPE  C210 1217   3.937   5.853  16.684 -0.2156 -0.4439 -0.3369
   10DOPE  H10R 1218   3.935   5.744  16.667 -0.5334 -0.4901 -0.0237
   10DOPE  C211 1219   3.839   5.927  16.594  0.0012 -0.2123  0.4524
   10DOPE  H11R 1220   3.838   6.037  16.603  0.4181  0.0694 -2.0884
   10DOPE  H11S 1221   3.735   5.898  16.620 -0.1945 -1.3756 -1.3744
   10DOPE  C212 1222   3.848   5.893  16.442  0.4153 -0.5691  0.6308
   10DOPE  H12R 1223   3.844   5.782  16.435 -1.8645 -0.4944 -0.2765
   10DOPE  H12S 1224   3.949   5.915  16.401  0.0135  0.3166  0.0748
   10DOPE  C213 1225   3.743   5.963  16.350 -0.5526 -0.2763 -0.0951
   10DOPE  H13R 1226   3.718   6.059  16.401 -1.0159 -2.0344  3.3229
   10DOPE  H13S 1227   3.652   5.900  16.364 -2.2599  1.6739 -1.6550
   10DOPE  C214 1228   3.766   5.982  16.197  0.5329  0.1837 -0.3878
   10DOPE  H14R 1229   3.855   6.048  16.193 -0.6579  2.0266  1.5908
   10DOPE  H14S 1230   3.676   6.031  16.154  0.7012  0.4954 -0.3815
   10DOPE  C215 1231   3.801   5.854  16.111  0.6680 -0.0779 -0.1170
   10DOPE  H15R 1232   3.721   5.781  16.134 -2.3080  3.2633  1.0553
   10DOPE  H15S 1233   3.895   5.817  16.158 -0.5633 -1.5615  1.2558
   10DOPE  C216 1234   3.818   5.881  15.965  0.3263 -0.4902 -0.2836
   10DOPE  H16R 1235   3.906   5.948  15.950  0.2699 -0.8242 -2.3829
   10DOPE  H16S 1236   3.728   5.935  15.928 -0.0697 -1.2131 -0.3961
   10DOPE  C217 1237   3.829   5.755  15.885 -0.9499  0.1755  0.4612
   10DOPE  H17R 1238   3.759   5.681  15.930  0.5931 -2.3867 -1.1137
   10DOPE  H17S 1239   3.931   5.714  15.902 -0.3540  1.8302  1.0658
   10DOPE  C218 1240   3.794   5.774  15.737 -0.1416 -0.3624 -0.2240
   10DOPE  H18R 1241   3.859   5.849  15.688 -0.9801  0.2640 -0.4137
   10DOPE  H18S 1242   3.697   5.826  15.718  0.2706  0.4298 -0.2052
   10DOPE  H18T 1243   3.807   5.679  15.682  2.1030  0.1645 -0.7074
   10DOPE   C33 1244   3.704   6.601  16.841 -0.6875  0.1243 -1.0605
   10DOPE   H3X 1245   3.779   6.678  16.811 -1.1346  1.2440  0.5603
   10DOPE   H3Y 1246   3.611   6.659  16.859  0.2321  0.9369  1.6448
   10DOPE   C34 1247   3.695   6.500  16.732 -0.5684  1.3869  0.0124
   10DOPE   H4X 1248   3.624   6.419  16.763  0.8235  0.3753  0.7072
   10DOPE   H4Y 1249   3.661   6.544  16.636 -2.5345  0.9670  0.4797
   10DOPE   C35 1250   3.827   6.434  16.702 -1.1967  0.4851  0.2308
   10DOPE   H5X 1251   3.869   6.369  16.783 -1.5283  0.1557  0.1442
   10DOPE   H5Y 1252   3.907   6.507  16.680 -0.7758  0.1072  0.4777
   10DOPE   C36 1253   3.835   6.348  16.573 -1.1585 -0.8331  0.7324
   10DOPE   H6X 1254   3.775   6.391  16.490 -0.6956 -1.1890  0.2061
   10DOPE   H6Y 1255   3.802   6.243  16.587 -1.5142 -0.8446 -0.1403
   10DOPE   C37 1256   3.981   6.346  16.525  0.3169  0.0655 -0.6043
   10DOPE   H7X 1257   4.016   6.451  16.517  0.9193 -0.2339 -2.3162
   10DOPE   H7Y 1258   4.034   6.282  16.599 -0.5661 -1.2921 -1.1257
   10DOPE   C38 1259   3.983   6.265  16.394  0.9842 -0.2164  0.5376
   10DOPE   H8X 1260   3.905   6.309  16.329  0.6204 -2.6421 -0.8111
   10DOPE   H8Y 1261   3.948   6.160  16.409  1.2539 -0.1045  2.0224
   10DOPE   C39 1262   4.115   6.255  16.321  0.0465 -0.8150  0.2770
   10DOPE   H9X 1263   4.172   6.167  16.356 -1.2859 -2.6154 -1.7703
   10DOPE  C310 1264   4.157   6.339  16.218 -0.1803  0.2147 -0.0727
   10DOPE  H10X 1265   4.257   6.331  16.173  0.1679 -1.2507  0.8575
   10DOPE  C311 1266   4.084   6.462  16.160 -0.6147  0.3561  0.4329
   10DOPE  H11X 1267   3.991   6.487  16.215 -1.2461  2.3954 -1.4130
   10DOPE  H11Y 1268   4.148   6.553  16.154 -0.1924 -0.0241 -2.3306
   10DOPE  C312 1269   4.054   6.418  16.015 -0.3031 -0.3363  0.0992
   10DOPE  H12X 1270   4.007   6.317  16.012  1.0236 -0.9766 -2.3612
   10DOPE  H12Y 1271   4.152   6.409  15.963 -0.9316  1.2821 -1.4728
   10DOPE  C313 1272   3.968   6.514  15.936  0.9626 -0.4833 -0.0621
   10DOPE  H13X 1273   3.868   6.534  15.980  0.2969 -1.7188 -0.9598
   10DOPE  H13Y 1274   4.013   6.616  15.932 -2.0682  0.9804 -0.2999
   10DOPE  C314 1275   3.945   6.472  15.785  0.0574 -0.3503 -0.1982
   10DOPE  H14X 1276   3.878   6.384  15.771  0.3370 -0.3784 -1.4314
   10DOPE  H14Y 1277   4.043   6.452  15.738 -0.9624 -2.7038 -1.5246
   10DOPE  C315 1278   3.875   6.585  15.708 -0.3485 -0.0851  0.4320
   10DOPE  H15X 1279   3.938   6.673  15.734  1.1703 -0.2308 -2.3108
   10DOPE  H15Y 1280   3.770   6.592  15.746 -0.5236 -1.6018  0.2682
   10DOPE  C316 1281   3.886   6.579  15.555  0.1078  0.1100  0.0352
   10DOPE  H16X 1282   3.992   6.570  15.523  0.2374 -1.9708  0.9033
   10DOPE  H16Y 1283   3.845   6.667  15.500  0.0414  0.3228  0.4257
   10DOPE  C317 1284   3.816   6.459  15.485  0.4707  0.0628 -0.5723
   10DOPE  H17X 1285   3.851   6.364  15.531 -0.0173  0.1598  0.0064
   10DOPE  H17Y 1286   3.707   6.462  15.509 -0.0853  0.0665 -2.7827
   10DOPE  C318 1287   3.840   6.461  15.343 -0.2997  0.9969  0.1419
   10DOPE  H18X 1288   3.949   6.473  15.326 -0.0884 -1.7368 -0.9485
   10DOPE  H18Y 1289   3.807   6.367  15.293 -0.0284  0.2213  1.3705
   10DOPE  H18Z 1290   3.785   6.543  15.292 -1.4376  1.0396  1.4164
   11DOPE     N 1291   4.485   2.019  17.356  0.9205  0.1317 -0.1950
   11DOPE   HN1 1292   4.399   2.021  17.415 -0.2610 -0.2031 -1.8287
   11DOPE   HN2 1293   4.551   2.075  17.414  0.3782  1.0891 -0.4790
   11DOPE   HN3 1294   4.461   2.062  17.264  0.3516  0.0636 -0.0833
   11DOPE   C12 1295   4.550   1.878  17.347 -0.0490 -0.5700 -0.3682
   11DOPE  H12A 1296   4.548   1.834  17.449 -0.9905 -1.2714 -0.6689
   11DOPE  H12B 1297   4.651   1.895  17.305  1.0391 -3.5456  0.7710
   11DOPE   C11 1298   4.476   1.781  17.252  0.2169  0.0177  0.0876
   11DOPE  H11A 1299   4.524   1.682  17.268  1.0617 -0.1928 -3.1206
   11DOPE  H11B 1300   4.486   1.795  17.143 -0.1654 -0.1322  0.0336
   11DOPE     P 1301   4.237   1.681  17.223  0.3201  0.0172 -0.1598
   11DOPE   O13 1302   4.107   1.681  17.303  0.5547  0.0366 -0.0997
   11DOPE   O14 1303   4.309   1.558  17.197  0.4502 -0.1128 -0.8965
   11DOPE   O11 1304   4.208   1.745  17.086  0.1957 -0.8385 -0.2313
   11DOPE   O12 1305   4.339   1.781  17.292  0.4513 -0.2133 -0.3476
   11DOPE    C1 1306   4.214   1.885  17.051  0.4610 -0.1938 -0.5579
   11DOPE    HA 1307   4.319   1.920  17.052  0.1860  0.6733 -0.9024
   11DOPE    HB 1308   4.157   1.955  17.117  0.8182  1.7187 -2.1920
   11DOPE    C2 1309   4.165   1.906  16.907 -0.7167  0.4003  0.0885
   11DOPE    HS 1310   4.194   2.011  16.883  0.4039  0.1896  0.4851
   11DOPE   O21 1311   4.019   1.884  16.898 -0.0086  0.1201 -0.1306
   11DOPE   C21 1312   3.946   1.999  16.921  0.3411 -0.2043  0.0478
   11DOPE   O22 1313   4.004   2.098  16.961  0.5812 -0.5202 -0.2882
   11DOPE   C22 1314   3.802   1.983  16.871 -1.1297  0.4393  0.1445
   11DOPE   H2R 1315   3.763   1.894  16.924 -1.8796  0.1406 -0.8775
   11DOPE   H2S 1316   3.808   1.970  16.760 -2.2630  0.2841  0.0925
   11DOPE    C3 1317   4.233   1.813  16.807 -0.1331 -0.0301  0.7512
   11DOPE    HX 1318   4.196   1.711  16.828  1.8365 -0.7240  1.0233
   11DOPE    HY 1319   4.341   1.820  16.832  0.2994 -1.8122 -0.4674
   11DOPE   O31 1320   4.211   1.841  16.665 -0.2505  0.1285  0.3610
   11DOPE   C31 1321   4.304   1.790  16.587  0.3173 -0.6443  0.2670
   11DOPE   O32 1322   4.399   1.725  16.633  0.2868 -0.2589 -0.1633
   11DOPE   C32 1323   4.273   1.837  16.440  0.0793  0.2380 -0.3785
   11DOPE   H2X 1324   4.164   1.856  16.433  0.5590  2.9843 -1.8720
   11DOPE   H2Y 1325   4.324   1.934  16.418  0.1435  0.4590  0.7106
   11DOPE   C23 1326   3.720   2.110  16.898 -0.2003  0.4899 -0.6702
   11DOPE   H3R 1327   3.737   2.149  17.001 -0.9242 -0.5223 -0.1547
   11DOPE   H3S 1328   3.614   2.077  16.907  0.0740 -0.0232  0.8940
   11DOPE   C24 1329   3.741   2.221  16.794 -0.5943  0.2068 -0.1549
   11DOPE   H4R 1330   3.686   2.193  16.701  0.2429  2.4643 -1.4121
   11DOPE   H4S 1331   3.845   2.212  16.756  0.1770  0.9436  1.6900
   11DOPE   C25 1332   3.713   2.360  16.853  0.1179 -0.6022  0.0707
   11DOPE   H5R 1333   3.789   2.386  16.929  0.0873 -0.4091  0.0353
   11DOPE   H5S 1334   3.617   2.351  16.909  0.2878 -0.5318  0.3699
   11DOPE   C26 1335   3.691   2.470  16.749  0.0780  0.2131  0.1927
   11DOPE   H6R 1336   3.776   2.488  16.680 -0.4204 -2.6823 -1.2985
   11DOPE   H6S 1337   3.673   2.567  16.801  2.2653  0.9094 -0.2733
   11DOPE   C27 1338   3.568   2.442  16.657  0.1244  0.5523 -0.1173
   11DOPE   H7R 1339   3.475   2.453  16.717 -0.2612 -1.0900 -0.3644
   11DOPE   H7S 1340   3.568   2.339  16.616  0.2476 -0.8446  3.1211
   11DOPE   C28 1341   3.568   2.544  16.538 -0.3862 -0.3271 -0.3739
   11DOPE   H8R 1342   3.662   2.525  16.480  0.9049 -0.7791  1.7690
   11DOPE   H8S 1343   3.563   2.643  16.588 -0.5208 -0.7177  0.3887
   11DOPE   C29 1344   3.456   2.518  16.438 -0.0311 -0.3062  0.5570
   11DOPE   H9R 1345   3.445   2.412  16.410  0.3759  0.2055 -1.8085
   11DOPE  C210 1346   3.376   2.610  16.380  0.0653 -0.7032  0.3225
   11DOPE  H10R 1347   3.305   2.584  16.300 -0.0626 -2.1543  0.8684
   11DOPE  C211 1348   3.396   2.765  16.400 -0.5354  0.8115  0.3472
   11DOPE  H11R 1349   3.476   2.796  16.470 -0.0657 -0.2401  0.2929
   11DOPE  H11S 1350   3.298   2.810  16.427 -0.7480  0.8965 -0.5234
   11DOPE  C212 1351   3.443   2.821  16.265  0.1435  0.1986 -0.5690
   11DOPE  H12R 1352   3.389   2.775  16.180  0.4910  0.3033 -0.8530
   11DOPE  H12S 1353   3.549   2.794  16.241  0.1393 -0.8922  0.5100
   11DOPE  C213 1354   3.438   2.976  16.248 -0.5061  0.4999  0.2824
   11DOPE  H13R 1355   3.498   3.009  16.335  1.8530 -0.5342 -0.8539
   11DOPE  H13S 1356   3.330   3.002  16.242 -0.4503  0.5912 -0.4035
   11DOPE  C214 1357   3.508   3.040  16.122 -0.0861 -0.4724 -0.2247
   11DOPE  H14R 1358   3.616   3.065  16.127  0.0011 -0.1000 -2.6559
   11DOPE  H14S 1359   3.466   3.143  16.118 -0.9801 -0.8352 -0.3496
   11DOPE  C215 1360   3.471   2.974  15.988  0.7161  0.0612 -0.5910
   11DOPE  H15R 1361   3.378   2.913  15.991  1.7942 -1.6125 -0.2621
   11DOPE  H15S 1362   3.552   2.902  15.965 -0.7350 -0.9435 -2.9521
   11DOPE  C216 1363   3.480   3.064  15.866  0.9277  0.3802  0.5065
   11DOPE  H16R 1364   3.549   3.147  15.894  0.6231  0.5177  0.8664
   11DOPE  H16S 1365   3.374   3.095  15.850  0.3099 -1.5392  0.6719
   11DOPE  C217 1366   3.532   3.011  15.729  0.3873  0.2896 -0.4216
   11DOPE  H17R 1367   3.473   2.922  15.697 -0.0048  0.6991 -0.8622
   11DOPE  H17S 1368   3.631   2.969  15.757  0.3718  1.2767  1.2064
   11DOPE  C218 1369   3.537   3.117  15.620  0.4014 -0.5370 -0.1026
   11DOPE  H18R 1370   3.436   3.164  15.613  0.3596 -0.3696  1.3411
   11DOPE  H18S 1371   3.563   3.076  15.520  1.0874  1.1302 -0.6516
   11DOPE  H18T 1372   3.608   3.201  15.639  0.5499 -0.7051  0.0954
   11DOPE   C33 1373   4.313   1.733  16.331 -0.3400 -0.5747  0.2536
   11DOPE   H3X 1374   4.248   1.647  16.359 -0.7273 -0.8523 -1.3677
   11DOPE   H3Y 1375   4.419   1.710  16.354  0.0714  2.0300  1.3610
   11DOPE   C34 1376   4.291   1.775  16.189 -0.4600  0.2266  0.3362
   11DOPE   H4X 1377   4.296   1.688  16.121 -1.6585  1.6105 -1.6453
   11DOPE   H4Y 1378   4.191   1.823  16.174 -0.1901  0.9757  0.8524
   11DOPE   C35 1379   4.385   1.890  16.137  0.3614  0.6906 -0.0373
   11DOPE   H5X 1380   4.492   1.863  16.131  0.0435 -0.4741 -0.9083
   11DOPE   H5Y 1381   4.379   1.979  16.202 -2.0644  0.2573  0.4534
   11DOPE   C36 1382   4.349   1.934  15.996  0.2191 -0.6322 -0.6607
   11DOPE   H6X 1383   4.420   2.017  15.973  1.6225 -1.8655 -0.9057
   11DOPE   H6Y 1384   4.244   1.970  16.000  0.3192 -0.4190  0.1732
   11DOPE   C37 1385   4.369   1.830  15.887  0.1644 -0.2906 -0.7041
   11DOPE   H7X 1386   4.476   1.800  15.890  0.8772  2.0359 -1.2272
   11DOPE   H7Y 1387   4.314   1.738  15.917 -0.0148  0.0976  0.2114
   11DOPE   C38 1388   4.316   1.864  15.751  0.2091  0.0689  0.8974
   11DOPE   H8X 1389   4.219   1.915  15.768 -1.0986 -2.7498  2.7051
   11DOPE   H8Y 1390   4.290   1.771  15.696 -0.9727 -0.0561  1.6243
   11DOPE   C39 1391   4.404   1.955  15.678  0.3622  0.2501 -0.5022
   11DOPE   H9X 1392   4.451   2.031  15.742  0.0782  0.7187 -0.8456
   11DOPE  C310 1393   4.461   1.952  15.558 -0.4270  0.5448  0.7109
   11DOPE  H10X 1394   4.517   2.039  15.519 -0.0658 -1.2504 -3.2288
   11DOPE  C311 1395   4.438   1.855  15.443 -0.2200  0.1143 -0.5040
   11DOPE  H11X 1396   4.540   1.823  15.415 -0.2637  1.0276 -1.8100
   11DOPE  H11Y 1397   4.381   1.769  15.483 -0.4297 -0.4887 -2.0518
   11DOPE  C312 1398   4.381   1.926  15.318  1.1025  0.4994  0.3373
   11DOPE  H12X 1399   4.448   2.009  15.288  1.4587 -0.4545 -1.6761
   11DOPE  H12Y 1400   4.274   1.956  15.327  1.0922  0.4388  0.4159
   11DOPE  C313 1401   4.384   1.822  15.202  0.7920 -0.3988 -0.6351
   11DOPE  H13X 1402   4.490   1.790  15.197  0.9615 -0.4191  1.9802
   11DOPE  H13Y 1403   4.319   1.733  15.218  0.2924  0.2200  0.9861
   11DOPE  C314 1404   4.325   1.876  15.068 -0.3268 -0.3809  0.7260
   11DOPE  H14X 1405   4.222   1.916  15.079 -0.4961 -0.4362 -0.5651
   11DOPE  H14Y 1406   4.311   1.791  14.999 -1.5867  0.1389  0.3273
   11DOPE  C315 1407   4.425   1.976  14.997 -0.2931  0.8474  0.6551
   11DOPE  H15X 1408   4.509   1.906  14.978 -0.1793  0.9088  0.9240
   11DOPE  H15Y 1409   4.465   2.057  15.062 -1.2323  0.9061  1.1938
   11DOPE  C316 1410   4.375   2.036  14.861 -0.1614  0.6004  0.3291
   11DOPE  H16X 1411   4.459   2.104  14.835 -1.6882  2.5022  0.1458
   11DOPE  H16Y 1412   4.292   2.108  14.876 -1.4722 -0.3964 -1.6800
   11DOPE  C317 1413   4.338   1.936  14.745 -0.2088 -0.7684 -0.3213
   11DOPE  H17X 1414   4.247   1.881  14.777  0.0095  0.3999  2.6570
   11DOPE  H17Y 1415   4.301   1.999  14.661  1.3747  0.7303  0.0321
   11DOPE  C318 1416   4.446   1.853  14.684  0.7754 -0.3593 -0.0100
   11DOPE  H18X 1417   4.478   1.786  14.768 -0.3029 -0.6746  0.1691
   11DOPE  H18Y 1418   4.416   1.788  14.600 -0.2284 -0.2738  0.2683
   11DOPE  H18Z 1419   4.524   1.917  14.638  1.8824 -1.3772  0.3953
   12DOPE     N 1420   5.875   6.534  17.621  0.1101  0.3738 -0.3003
   12DOPE   HN1 1421   5.780   6.506  17.586 -0.4703 -0.8415  2.0366
   12DOPE   HN2 1422   5.863   6.548  17.723 -0.0722  0.6245 -0.3564
   12DOPE   HN3 1423   5.903   6.625  17.581  0.8503  0.7341  0.9827
   12DOPE   C12 1424   5.987   6.436  17.580 -0.1961 -0.4283  0.0799
   12DOPE  H12A 1425   6.075   6.470  17.638 -0.5337 -0.5302  0.6547
   12DOPE  H12B 1426   6.020   6.447  17.474 -1.0136 -0.0372 -0.1394
   12DOPE   C11 1427   5.946   6.300  17.640 -0.0339  0.4279 -0.3323
   12DOPE  H11A 1428   5.907   6.316  17.743  1.5653  2.3200  0.0341
   12DOPE  H11B 1429   6.037   6.236  17.651 -0.0894 -0.5840 -4.1789
   12DOPE     P 1430   5.862   6.090  17.511  0.2740  0.1090 -0.1901
   12DOPE   O13 1431   5.755   6.056  17.414  0.1309  0.0903 -0.3590
   12DOPE   O14 1432   5.860   6.004  17.631 -0.0850  0.0378  0.0766
   12DOPE   O11 1433   6.008   6.079  17.448  0.5928 -0.5536 -0.3705
   12DOPE   O12 1434   5.844   6.239  17.559  0.8256 -0.0349 -0.1253
   12DOPE    C1 1435   6.031   6.146  17.316  0.2671 -0.0394 -0.5005
   12DOPE    HA 1436   6.023   6.256  17.321 -1.5660 -0.1281 -0.7258
   12DOPE    HB 1437   5.967   6.099  17.238  1.8173 -2.4654 -0.4249
   12DOPE    C2 1438   6.176   6.111  17.279  0.2945  0.1308  0.0960
   12DOPE    HS 1439   6.241   6.139  17.364  2.0750 -0.9061 -0.8513
   12DOPE   O21 1440   6.205   6.190  17.160 -0.4330  0.3868 -0.8700
   12DOPE   C21 1441   6.320   6.197  17.103  0.1362  0.2623  0.1493
   12DOPE   O22 1442   6.430   6.164  17.141 -0.7338  0.7250 -0.3014
   12DOPE   C22 1443   6.296   6.265  16.969 -0.1578 -0.0169  0.1426
   12DOPE   H2R 1444   6.397   6.295  16.933  0.0919  0.5118  1.2246
   12DOPE   H2S 1445   6.263   6.368  16.995  2.1629  0.1537  2.9033
   12DOPE    C3 1446   6.199   5.960  17.251 -0.2895  0.3570  0.3467
   12DOPE    HX 1447   6.165   5.906  17.342  0.9147  2.3553  2.0650
   12DOPE    HY 1448   6.309   5.948  17.251 -0.1583  1.3558  1.7501
   12DOPE   O31 1449   6.152   5.914  17.127  0.5088  0.4036  0.6062
   12DOPE   C31 1450   6.043   5.841  17.129 -0.1353 -0.6787  0.2299
   12DOPE   O32 1451   5.970   5.818  17.224 -0.2466  0.0161  0.1563
   12DOPE   C32 1452   6.027   5.789  16.982  0.5035 -0.4094 -0.9503
   12DOPE   H2X 1453   5.956   5.864  16.942 -1.4849 -0.1434  2.7078
   12DOPE   H2Y 1454   6.125   5.809  16.933 -0.6414  1.3386 -2.6840
   12DOPE   C23 1455   6.207   6.191  16.873  0.4171  0.7385 -0.4284
   12DOPE   H3R 1456   6.171   6.259  16.793 -0.3131 -0.2996 -1.0062
   12DOPE   H3S 1457   6.113   6.160  16.923  0.2034  0.6752 -0.8633
   12DOPE   C24 1458   6.282   6.072  16.822 -0.3578  0.1627  0.1840
   12DOPE   H4R 1459   6.289   5.998  16.905  0.2251  0.1752  0.1520
   12DOPE   H4S 1460   6.383   6.092  16.780 -0.5817  0.6803 -0.1125
   12DOPE   C25 1461   6.196   5.997  16.718 -0.1214  0.7472 -0.0878
   12DOPE   H5R 1462   6.181   6.071  16.637 -0.0026  2.4815  1.4168
   12DOPE   H5S 1463   6.102   5.950  16.753  1.2614 -2.7886 -0.7170
   12DOPE   C26 1464   6.272   5.875  16.657  0.4747 -0.4311  0.5787
   12DOPE   H6R 1465   6.285   5.789  16.726 -1.4161 -1.6750 -0.5214
   12DOPE   H6S 1466   6.369   5.916  16.620 -0.6386  0.0976 -1.9982
   12DOPE   C27 1467   6.209   5.818  16.529 -0.2901  0.2952 -0.1591
   12DOPE   H7R 1468   6.106   5.785  16.552 -0.8818  0.9889 -1.6796
   12DOPE   H7S 1469   6.267   5.729  16.496  2.8928  2.7020 -1.6368
   12DOPE   C28 1470   6.208   5.922  16.419 -0.5859 -0.0804  0.4657
   12DOPE   H8R 1471   6.312   5.961  16.409  0.4885 -2.2296  2.2130
   12DOPE   H8S 1472   6.138   6.004  16.445  2.1682  2.9445 -0.8602
   12DOPE   C29 1473   6.163   5.860  16.295 -0.8500  0.3402 -0.1367
   12DOPE   H9R 1474   6.053   5.861  16.286 -0.7839  1.2247 -1.0012
   12DOPE  C210 1475   6.238   5.827  16.189  0.1420  0.2862 -0.2560
   12DOPE  H10R 1476   6.181   5.789  16.103 -1.2756  0.6152  0.5085
   12DOPE  C211 1477   6.387   5.830  16.170 -0.4039 -0.8890  0.1232
   12DOPE  H11R 1478   6.432   5.843  16.271 -1.1732 -0.9204  0.4843
   12DOPE  H11S 1479   6.411   5.923  16.115 -2.0568  1.4022  2.9500
   12DOPE  C212 1480   6.452   5.708  16.103 -0.5442 -0.3000  0.9936
   12DOPE  H12R 1481   6.439   5.614  16.161  0.4146  0.2502  2.1369
   12DOPE  H12S 1482   6.562   5.723  16.105 -0.6236  0.4567  0.0395
   12DOPE  C213 1483   6.415   5.681  15.956  0.5070  0.2152  1.0279
   12DOPE  H13R 1484   6.309   5.648  15.965  0.3083  0.4659 -0.1641
   12DOPE  H13S 1485   6.476   5.595  15.921 -0.7456 -0.0061 -0.7264
   12DOPE  C214 1486   6.439   5.797  15.861 -0.4013 -0.1896  0.3231
   12DOPE  H14R 1487   6.537   5.847  15.878 -0.2208 -0.3847 -0.1135
   12DOPE  H14S 1488   6.358   5.872  15.873  0.2313  0.1343  3.3848
   12DOPE  C215 1489   6.450   5.751  15.715  0.3220  0.0563  0.1357
   12DOPE  H15R 1490   6.511   5.659  15.700  1.6110  1.0101 -0.7094
   12DOPE  H15S 1491   6.500   5.828  15.653 -1.5074 -0.6969 -2.4297
   12DOPE  C216 1492   6.308   5.732  15.652 -0.0592 -0.0794  0.2198
   12DOPE  H16R 1493   6.262   5.634  15.674  1.5700 -1.7397 -3.0179
   12DOPE  H16S 1494   6.331   5.725  15.543 -3.0168  3.9101 -0.9352
   12DOPE  C217 1495   6.197   5.835  15.662  0.3552  0.7310 -0.6178
   12DOPE  H17R 1496   6.222   5.941  15.643  0.5040  0.7617 -0.2595
   12DOPE  H17S 1497   6.182   5.829  15.772  1.1462 -2.6799 -0.5698
   12DOPE  C218 1498   6.070   5.785  15.606  0.3744  0.5647 -0.0388
   12DOPE  H18R 1499   6.011   5.847  15.535  1.1426  0.2376 -0.9829
   12DOPE  H18S 1500   5.996   5.765  15.686  1.2743  1.0666  0.9535
   12DOPE  H18T 1501   6.085   5.689  15.552 -0.3972  0.6007 -0.3335
   12DOPE   C33 1502   5.977   5.646  16.971  0.4013  0.2677 -0.1864
   12DOPE   H3X 1503   5.970   5.605  17.074 -0.2759  0.7299 -0.0433
   12DOPE   H3Y 1504   6.044   5.578  16.915 -2.4921 -3.0090  0.0010
   12DOPE   C34 1505   5.848   5.631  16.897  0.7003 -0.5910 -0.1438
   12DOPE   H4X 1506   5.811   5.527  16.886  0.8640 -0.4252 -2.7150
   12DOPE   H4Y 1507   5.771   5.690  16.952  1.4265 -1.8653  2.4455
   12DOPE   C35 1508   5.865   5.691  16.748 -0.5722  0.4721 -0.9506
   12DOPE   H5X 1509   5.967   5.661  16.715  0.1367 -0.6376  1.9215
   12DOPE   H5Y 1510   5.861   5.802  16.753 -2.8517  0.4347 -1.1471
   12DOPE   C36 1511   5.761   5.635  16.652 -0.0707 -0.1236  0.2487
   12DOPE   H6X 1512   5.664   5.673  16.693 -0.1319  0.0665 -0.0666
   12DOPE   H6Y 1513   5.738   5.527  16.642 -0.0111 -0.2961  1.7390
   12DOPE   C37 1514   5.767   5.694  16.512 -0.5573  0.3039  1.3400
   12DOPE   H7X 1515   5.755   5.804  16.510 -0.5654  0.3109 -0.7008
   12DOPE   H7Y 1516   5.871   5.672  16.479 -0.8230  0.9880 -0.0143
   12DOPE   C38 1517   5.666   5.633  16.411 -0.2461  0.4831  0.6771
   12DOPE   H8X 1518   5.671   5.684  16.312  0.9943 -1.4794 -0.3285
   12DOPE   H8Y 1519   5.569   5.658  16.457 -0.3278 -1.8861  1.9440
   12DOPE   C39 1520   5.675   5.487  16.393 -0.3767  0.1944  0.0898
   12DOPE   H9X 1521   5.648   5.434  16.485 -0.9631  1.7359  0.8532
   12DOPE  C310 1522   5.720   5.416  16.284  0.0926  0.0186 -0.1576
   12DOPE  H10X 1523   5.717   5.306  16.287 -0.5648  0.0522  1.8608
   12DOPE  C311 1524   5.774   5.464  16.154 -0.2588 -1.0250 -0.0559
   12DOPE  H11X 1525   5.757   5.573  16.146 -1.6990 -1.2562 -0.4054
   12DOPE  H11Y 1526   5.884   5.450  16.153  0.1011  1.4269 -0.7855
   12DOPE  C312 1527   5.708   5.383  16.039  0.1396  0.2149  1.0190
   12DOPE  H12X 1528   5.597   5.387  16.040  0.1192 -0.4505  1.4562
   12DOPE  H12Y 1529   5.734   5.277  16.056  1.5488  0.3613 -0.0318
   12DOPE  C313 1530   5.761   5.410  15.895 -0.1368 -0.6664 -0.3187
   12DOPE  H13X 1531   5.736   5.515  15.869 -0.4588 -0.4894  0.6517
   12DOPE  H13Y 1532   5.872   5.405  15.896 -0.0727  0.1577  1.4912
   12DOPE  C314 1533   5.701   5.327  15.785 -0.2999  0.1361  0.5028
   12DOPE  H14X 1534   5.592   5.339  15.772 -0.1095 -0.2962 -1.9826
   12DOPE  H14Y 1535   5.699   5.219  15.815  0.6621 -0.0349 -0.0065
   12DOPE  C315 1536   5.760   5.357  15.649 -0.0091 -0.0977 -0.1695
   12DOPE  H15X 1537   5.867   5.329  15.647 -0.5139 -2.3242 -2.8571
   12DOPE  H15Y 1538   5.762   5.463  15.616  2.0049 -0.1123 -0.1763
   12DOPE  C316 1539   5.681   5.282  15.539 -0.0629 -0.1277 -0.5225
   12DOPE  H16X 1540   5.573   5.304  15.558  0.5753  2.5748  0.4665
   12DOPE  H16Y 1541   5.700   5.176  15.567  1.0386 -0.0088 -0.7963
   12DOPE  C317 1542   5.733   5.325  15.405  0.7706 -0.2292 -0.5939
   12DOPE  H17X 1543   5.719   5.435  15.391 -1.9013 -0.5588 -0.9075
   12DOPE  H17Y 1544   5.843   5.307  15.415  0.7362 -1.4968 -2.0773
   12DOPE  C318 1545   5.664   5.246  15.293 -0.0120  0.3310 -0.4517
   12DOPE  H18X 1546   5.555   5.266  15.286  0.0860  0.6314 -1.2574
   12DOPE  H18Y 1547   5.712   5.269  15.195  0.7849  3.4091  0.5504
   12DOPE  H18Z 1548   5.685   5.141  15.325 -0.3298  0.3996 -0.0186
   13DOPE     N 1549   4.467   1.311  17.250  0.1637  0.4079  0.1003
   13DOPE   HN1 1550   4.549   1.365  17.216  0.3240 -1.0172 -1.9178
   13DOPE   HN2 1551   4.393   1.383  17.263 -1.7736 -1.5744  0.6396
   13DOPE   HN3 1552   4.480   1.273  17.346 -0.8407  1.7242  0.7883
   13DOPE   C12 1553   4.435   1.200  17.150 -0.7798 -0.1311 -0.0839
   13DOPE  H12A 1554   4.421   1.255  17.054 -0.1547  3.1447  1.5636
   13DOPE  H12B 1555   4.334   1.161  17.177 -0.6619 -0.9117 -0.7300
   13DOPE   C11 1556   4.544   1.089  17.137 -0.0673 -0.3899 -0.7679
   13DOPE  H11A 1557   4.512   1.018  17.058 -0.4651 -0.4261 -0.5772
   13DOPE  H11B 1558   4.544   1.043  17.238 -0.4310  1.5760  0.1894
   13DOPE     P 1559   4.778   1.089  17.005 -0.4373  0.0150  0.2932
   13DOPE   O13 1560   4.824   0.963  17.061 -0.0251  0.3012 -0.0072
   13DOPE   O14 1561   4.882   1.190  16.964 -0.4405 -0.2999  0.4658
   13DOPE   O11 1562   4.699   1.056  16.874  1.0215 -0.1438 -0.3632
   13DOPE   O12 1563   4.671   1.148  17.105  0.0565 -0.3144  0.4532
   13DOPE    C1 1564   4.661   1.155  16.773  0.3415  1.0782  0.1685
   13DOPE    HA 1565   4.757   1.195  16.735  1.5132 -0.4304  1.4308
   13DOPE    HB 1566   4.610   1.243  16.819  1.4417  1.0510  1.4809
   13DOPE    C2 1567   4.567   1.090  16.671 -0.3822 -0.5757  0.2000
   13DOPE    HS 1568   4.493   1.041  16.737 -0.8510 -1.6966 -1.1181
   13DOPE   O21 1569   4.658   0.997  16.603  0.1130 -0.4326  0.2719
   13DOPE   C21 1570   4.601   0.873  16.566 -1.2012 -0.1623 -0.4540
   13DOPE   O22 1571   4.494   0.836  16.605  0.0265  0.5192  0.0949
   13DOPE   C22 1572   4.684   0.808  16.465  0.4934  0.0717 -0.6597
   13DOPE   H2R 1573   4.637   0.711  16.438  3.6287 -1.2001 -2.0840
   13DOPE   H2S 1574   4.785   0.778  16.499  0.2461 -1.2839 -1.0786
   13DOPE    C3 1575   4.497   1.176  16.575  0.1842 -0.0087  0.3667
   13DOPE    HX 1576   4.444   1.246  16.644  3.1009  2.3812  0.3700
   13DOPE    HY 1577   4.422   1.119  16.517  1.3848  0.9442 -2.2459
   13DOPE   O31 1578   4.573   1.260  16.494  0.1128 -0.3905 -0.2461
   13DOPE   C31 1579   4.496   1.337  16.418 -0.4653  0.6010  0.0788
   13DOPE   O32 1580   4.373   1.332  16.417  0.9420 -0.0147  0.4583
   13DOPE   C32 1581   4.577   1.435  16.336  0.3349  0.2902 -0.0932
   13DOPE   H2X 1582   4.505   1.507  16.292 -0.8336 -1.2176 -0.7254
   13DOPE   H2Y 1583   4.636   1.486  16.415 -2.4527 -0.2808  2.5739
   13DOPE   C23 1584   4.690   0.890  16.338  0.8618 -0.0630  0.1313
   13DOPE   H3R 1585   4.749   0.832  16.265 -1.2588 -3.2848  0.7809
   13DOPE   H3S 1586   4.729   0.994  16.350 -0.3460  0.7019 -1.9697
   13DOPE   C24 1587   4.549   0.900  16.274  0.4403  0.0225 -0.5444
   13DOPE   H4R 1588   4.459   0.900  16.340 -0.7481  2.3291 -2.0343
   13DOPE   H4S 1589   4.516   0.808  16.221 -2.3899 -0.3976  1.6835
   13DOPE   C25 1590   4.534   1.022  16.176 -0.0236 -0.2449 -0.4012
   13DOPE   H5R 1591   4.540   1.113  16.239 -0.3458 -0.3394 -0.2330
   13DOPE   H5S 1592   4.429   1.007  16.142 -1.1403 -1.3074  3.1230
   13DOPE   C26 1593   4.632   1.027  16.053  0.2296  0.3469  0.8135
   13DOPE   H6R 1594   4.734   1.011  16.094  1.3238  0.4249 -1.7172
   13DOPE   H6S 1595   4.617   1.131  16.017 -1.9085  0.3280  1.5052
   13DOPE   C27 1596   4.585   0.921  15.957 -0.5683  0.0058 -0.0765
   13DOPE   H7R 1597   4.479   0.926  15.924 -0.0975  1.3539 -1.5113
   13DOPE   H7S 1598   4.609   0.821  15.999  0.8397  0.2659 -0.2351
   13DOPE   C28 1599   4.675   0.925  15.821 -0.3506 -0.0110  1.5807
   13DOPE   H8R 1600   4.673   0.826  15.771 -1.3598 -1.2218  3.8552
   13DOPE   H8S 1601   4.778   0.958  15.848 -1.1017  4.1447  0.0093
   13DOPE   C29 1602   4.617   1.035  15.736  1.0347  0.1054 -0.2110
   13DOPE   H9R 1603   4.605   1.122  15.803  0.7889 -0.7567  0.8934
   13DOPE  C210 1604   4.588   1.057  15.609  0.3540  0.2978  0.2314
   13DOPE  H10R 1605   4.526   1.143  15.582 -0.2958  0.1989  1.3422
   13DOPE  C211 1606   4.612   0.956  15.493 -0.7531  0.1638 -0.3875
   13DOPE  H11R 1607   4.666   0.865  15.527 -2.9966 -1.5975 -1.2959
   13DOPE  H11S 1608   4.663   1.016  15.415 -0.1314  0.0010 -0.1156
   13DOPE  C212 1609   4.485   0.903  15.417 -0.3217 -0.0376  0.4211
   13DOPE  H12R 1610   4.417   0.855  15.490 -1.5813 -0.4633 -0.9897
   13DOPE  H12S 1611   4.531   0.827  15.350  1.2273 -0.3030  1.7227
   13DOPE  C213 1612   4.399   1.001  15.342  0.0642 -0.0124  0.0954
   13DOPE  H13R 1613   4.469   1.080  15.306  1.1208 -0.5318  0.9577
   13DOPE  H13S 1614   4.341   1.046  15.425  1.3084  1.1248  0.3841
   13DOPE  C214 1615   4.333   0.942  15.220 -0.5190  0.2386 -0.2456
   13DOPE  H14R 1616   4.279   0.851  15.255  1.2679 -1.0559 -0.7379
   13DOPE  H14S 1617   4.408   0.909  15.145  1.7827  0.0780  2.0206
   13DOPE  C215 1618   4.234   1.042  15.157  0.1972 -0.2847 -0.6554
   13DOPE  H15R 1619   4.287   1.140  15.159  0.4342 -0.4217  1.6142
   13DOPE  H15S 1620   4.155   1.054  15.235 -0.0075  2.8703 -1.2046
   13DOPE  C216 1621   4.176   1.007  15.022 -0.3500  0.0160 -0.6161
   13DOPE  H16R 1622   4.106   0.923  15.039  0.0399  0.0164  1.2019
   13DOPE  H16S 1623   4.245   0.975  14.941 -0.0124 -0.3569 -0.1896
   13DOPE  C217 1624   4.085   1.128  14.967  0.3930 -0.2083  0.0262
   13DOPE  H17R 1625   4.144   1.220  14.948 -1.4409  1.3652  1.4342
   13DOPE  H17S 1626   4.008   1.155  15.043 -0.1977  1.5001 -1.1152
   13DOPE  C218 1627   4.012   1.094  14.836  0.0194 -0.1618  0.2581
   13DOPE  H18R 1628   4.067   1.131  14.747 -1.2614 -0.6512 -0.7686
   13DOPE  H18S 1629   3.906   1.128  14.844 -0.1002 -0.8081  1.8027
   13DOPE  H18T 1630   4.022   0.985  14.817  1.4298  0.3467 -2.2496
   13DOPE   C33 1631   4.668   1.367  16.234  0.5515 -0.3535 -0.1037
   13DOPE   H3X 1632   4.609   1.284  16.189 -1.4024 -0.0869  1.8116
   13DOPE   H3Y 1633   4.764   1.325  16.272 -0.2262  0.2953  2.8184
   13DOPE   C34 1634   4.699   1.455  16.108 -0.0495  0.1952  0.2453
   13DOPE   H4X 1635   4.743   1.550  16.146 -0.5175  0.5293 -0.0405
   13DOPE   H4Y 1636   4.774   1.396  16.051 -0.4102  0.8077 -0.8919
   13DOPE   C35 1637   4.582   1.490  16.014 -0.5615 -0.4193  0.7466
   13DOPE   H5X 1638   4.517   1.567  16.062  1.0167  1.3383  0.1908
   13DOPE   H5Y 1639   4.510   1.405  16.008  0.1844 -0.9605 -3.1449
   13DOPE   C36 1640   4.610   1.518  15.869 -0.0435  0.4405  0.0995
   13DOPE   H6X 1641   4.697   1.588  15.863  0.1690  0.1115 -0.8540
   13DOPE   H6Y 1642   4.532   1.572  15.812  0.0662  0.8604  0.3397
   13DOPE   C37 1643   4.634   1.391  15.791  0.5007  0.3028 -0.0759
   13DOPE   H7X 1644   4.706   1.325  15.844 -0.8168 -2.0501 -1.0427
   13DOPE   H7Y 1645   4.546   1.330  15.763  0.4009  0.1943  0.4751
   13DOPE   C38 1646   4.707   1.431  15.657 -0.5710 -0.3333  0.4912
   13DOPE   H8X 1647   4.732   1.330  15.618 -0.8342 -0.4557  0.6336
   13DOPE   H8Y 1648   4.793   1.497  15.679  0.7198 -0.9821 -2.2132
   13DOPE   C39 1649   4.615   1.514  15.568  0.3103  0.2037 -0.5501
   13DOPE   H9X 1650   4.593   1.615  15.605 -1.9044 -0.2224 -0.5436
   13DOPE  C310 1651   4.564   1.487  15.439  0.5377 -0.3638 -0.3111
   13DOPE  H10X 1652   4.495   1.558  15.390  0.4491 -0.2569 -0.0288
   13DOPE  C311 1653   4.574   1.351  15.375 -0.3426 -0.5729  0.9225
   13DOPE  H11X 1654   4.614   1.273  15.443 -0.0411 -0.1998  1.1767
   13DOPE  H11Y 1655   4.473   1.333  15.332  0.6808 -0.3659 -1.7840
   13DOPE  C312 1656   4.657   1.357  15.235  0.4552  0.0739  0.1807
   13DOPE  H12X 1657   4.764   1.377  15.260  0.9482 -1.3876 -0.6201
   13DOPE  H12Y 1658   4.625   1.446  15.176  2.2743  0.2683 -0.5802
   13DOPE  C313 1659   4.640   1.229  15.153  0.7784  1.4223  0.2189
   13DOPE  H13X 1660   4.698   1.151  15.206  1.8657  1.8998 -0.2439
   13DOPE  H13Y 1661   4.531   1.206  15.148  0.5335  2.5141  0.2967
   13DOPE  C314 1662   4.701   1.224  15.011 -0.3920  0.5325  0.5322
   13DOPE  H14X 1663   4.643   1.143  14.964 -1.5450  0.2488  2.3233
   13DOPE  H14Y 1664   4.811   1.208  15.008 -0.4661 -0.1135  1.1450
   13DOPE  C315 1665   4.657   1.344  14.924 -0.6255  0.2004  0.1628
   13DOPE  H15X 1666   4.702   1.332  14.823 -0.6007 -0.3866  0.2411
   13DOPE  H15Y 1667   4.690   1.441  14.967  1.4388 -1.4716  2.6284
   13DOPE  C316 1668   4.496   1.355  14.901 -0.3339 -0.0788  0.6531
   13DOPE  H16X 1669   4.451   1.386  14.998 -1.5577  2.6009 -0.6473
   13DOPE  H16Y 1670   4.467   1.252  14.870  1.6931  0.0493 -1.9225
   13DOPE  C317 1671   4.462   1.460  14.799  0.2246  0.4102  0.0114
   13DOPE  H17X 1672   4.502   1.557  14.836 -1.3558  0.8422  0.6402
   13DOPE  H17Y 1673   4.528   1.432  14.714 -0.7057  1.8575 -1.2317
   13DOPE  C318 1674   4.316   1.459  14.769 -0.7202 -1.0106 -0.0431
   13DOPE  H18X 1675   4.296   1.540  14.696 -2.0542  1.1441  2.5361
   13DOPE  H18Y 1676   4.282   1.360  14.733  1.3317 -1.3311 -1.2409
   13DOPE  H18Z 1677   4.249   1.492  14.852 -0.5349  1.1886 -0.7071
   14DOPE     N 1678   1.111   4.612  17.555  0.4428  0.3137  0.0474
   14DOPE   HN1 1679   1.138   4.627  17.654 -3.1423 -1.2499  1.4557
   14DOPE   HN2 1680   1.019   4.660  17.545  0.3415 -0.0535 -0.9008
   14DOPE   HN3 1681   1.109   4.510  17.533 -3.3560  0.6476 -2.1269
   14DOPE   C12 1682   1.205   4.684  17.466  0.5621  0.2112  0.4742
   14DOPE  H12A 1683   1.151   4.701  17.370  1.7382 -0.4790 -0.3401
   14DOPE  H12B 1684   1.298   4.625  17.449  0.9178  0.5732  1.1501
   14DOPE   C11 1685   1.254   4.824  17.511  0.4553 -0.4689  0.2199
   14DOPE  H11A 1686   1.322   4.865  17.433  0.4062 -0.2065  0.3136
   14DOPE  H11B 1687   1.313   4.826  17.605 -0.2388  0.6676  0.6594
   14DOPE     P 1688   1.141   5.036  17.622  0.5340  0.1859 -0.4227
   14DOPE   O13 1689   1.254   5.121  17.583 -0.6569 -0.0556  0.1917
   14DOPE   O14 1690   1.138   5.000  17.768  0.1538  0.6361 -0.0984
   14DOPE   O11 1691   1.010   5.118  17.590 -0.1623  0.1405 -0.0770
   14DOPE   O12 1692   1.135   4.911  17.523 -0.1646  0.3005 -0.1564
   14DOPE    C1 1693   0.895   5.061  17.523 -0.1645  0.4055 -0.7800
   14DOPE    HA 1694   0.811   5.133  17.514 -0.7183 -0.0795  0.3422
   14DOPE    HB 1695   0.861   4.972  17.579  0.1503  0.8276  0.1087
   14DOPE    C2 1696   0.909   5.037  17.374  0.1025 -0.4019 -0.0743
   14DOPE    HS 1697   0.971   4.944  17.370  0.3783 -0.2045 -0.5396
   14DOPE   O21 1698   0.983   5.153  17.302  0.0545 -0.3615 -0.3035
   14DOPE   C21 1699   1.052   5.118  17.198 -0.0642 -0.2216  0.2787
   14DOPE   O22 1700   1.079   5.002  17.173  0.5385 -0.0401 -0.1522
   14DOPE   C22 1701   1.090   5.231  17.108 -0.5792  0.3291  0.3387
   14DOPE   H2R 1702   1.126   5.314  17.173  1.3237  0.5191 -0.8981
   14DOPE   H2S 1703   0.998   5.269  17.058 -0.4181 -1.0762 -1.1079
   14DOPE    C3 1704   0.769   5.004  17.307 -0.3952 -0.0606  0.5903
   14DOPE    HX 1705   0.705   5.095  17.311  0.4500  0.5851 -0.0593
   14DOPE    HY 1706   0.709   4.928  17.360 -0.7672  0.0609  0.3435
   14DOPE   O31 1707   0.787   4.968  17.171 -0.0312 -0.5098  0.6595
   14DOPE   C31 1708   0.811   4.837  17.148  0.4911  0.3309 -1.1182
   14DOPE   O32 1709   0.804   4.752  17.235 -0.1409  0.2046  0.2319
   14DOPE   C32 1710   0.826   4.809  17.003 -0.0980 -0.3282 -0.7669
   14DOPE   H2X 1711   0.912   4.868  16.964 -0.3305  1.6878  1.5456
   14DOPE   H2Y 1712   0.839   4.699  16.998 -0.5605 -0.3781 -0.9182
   14DOPE   C23 1713   1.201   5.211  17.006 -0.0307 -0.0125 -0.1062
   14DOPE   H3R 1714   1.290   5.168  17.057  1.2390  2.9799  0.3970
   14DOPE   H3S 1715   1.238   5.309  16.968 -1.0812 -0.5187 -2.5846
   14DOPE   C24 1716   1.155   5.123  16.887 -0.1491  0.3538  0.3008
   14DOPE   H4R 1717   1.123   5.023  16.924  0.4915 -0.2446 -0.7357
   14DOPE   H4S 1718   1.240   5.089  16.825 -0.6839 -1.7522  0.6645
   14DOPE   C25 1719   1.043   5.185  16.799 -0.3119 -0.1188 -0.2575
   14DOPE   H5R 1720   1.069   5.288  16.765 -0.8739  0.4459  0.9577
   14DOPE   H5S 1721   0.956   5.204  16.865 -0.5958  1.2140 -0.9648
   14DOPE   C26 1722   1.003   5.099  16.682  0.2933  0.4164 -0.9263
   14DOPE   H6R 1723   0.986   5.000  16.728  1.6003 -0.4357 -2.2010
   14DOPE   H6S 1724   1.090   5.100  16.613  0.3879  0.3930 -0.8081
   14DOPE   C27 1725   0.867   5.150  16.617 -0.2758  0.1415  0.3704
   14DOPE   H7R 1726   0.896   5.245  16.567  2.0277 -0.4198  0.5228
   14DOPE   H7S 1727   0.783   5.173  16.687 -0.0841 -1.9139  1.3460
   14DOPE   C28 1728   0.819   5.050  16.508 -0.2678 -0.0473 -0.4541
   14DOPE   H8R 1729   0.826   4.947  16.548  0.2911 -0.8210 -2.4488
   14DOPE   H8S 1730   0.888   5.051  16.422 -0.0478  0.4870 -0.2798
   14DOPE   C29 1731   0.678   5.087  16.472 -0.0661  0.0468 -0.1943
   14DOPE   H9R 1732   0.610   5.081  16.558 -0.1342 -0.8724 -0.2991
   14DOPE  C210 1733   0.624   5.137  16.358 -0.0618 -0.0057 -0.5470
   14DOPE  H10R 1734   0.520   5.172  16.352 -0.4152 -1.2127 -2.3356
   14DOPE  C211 1735   0.709   5.161  16.230 -0.5500 -0.1512  0.3415
   14DOPE  H11R 1736   0.817   5.134  16.235 -0.2677  0.5591 -1.3334
   14DOPE  H11S 1737   0.702   5.264  16.191  1.9871  0.1408  0.4798
   14DOPE  C212 1738   0.652   5.068  16.116  0.0065  0.1774 -0.4092
   14DOPE  H12R 1739   0.542   5.082  16.114 -0.1838 -1.2121 -0.4260
   14DOPE  H12S 1740   0.677   4.963  16.140 -0.7379 -0.2222 -1.3242
   14DOPE  C213 1741   0.723   5.090  15.982 -1.0093  0.0680  0.1430
   14DOPE  H13R 1742   0.833   5.091  15.994 -1.1945 -1.0351  2.6196
   14DOPE  H13S 1743   0.704   5.197  15.956  0.9736  0.3228 -0.4007
   14DOPE  C214 1744   0.692   4.982  15.883  0.2155  0.4601  0.1948
   14DOPE  H14R 1745   0.583   4.981  15.863  0.5209  1.0093 -1.6757
   14DOPE  H14S 1746   0.721   4.884  15.926  0.1504  0.5323  0.4047
   14DOPE  C215 1747   0.772   5.003  15.756  0.4246 -0.5945  0.4127
   14DOPE  H15R 1748   0.881   5.019  15.769  0.6178 -0.9243 -0.7020
   14DOPE  H15S 1749   0.725   5.091  15.707  1.0621 -0.9202 -0.8167
   14DOPE  C216 1750   0.745   4.900  15.648  0.3083 -0.0895 -0.4899
   14DOPE  H16R 1751   0.639   4.869  15.665  0.1460  0.7581  0.1418
   14DOPE  H16S 1752   0.814   4.814  15.661 -0.0981 -0.6701 -2.0139
   14DOPE  C217 1753   0.753   4.953  15.504 -0.6980  0.5992 -0.4755
   14DOPE  H17R 1754   0.682   5.037  15.485 -0.9750  0.5170  0.1573
   14DOPE  H17S 1755   0.723   4.870  15.436 -0.8278  0.3860 -0.1602
   14DOPE  C218 1756   0.897   4.989  15.467 -0.3667 -0.0310  0.6714
   14DOPE  H18R 1757   0.959   4.897  15.457 -0.2333  0.1020  0.2737
   14DOPE  H18S 1758   0.957   5.047  15.540  0.9906  0.1140 -0.5275
   14DOPE  H18T 1759   0.902   5.042  15.370 -1.2603  1.4924  1.4184
   14DOPE   C33 1760   0.692   4.844  16.928 -0.1645 -0.3593  0.8226
   14DOPE   H3X 1761   0.721   4.827  16.822  0.8179  0.5804  0.9114
   14DOPE   H3Y 1762   0.674   4.953  16.944 -1.0338 -0.1241 -1.3666
   14DOPE   C34 1763   0.565   4.757  16.945 -0.0603  0.6837 -0.4980
   14DOPE   H4X 1764   0.573   4.662  16.888  0.5939  0.6294 -0.3315
   14DOPE   H4Y 1765   0.538   4.735  17.051  0.5901  0.4544 -0.3716
   14DOPE   C35 1766   0.437   4.829  16.904 -0.0730 -0.5170  0.2169
   14DOPE   H5X 1767   0.417   4.914  16.972 -1.4632 -0.2156 -0.5213
   14DOPE   H5Y 1768   0.354   4.757  16.926 -0.5438  0.0627  0.3743
   14DOPE   C36 1769   0.422   4.872  16.756  0.0900  0.3835  0.7497
   14DOPE   H6X 1770   0.447   4.784  16.693 -2.9142  0.8903 -1.3856
   14DOPE   H6Y 1771   0.486   4.960  16.734 -2.0694  1.7536 -0.3388
   14DOPE   C37 1772   0.274   4.899  16.710 -0.0368  0.0424  0.4407
   14DOPE   H7X 1773   0.213   4.810  16.733 -1.9600  0.8858 -1.1273
   14DOPE   H7Y 1774   0.235   4.983  16.771  0.3488 -0.0618  0.8397
   14DOPE   C38 1775   0.285   4.931  16.560  0.5648  0.3192 -0.7742
   14DOPE   H8X 1776   0.303   4.847  16.491  0.2068 -1.5071  1.2453
   14DOPE   H8Y 1777   0.372   5.000  16.552  0.7508  0.4919  1.8821
   14DOPE   C39 1778   0.155   4.984  16.507  0.4502  0.3470 -0.6695
   14DOPE   H9X 1779   0.076   4.980  16.583  0.8081  0.3487 -0.2930
   14DOPE  C310 1780   0.129   5.021  16.379  0.4390 -0.4866  0.6491
   14DOPE  H10X 1781   0.024   5.042  16.356 -0.7203 -4.0956  1.9599
   14DOPE  C311 1782   0.233   5.032  16.270 -1.1868  0.5488  0.9499
   14DOPE  H11X 1783   0.245   5.142  16.254  1.6240  0.0624 -1.1213
   14DOPE  H11Y 1784   0.330   4.983  16.293 -0.3171  2.5116  1.7061
   14DOPE  C312 1785   0.177   4.971  16.139  0.5838 -0.3643 -0.5471
   14DOPE  H12X 1786   0.081   5.025  16.123  0.9334  0.2514 -0.6283
   14DOPE  H12Y 1787   0.172   4.862  16.157  1.4058 -0.5352 -1.2616
   14DOPE  C313 1788   0.282   4.973  16.023  0.0746 -0.2767  0.0308
   14DOPE  H13X 1789   0.337   5.069  16.025  0.8063 -0.4676 -3.4696
   14DOPE  H13Y 1790   0.356   4.891  16.039  0.5186  0.1731  0.2867
   14DOPE  C314 1791   0.209   4.966  15.889  0.1208 -0.3949  0.7324
   14DOPE  H14X 1792   0.148   5.060  15.890 -1.1023 -1.1201 -1.1549
   14DOPE  H14Y 1793   0.154   4.870  15.885  1.0020 -0.8503 -1.7188
   14DOPE  C315 1794   0.303   4.976  15.763 -0.1105  0.0057 -0.3576
   14DOPE  H15X 1795   0.387   4.904  15.759 -0.1876 -0.0369 -1.8914
   14DOPE  H15Y 1796   0.346   5.078  15.775 -0.6425  0.1612  0.2976
   14DOPE  C316 1797   0.227   4.985  15.635  0.3716  0.1268  0.2667
   14DOPE  H16X 1798   0.180   5.086  15.631 -0.1538 -0.1350 -2.5822
   14DOPE  H16Y 1799   0.133   4.927  15.645  0.3669 -0.1154 -0.9861
   14DOPE  C317 1800   0.299   4.926  15.515 -0.1512  0.4431 -0.2900
   14DOPE  H17X 1801   0.392   4.987  15.513  0.1964  0.0989  1.9071
   14DOPE  H17Y 1802   0.327   4.822  15.542  1.7742  0.3753 -2.3051
   14DOPE  C318 1803   0.223   4.938  15.385  0.2600 -0.7308  1.1757
   14DOPE  H18X 1804   0.288   4.906  15.302  0.0448  2.4218 -0.3649
   14DOPE  H18Y 1805   0.123   4.890  15.380 -0.6152  1.1273 -0.8743
   14DOPE  H18Z 1806   0.195   5.044  15.366 -0.6185 -1.3763 -1.5115
   15DOPE     N 1807   3.897   1.553  17.186 -0.1281  0.3963 -0.3684
   15DOPE   HN1 1808   3.815   1.545  17.248 -0.1519  0.1710 -0.4295
   15DOPE   HN2 1809   3.936   1.461  17.159 -1.4175 -0.1645 -0.3795
   15DOPE   HN3 1810   3.973   1.600  17.239  1.9525 -1.9632 -1.0479
   15DOPE   C12 1811   3.857   1.632  17.067 -0.5921 -0.4331  0.4291
   15DOPE  H12A 1812   3.942   1.648  16.997  0.5020 -0.5194  1.7113
   15DOPE  H12B 1813   3.828   1.736  17.094 -0.5575 -0.2497 -0.2095
   15DOPE   C11 1814   3.736   1.579  16.999  0.4597  0.0648 -0.4553
   15DOPE  H11A 1815   3.758   1.471  16.987 -0.2590 -0.0376 -0.8951
   15DOPE  H11B 1816   3.716   1.626  16.900  3.2232 -1.5636 -1.9175
   15DOPE     P 1817   3.523   1.698  17.088 -0.4074 -0.0932  0.1552
   15DOPE   O13 1818   3.581   1.805  17.168  0.0122 -0.1078  0.1343
   15DOPE   O14 1819   3.385   1.656  17.124  0.0443  0.6830  0.2244
   15DOPE   O11 1820   3.518   1.746  16.937  0.6022 -0.1457  0.0822
   15DOPE   O12 1821   3.626   1.579  17.089  0.4691  0.0660 -0.3541
   15DOPE    C1 1822   3.396   1.726  16.862 -0.0389 -0.5585 -0.7114
   15DOPE    HA 1823   3.316   1.795  16.893  0.5878  0.3848 -1.1349
   15DOPE    HB 1824   3.356   1.623  16.872 -0.4301 -0.2423  1.2388
   15DOPE    C2 1825   3.421   1.749  16.713  0.4177  0.1976  0.6674
   15DOPE    HS 1826   3.322   1.757  16.663  1.2864 -0.2486 -1.2275
   15DOPE   O21 1827   3.503   1.641  16.662 -0.8558 -0.4968 -0.0875
   15DOPE   C21 1828   3.475   1.619  16.533  0.3354 -1.0275  0.4882
   15DOPE   O22 1829   3.383   1.673  16.469 -0.3895  0.6475 -0.2235
   15DOPE   C22 1830   3.557   1.517  16.467  0.6345 -0.5396  0.2986
   15DOPE   H2R 1831   3.525   1.418  16.505 -1.1318 -1.6548 -3.5311
   15DOPE   H2S 1832   3.661   1.535  16.502  0.1880  0.0406  1.3796
   15DOPE    C3 1833   3.493   1.888  16.690  0.6003  0.0229  0.4206
   15DOPE    HX 1834   3.591   1.878  16.742  0.6244  1.6108  0.7595
   15DOPE    HY 1835   3.438   1.958  16.756 -1.3112 -0.4691 -0.5849
   15DOPE   O31 1836   3.503   1.932  16.547 -0.1272 -0.0738 -0.2285
   15DOPE   C31 1837   3.380   1.976  16.513 -0.9178  0.1461  0.2153
   15DOPE   O32 1838   3.282   1.986  16.583 -0.1840 -0.0220  0.2733
   15DOPE   C32 1839   3.382   2.013  16.361 -0.0740  0.0518 -0.3218
   15DOPE   H2X 1840   3.402   1.913  16.318  1.4283 -1.5591  3.6491
   15DOPE   H2Y 1841   3.276   2.042  16.344 -0.2191 -0.0093  0.4310
   15DOPE   C23 1842   3.551   1.507  16.309 -0.0509  0.5384  0.1188
   15DOPE   H3R 1843   3.630   1.433  16.285 -2.3156 -2.0055  0.0895
   15DOPE   H3S 1844   3.565   1.605  16.258  0.0598  0.6017  0.2677
   15DOPE   C24 1845   3.421   1.445  16.255  0.2404  0.8546 -0.4381
   15DOPE   H4R 1846   3.325   1.486  16.293 -1.2990 -0.9973 -2.0901
   15DOPE   H4S 1847   3.417   1.340  16.293 -0.7802  1.1258  0.2433
   15DOPE   C25 1848   3.405   1.440  16.098 -0.4013 -0.1069  0.1778
   15DOPE   H5R 1849   3.394   1.539  16.049  1.1159  0.3558  0.7068
   15DOPE   H5S 1850   3.307   1.391  16.085 -0.3626 -0.8361  2.2266
   15DOPE   C26 1851   3.516   1.368  16.018  0.2324  0.0737 -0.7871
   15DOPE   H6R 1852   3.564   1.285  16.074  1.2562  0.3568 -1.1991
   15DOPE   H6S 1853   3.598   1.442  16.005 -0.1042  0.5603 -0.1966
   15DOPE   C27 1854   3.481   1.315  15.878 -0.6295 -0.1247  0.0181
   15DOPE   H7R 1855   3.399   1.242  15.892 -0.2006 -0.4932  0.6364
   15DOPE   H7S 1856   3.574   1.270  15.836 -0.9913 -0.6738 -0.2001
   15DOPE   C28 1857   3.460   1.430  15.777 -0.5044  0.1505  0.3229
   15DOPE   H8R 1858   3.394   1.506  15.824 -1.4600 -0.0240 -0.7180
   15DOPE   H8S 1859   3.404   1.394  15.688  1.0450 -0.8060 -0.3291
   15DOPE   C29 1860   3.579   1.514  15.726 -0.1227 -0.0174  0.7068
   15DOPE   H9R 1861   3.670   1.508  15.786 -1.5424  2.5351  3.4037
   15DOPE  C210 1862   3.574   1.575  15.606 -0.1513 -0.5567  0.7881
   15DOPE  H10R 1863   3.674   1.615  15.586 -0.9928  2.5821  2.1156
   15DOPE  C211 1864   3.468   1.591  15.507 -0.6810  0.4017  0.2472
   15DOPE  H11R 1865   3.467   1.696  15.472 -1.2461  0.6493  0.9871
   15DOPE  H11S 1866   3.364   1.572  15.543 -0.7005  0.4690  0.2283
   15DOPE  C212 1867   3.496   1.501  15.389  0.4751  0.1408  0.2162
   15DOPE  H12R 1868   3.606   1.506  15.371  1.1636 -0.9517  3.3116
   15DOPE  H12S 1869   3.444   1.533  15.297 -2.1265 -1.9364  0.8405
   15DOPE  C213 1870   3.464   1.353  15.404 -0.0780  0.2384  0.3904
   15DOPE  H13R 1871   3.507   1.298  15.491  2.0234  0.4131 -0.4818
   15DOPE  H13S 1872   3.505   1.299  15.316  1.2541  0.8069  0.6292
   15DOPE  C214 1873   3.311   1.323  15.398  0.1648  0.0730 -0.2524
   15DOPE  H14R 1874   3.250   1.369  15.318 -3.7502  0.1492  2.4663
   15DOPE  H14S 1875   3.264   1.362  15.491  2.4776 -1.1237  1.5461
   15DOPE  C215 1876   3.294   1.172  15.389  0.9590 -0.1572  0.0636
   15DOPE  H15R 1877   3.368   1.123  15.455  0.0573  1.0326  2.0454
   15DOPE  H15S 1878   3.307   1.142  15.282  1.8906  0.8946 -0.1325
   15DOPE  C216 1879   3.153   1.125  15.436 -0.0807  0.0801 -0.0938
   15DOPE  H16R 1880   3.121   1.160  15.536 -0.0771  1.1722 -0.4681
   15DOPE  H16S 1881   3.162   1.015  15.448 -0.6848 -0.0185 -0.4945
   15DOPE  C217 1882   3.036   1.145  15.340  0.0805 -0.6801 -0.4331
   15DOPE  H17R 1883   3.019   1.252  15.319 -0.7666 -0.8680 -0.7518
   15DOPE  H17S 1884   2.947   1.099  15.389  0.3525  0.3252  1.0898
   15DOPE  C218 1885   3.055   1.059  15.212  0.1780 -0.2743  0.0461
   15DOPE  H18R 1886   3.063   0.954  15.247  2.4067  0.2605  1.3117
   15DOPE  H18S 1887   3.151   1.080  15.161  1.3363 -1.9384  1.4157
   15DOPE  H18T 1888   2.966   1.071  15.146  0.4653  2.0282 -0.0090
   15DOPE   C33 1889   3.497   2.112  16.323 -0.5595 -0.0151 -0.5840
   15DOPE   H3X 1890   3.582   2.041  16.332  0.2623  1.0359  0.1882
   15DOPE   H3Y 1891   3.519   2.188  16.401 -0.1217 -0.9670  0.2376
   15DOPE   C34 1892   3.482   2.170  16.179 -0.0004  0.5044 -0.6421
   15DOPE   H4X 1893   3.581   2.207  16.145  0.1710 -0.8147 -1.6970
   15DOPE   H4Y 1894   3.451   2.090  16.108 -1.6806 -0.3116  0.9079
   15DOPE   C35 1895   3.371   2.275  16.168 -0.0615  0.3851 -1.4133
   15DOPE   H5X 1896   3.345   2.319  16.266  1.2438 -0.3152 -0.7223
   15DOPE   H5Y 1897   3.277   2.221  16.141 -0.6790  1.0821 -0.6884
   15DOPE   C36 1898   3.383   2.377  16.048 -0.3110  0.2861 -0.5466
   15DOPE   H6X 1899   3.313   2.460  16.069  1.8310  2.1925 -0.6266
   15DOPE   H6Y 1900   3.377   2.327  15.948  0.3388 -0.4577 -0.2284
   15DOPE   C37 1901   3.521   2.442  16.033  0.8036 -0.0114 -0.3535
   15DOPE   H7X 1902   3.543   2.494  16.128 -1.9726  3.1173 -1.2220
   15DOPE   H7Y 1903   3.596   2.365  16.005 -0.0211 -0.7790 -0.4961
   15DOPE   C38 1904   3.520   2.561  15.930  0.5887 -0.1766 -0.0937
   15DOPE   H8X 1905   3.442   2.628  15.971 -0.9043 -1.9392  0.0715
   15DOPE   H8Y 1906   3.473   2.527  15.836 -1.4456 -1.1960  1.2328
   15DOPE   C39 1907   3.655   2.640  15.912 -0.4487  0.8263  0.2462
   15DOPE   H9X 1908   3.692   2.677  16.009  2.0163  2.6988 -1.3155
   15DOPE  C310 1909   3.732   2.664  15.804  0.5665 -0.1112  0.4655
   15DOPE  H10X 1910   3.820   2.729  15.813 -1.4857  3.1041 -0.8366
   15DOPE  C311 1911   3.698   2.603  15.670  0.2781 -0.6431 -0.0439
   15DOPE  H11X 1912   3.785   2.555  15.620  0.6771 -0.5847  0.5913
   15DOPE  H11Y 1913   3.616   2.527  15.670 -2.2909  1.8758 -2.7212
   15DOPE  C312 1914   3.642   2.718  15.573 -0.7673  0.2628 -0.4136
   15DOPE  H12X 1915   3.713   2.803  15.565 -0.4686  0.2726  1.7813
   15DOPE  H12Y 1916   3.554   2.751  15.632 -0.8666 -0.4217 -0.1708
   15DOPE  C313 1917   3.604   2.670  15.435 -0.6879 -0.2478  0.4168
   15DOPE  H13X 1918   3.527   2.592  15.454 -1.2362 -0.4099 -2.1580
   15DOPE  H13Y 1919   3.556   2.746  15.370 -0.1428 -1.2591 -1.2080
   15DOPE  C314 1920   3.724   2.620  15.364 -0.0823  0.3798  0.2661
   15DOPE  H14X 1921   3.764   2.528  15.413 -0.1316  1.1557  1.8213
   15DOPE  H14Y 1922   3.810   2.691  15.365  0.1486  0.1096  1.6756
   15DOPE  C315 1923   3.696   2.578  15.216 -0.4357  0.4989 -0.1521
   15DOPE  H15X 1924   3.637   2.648  15.153 -0.9749  0.6608  0.5175
   15DOPE  H15Y 1925   3.633   2.486  15.225  0.3325  0.0574  0.9002
   15DOPE  C316 1926   3.832   2.555  15.143 -1.1176  0.0060 -0.8679
   15DOPE  H16X 1927   3.880   2.471  15.197 -1.4632 -0.0539 -0.6531
   15DOPE  H16Y 1928   3.896   2.645  15.156 -0.8201 -0.3446  0.1846
   15DOPE  C317 1929   3.831   2.509  14.999  0.2915 -0.2105 -0.0129
   15DOPE  H17X 1930   3.931   2.501  14.952 -0.4308 -0.7855 -1.5067
   15DOPE  H17Y 1931   3.778   2.412  15.008 -0.5470  0.2935  0.5906
   15DOPE  C318 1932   3.743   2.602  14.912 -0.3597 -0.3393 -0.6072
   15DOPE  H18X 1933   3.779   2.592  14.807 -2.9865  0.2495 -1.6185
   15DOPE  H18Y 1934   3.632   2.603  14.914 -0.3951 -0.0384 -1.9484
   15DOPE  H18Z 1935   3.768   2.708  14.931 -3.6522  0.7485 -1.8463
   16DOPE     N 1936   3.432   3.288  17.433  0.4452 -0.1926  0.9370
   16DOPE   HN1 1937   3.384   3.233  17.508  0.7015 -0.9437  0.5660
   16DOPE   HN2 1938   3.401   3.387  17.434 -0.1199 -0.3703  1.4690
   16DOPE   HN3 1939   3.403   3.244  17.343  1.4492 -0.6843  0.8302
   16DOPE   C12 1940   3.582   3.277  17.444  0.7696 -0.6350 -0.0582
   16DOPE  H12A 1941   3.622   3.188  17.392 -0.5096 -1.4206  0.2602
   16DOPE  H12B 1942   3.612   3.270  17.550 -0.8895 -1.7271  0.3853
   16DOPE   C11 1943   3.645   3.412  17.394  0.2872 -0.4196 -0.0871
   16DOPE  H11A 1944   3.611   3.415  17.289 -2.0035 -0.0891  0.6040
   16DOPE  H11B 1945   3.756   3.405  17.400  0.1700 -2.2381  0.8112
   16DOPE     P 1946   3.684   3.645  17.525 -0.3419 -0.1504  0.1490
   16DOPE   O13 1947   3.821   3.597  17.549 -0.0961  0.2330  0.2464
   16DOPE   O14 1948   3.615   3.699  17.646  0.1906  0.2863 -0.8708
   16DOPE   O11 1949   3.684   3.754  17.416 -0.2861 -0.6077  0.0659
   16DOPE   O12 1950   3.590   3.531  17.460  0.2999 -0.0305 -1.0958
   16DOPE    C1 1951   3.697   3.733  17.274  0.0441  0.4443 -0.2232
   16DOPE    HA 1952   3.769   3.650  17.256 -0.1638  0.1605  0.2400
   16DOPE    HB 1953   3.756   3.823  17.246  1.1310  0.6273  2.3846
   16DOPE    C2 1954   3.559   3.716  17.205  0.1903 -0.8475  0.9152
   16DOPE    HS 1955   3.531   3.608  17.215  2.3032 -1.3586  1.9328
   16DOPE   O21 1956   3.569   3.757  17.068  0.6378  0.5901 -0.6133
   16DOPE   C21 1957   3.487   3.696  16.989 -0.6764  0.3851 -0.5348
   16DOPE   O22 1958   3.403   3.613  17.023 -0.0508  0.2839 -0.3456
   16DOPE   C22 1959   3.507   3.737  16.842  0.2475 -0.7288  0.5010
   16DOPE   H2R 1960   3.594   3.684  16.798 -0.1324  0.2460 -1.5095
   16DOPE   H2S 1961   3.512   3.847  16.830 -1.5674 -0.3770  2.3770
   16DOPE    C3 1962   3.449   3.802  17.291 -0.2092 -0.0821  0.2146
   16DOPE    HX 1963   3.499   3.881  17.352 -0.1916  0.2427 -0.2139
   16DOPE    HY 1964   3.403   3.730  17.362  1.9696 -0.9871  0.8096
   16DOPE   O31 1965   3.357   3.881  17.206  0.0122 -0.3993  0.5090
   16DOPE   C31 1966   3.228   3.841  17.219  0.4888  0.0372 -0.7961
   16DOPE   O32 1967   3.192   3.733  17.256  0.1800 -0.1716 -0.0164
   16DOPE   C32 1968   3.134   3.952  17.169  0.5610 -0.2971 -0.6420
   16DOPE   H2X 1969   3.104   4.004  17.263  2.3879  1.3714 -0.8978
   16DOPE   H2Y 1970   3.199   4.025  17.114  1.3372  0.8991  1.7237
   16DOPE   C23 1971   3.386   3.702  16.761  0.3308 -0.3067 -0.3487
   16DOPE   H3R 1972   3.295   3.759  16.788 -0.2441  0.4067 -3.4086
   16DOPE   H3S 1973   3.368   3.594  16.778 -0.1369 -0.4504 -1.6260
   16DOPE   C24 1974   3.414   3.727  16.611  0.3380 -0.4922  0.3823
   16DOPE   H4R 1975   3.516   3.689  16.589  0.5540  0.2987 -0.0417
   16DOPE   H4S 1976   3.430   3.836  16.597  0.2897 -0.5042  0.2293
   16DOPE   C25 1977   3.298   3.711  16.512  0.3543 -0.5181 -0.4297
   16DOPE   H5R 1978   3.229   3.797  16.522 -0.4211 -0.6083 -3.8362
   16DOPE   H5S 1979   3.243   3.617  16.533 -1.7006  0.6894 -0.1556
   16DOPE   C26 1980   3.333   3.696  16.362 -0.3574  0.4081 -0.0721
   16DOPE   H6R 1981   3.374   3.794  16.328 -1.5787  1.0497  0.2671
   16DOPE   H6S 1982   3.241   3.666  16.307 -2.4038 -1.4904  4.0026
   16DOPE   C27 1983   3.443   3.591  16.329  0.3781  0.3759 -0.0921
   16DOPE   H7R 1984   3.423   3.503  16.394 -2.4802  1.6896  0.9723
   16DOPE   H7S 1985   3.532   3.641  16.372  1.0904 -1.5511  0.7860
   16DOPE   C28 1986   3.459   3.551  16.181 -0.2574 -0.7188  0.3741
   16DOPE   H8R 1987   3.371   3.494  16.144 -0.0168 -0.7131 -0.2187
   16DOPE   H8S 1988   3.553   3.492  16.183 -0.1869 -0.6864  3.3435
   16DOPE   C29 1989   3.488   3.681  16.106 -0.9170 -0.1694  0.5537
   16DOPE   H9R 1990   3.490   3.773  16.165  1.0602  0.0869  0.1530
   16DOPE  C210 1991   3.531   3.690  15.973 -0.7157  0.0530 -0.4327
   16DOPE  H10R 1992   3.546   3.793  15.936 -0.1919 -0.0618 -0.5390
   16DOPE  C211 1993   3.568   3.579  15.878 -0.5566 -0.1263 -0.2814
   16DOPE  H11R 1994   3.501   3.583  15.789 -0.3379 -0.6723 -0.4750
   16DOPE  H11S 1995   3.553   3.481  15.929  0.4434  0.2667  0.8157
   16DOPE  C212 1996   3.707   3.569  15.820 -0.1957  0.0201 -0.3499
   16DOPE  H12R 1997   3.792   3.554  15.890  0.6366  0.8972 -1.1339
   16DOPE  H12S 1998   3.733   3.667  15.775 -1.7472  0.2301 -0.8554
   16DOPE  C213 1999   3.716   3.469  15.709  0.4619 -0.0908  0.0309
   16DOPE  H13R 2000   3.635   3.498  15.638 -0.0805  0.8946  1.0090
   16DOPE  H13S 2001   3.692   3.372  15.757  0.8032  0.2936  1.0062
   16DOPE  C214 2002   3.853   3.468  15.637 -0.2112  0.0645  0.1274
   16DOPE  H14R 2003   3.925   3.417  15.704 -0.2092  0.6805  0.6043
   16DOPE  H14S 2004   3.887   3.572  15.625 -3.3010  1.1444 -0.2637
   16DOPE  C215 2005   3.838   3.409  15.499 -1.1383 -0.0779 -0.2914
   16DOPE  H15R 2006   3.759   3.464  15.443  0.5400  2.6512 -0.1259
   16DOPE  H15S 2007   3.810   3.303  15.514  0.4771 -0.6515 -1.1326
   16DOPE  C216 2008   3.968   3.404  15.423  0.1079  0.1284  0.1215
   16DOPE  H16R 2009   4.008   3.507  15.409  0.8236  0.1429  2.0036
   16DOPE  H16S 2010   3.961   3.345  15.329  0.6277  0.0604  0.1218
   16DOPE  C217 2011   4.076   3.326  15.503  0.1080 -0.6769  0.2154
   16DOPE  H17R 2012   4.037   3.223  15.522 -0.3995  0.1706  5.3415
   16DOPE  H17S 2013   4.098   3.380  15.598  1.2970 -1.3170  0.3236
   16DOPE  C218 2014   4.209   3.311  15.426 -0.4698  0.3997 -0.0811
   16DOPE  H18R 2015   4.270   3.402  15.406  0.8498 -0.8137 -1.9499
   16DOPE  H18S 2016   4.202   3.251  15.332  0.4518  1.7852 -1.0812
   16DOPE  H18T 2017   4.275   3.254  15.494 -0.4788  1.2557  0.6695
   16DOPE   C33 2018   3.008   3.915  17.080  0.9660 -0.3190  0.9561
   16DOPE   H3X 2019   2.950   4.010  17.072 -0.6192 -1.3447 -0.5813
   16DOPE   H3Y 2020   2.938   3.845  17.131  1.4877 -1.0448  0.7000
   16DOPE   C34 2021   3.043   3.862  16.942  0.4356 -0.2097  0.4625
   16DOPE   H4X 2022   3.107   3.933  16.885  0.1998 -0.5167 -0.1875
   16DOPE   H4Y 2023   3.101   3.768  16.944  1.3924  0.3664  0.1817
   16DOPE   C35 2024   2.912   3.840  16.869  0.1464 -0.3708 -0.1939
   16DOPE   H5X 2025   2.851   3.933  16.869  0.4901 -0.1332  0.9070
   16DOPE   H5Y 2026   2.854   3.756  16.912 -1.6348 -0.1592 -2.0328
   16DOPE   C36 2027   2.930   3.808  16.716 -0.4975 -0.5876  0.2706
   16DOPE   H6X 2028   2.973   3.706  16.707  2.6956  0.5497  1.2481
   16DOPE   H6Y 2029   3.006   3.876  16.672 -1.9142  0.6792 -0.3019
   16DOPE   C37 2030   2.808   3.832  16.622  0.2959  0.0308  0.1651
   16DOPE   H7X 2031   2.725   3.769  16.661 -0.7869  2.0896  1.3627
   16DOPE   H7Y 2032   2.754   3.929  16.627  0.2377  0.0567 -0.7679
   16DOPE   C38 2033   2.851   3.804  16.474 -0.3251 -0.3272 -0.2437
   16DOPE   H8X 2034   2.892   3.701  16.480  0.5848  0.0355 -0.0683
   16DOPE   H8Y 2035   2.915   3.881  16.426 -1.2572 -0.7541 -2.2882
   16DOPE   C39 2036   2.726   3.784  16.390  0.4391 -0.0578 -0.0787
   16DOPE   H9X 2037   2.630   3.820  16.430  1.0770  0.5985  0.9138
   16DOPE  C310 2038   2.730   3.716  16.281  0.3295 -0.6827  0.2780
   16DOPE  H10X 2039   2.636   3.699  16.227 -0.3355  0.8892  0.8832
   16DOPE  C311 2040   2.854   3.669  16.219  0.3578 -0.2677 -0.4683
   16DOPE  H11X 2041   2.936   3.653  16.291 -0.2013 -0.3108  0.1680
   16DOPE  H11Y 2042   2.839   3.574  16.163 -0.5556  0.7604 -2.0438
   16DOPE  C312 2043   2.918   3.775  16.119  0.2199  0.2900  0.3665
   16DOPE  H12X 2044   3.000   3.719  16.070 -1.1817 -0.2225 -1.4954
   16DOPE  H12Y 2045   2.958   3.855  16.185  0.6444  0.6607 -0.3268
   16DOPE  C313 2046   2.809   3.826  16.017 -0.3788  0.1427 -0.5098
   16DOPE  H13X 2047   2.722   3.882  16.058 -0.9449  0.3478 -1.9217
   16DOPE  H13Y 2048   2.859   3.896  15.946  3.6844 -0.8655  1.0785
   16DOPE  C314 2049   2.750   3.715  15.929 -0.2523 -0.2005 -0.6608
   16DOPE  H14X 2050   2.683   3.647  15.987  3.2649 -1.5319  2.1707
   16DOPE  H14Y 2051   2.832   3.647  15.899 -0.4687 -1.4388  1.3645
   16DOPE  C315 2052   2.697   3.782  15.794 -0.1908  0.3974  0.1020
   16DOPE  H15X 2053   2.676   3.695  15.727 -0.3585  1.1604 -0.8601
   16DOPE  H15Y 2054   2.775   3.848  15.752  1.7232 -1.6372  0.2791
   16DOPE  C316 2055   2.566   3.864  15.805  0.2090 -1.2303 -0.2809
   16DOPE  H16X 2056   2.558   3.943  15.726  0.5904  0.5500  1.3940
   16DOPE  H16Y 2057   2.564   3.919  15.901 -1.2967 -4.5777  1.7799
   16DOPE  C317 2058   2.438   3.778  15.790  0.3674 -0.6597 -0.2465
   16DOPE  H17X 2059   2.429   3.745  15.685 -1.9409  0.1661 -0.3652
   16DOPE  H17Y 2060   2.447   3.690  15.859 -1.2084  0.7200  1.8656
   16DOPE  C318 2061   2.311   3.856  15.837  0.2833  1.0540 -0.1256
   16DOPE  H18X 2062   2.306   3.958  15.793  1.4720  0.7693 -0.9318
   16DOPE  H18Y 2063   2.218   3.808  15.801  1.2335 -0.3215 -0.8040
   16DOPE  H18Z 2064   2.304   3.871  15.947 -1.7292  1.3872 -0.2472
   17DOPE     N 2065   5.206   0.665  16.815  0.1198 -0.1270 -0.1987
   17DOPE   HN1 2066   5.305   0.683  16.842  0.3957 -2.7787  0.9028
   17DOPE   HN2 2067   5.202   0.685  16.713  2.0467 -0.4087 -0.3718
   17DOPE   HN3 2068   5.145   0.738  16.856  1.3204  0.9021 -0.2121
   17DOPE   C12 2069   5.178   0.519  16.851  0.6973 -0.8263  0.1460
   17DOPE  H12A 2070   5.246   0.461  16.786 -1.4666 -3.4876  0.0492
   17DOPE  H12B 2071   5.072   0.497  16.825 -0.3147  1.2274  2.1730
   17DOPE   C11 2072   5.195   0.483  17.006 -0.0743 -0.1760 -0.0023
   17DOPE  H11A 2073   5.201   0.372  17.013  1.9086 -0.0311  1.5872
   17DOPE  H11B 2074   5.113   0.524  17.068 -1.2957  0.2414 -1.8169
   17DOPE     P 2075   5.414   0.466  17.163  0.1179 -0.1533 -0.4318
   17DOPE   O13 2076   5.338   0.412  17.276 -0.2311  0.2571 -0.5564
   17DOPE   O14 2077   5.525   0.561  17.189  0.0900 -0.1080 -0.2301
   17DOPE   O11 2078   5.477   0.356  17.079  0.7378  0.8160 -0.6229
   17DOPE   O12 2079   5.320   0.535  17.058 -0.0585 -0.4362  0.4137
   17DOPE    C1 2080   5.487   0.219  17.109  0.4439  0.4535  0.8376
   17DOPE    HA 2081   5.440   0.187  17.205  0.8045  1.3801  1.3344
   17DOPE    HB 2082   5.592   0.191  17.131  0.9506 -1.6006 -3.2263
   17DOPE    C2 2083   5.438   0.148  16.976 -0.5517 -0.0300 -0.7288
   17DOPE    HS 2084   5.493   0.200  16.895  0.6148 -3.4825 -2.3405
   17DOPE   O21 2085   5.296   0.160  16.982 -0.7507 -0.3112 -0.2649
   17DOPE   C21 2086   5.248   0.152  16.863 -0.0508 -0.2365  0.0123
   17DOPE   O22 2087   5.298   0.145  16.755  0.0704 -0.3674 -0.6511
   17DOPE   C22 2088   5.101   0.135  16.875 -0.3705  0.1942 -0.0498
   17DOPE   H2R 2089   5.046   0.214  16.820 -1.1586  0.9003  1.6958
   17DOPE   H2S 2090   5.079   0.143  16.984  2.4426 -0.1912  0.6204
   17DOPE    C3 2091   5.485   0.005  16.974 -0.4007  0.4314  0.5576
   17DOPE    HX 2092   5.426  -0.050  17.051 -0.7110 -0.9101 -0.6058
   17DOPE    HY 2093   5.590  -0.009  17.009 -0.2639  0.0749  0.0059
   17DOPE   O31 2094   5.480  -0.041  16.837 -0.2069  0.2304  0.5604
   17DOPE   C31 2095   5.417  -0.151  16.812  0.3123  0.4578  0.5693
   17DOPE   O32 2096   5.366  -0.227  16.892  0.4618  0.1773 -0.2835
   17DOPE   C32 2097   5.411  -0.171  16.659 -0.2251  0.2108  0.2872
   17DOPE   H2X 2098   5.366  -0.076  16.622 -0.5036  0.6831  1.8064
   17DOPE   H2Y 2099   5.517  -0.180  16.626 -0.4100 -0.2270 -0.2037
   17DOPE   C23 2100   5.042  -0.008  16.823 -0.5727 -0.4073  0.2156
   17DOPE   H3R 2101   4.943  -0.033  16.868  0.1476 -1.7307  1.1400
   17DOPE   H3S 2102   5.110  -0.091  16.853  1.5080  0.4936 -1.7594
   17DOPE   C24 2103   5.030  -0.007  16.667  0.1050 -0.3763  0.7680
   17DOPE   H4R 2104   5.132   0.001  16.623 -0.1273  0.9926  0.4352
   17DOPE   H4S 2105   4.981   0.088  16.638 -0.2243 -0.6965  0.2513
   17DOPE   C25 2106   4.947  -0.117  16.601  0.6904  0.4818  0.1221
   17DOPE   H5R 2107   4.847  -0.115  16.649  0.3564 -0.7754 -0.4759
   17DOPE   H5S 2108   5.000  -0.211  16.629 -0.0677  0.1430  0.4358
   17DOPE   C26 2109   4.924  -0.102  16.447 -0.3954  0.4332  0.8103
   17DOPE   H6R 2110   5.025  -0.078  16.408  0.8828 -1.2354  2.9044
   17DOPE   H6S 2111   4.852  -0.024  16.414 -0.2558  0.2107 -0.0358
   17DOPE   C27 2112   4.896  -0.244  16.384  0.5368 -0.8420 -0.1844
   17DOPE   H7R 2113   4.816  -0.289  16.448  1.7308 -1.8855  0.6161
   17DOPE   H7S 2114   4.986  -0.302  16.412 -0.1467 -0.8448  2.2796
   17DOPE   C28 2115   4.863  -0.230  16.234 -0.0246 -0.1536  0.2593
   17DOPE   H8R 2116   4.785  -0.154  16.215 -0.0967 -0.0171  1.0881
   17DOPE   H8S 2117   4.810  -0.324  16.206 -0.5182  0.1142  0.2994
   17DOPE   C29 2118   4.987  -0.210  16.148  0.2139  0.3544 -0.4193
   17DOPE   H9R 2119   5.051  -0.135  16.198 -2.4171  0.5259  3.0281
   17DOPE  C210 2120   5.008  -0.258  16.024  0.4942 -0.1723 -0.4163
   17DOPE  H10R 2121   5.098  -0.230  15.968 -0.0641  0.0175 -1.2472
   17DOPE  C211 2122   4.944  -0.377  15.955  0.0361 -0.5967 -0.1648
   17DOPE  H11R 2123   4.881  -0.436  16.026 -1.9479  2.3960  0.7543
   17DOPE  H11S 2124   5.024  -0.447  15.922  1.6948  0.8368  0.6650
   17DOPE  C212 2125   4.879  -0.344  15.817 -0.5514  0.0003  0.4337
   17DOPE  H12R 2126   4.926  -0.253  15.775 -1.2881 -0.1654 -0.7843
   17DOPE  H12S 2127   4.774  -0.311  15.833 -0.0453  1.3971  1.0450
   17DOPE  C213 2128   4.871  -0.464  15.721 -0.3520  0.5552 -0.2707
   17DOPE  H13R 2129   4.827  -0.545  15.784 -4.8407  1.3022 -2.0597
   17DOPE  H13S 2130   4.976  -0.495  15.701 -1.0871 -1.8038 -0.8365
   17DOPE  C214 2131   4.797  -0.442  15.589 -0.0162  0.3223  0.8429
   17DOPE  H14R 2132   4.866  -0.383  15.525  0.2290  0.0505  0.8539
   17DOPE  H14S 2133   4.703  -0.383  15.602  0.0629  0.5745  0.2930
   17DOPE  C215 2134   4.753  -0.565  15.510 -0.3490 -0.6368 -0.0759
   17DOPE  H15R 2135   4.703  -0.539  15.415 -2.7186  4.7490  2.2509
   17DOPE  H15S 2136   4.677  -0.623  15.567 -0.3146  0.2144  0.8646
   17DOPE  C216 2137   4.868  -0.667  15.497 -0.4099 -0.4487 -0.4015
   17DOPE  H16R 2138   4.872  -0.720  15.594 -0.3915 -1.1462 -0.7798
   17DOPE  H16S 2139   4.963  -0.615  15.470 -0.1096 -1.1856 -0.7852
   17DOPE  C217 2140   4.842  -0.767  15.382 -0.2932  0.3674  0.0926
   17DOPE  H17R 2141   4.837  -0.727  15.278  2.4137  1.1029  0.1625
   17DOPE  H17S 2142   4.749  -0.826  15.397  0.4499 -1.4244 -1.8781
   17DOPE  C218 2143   4.962  -0.869  15.372 -0.3743 -0.4246 -0.2454
   17DOPE  H18R 2144   5.054  -0.812  15.350  1.1667 -2.7764 -0.2551
   17DOPE  H18S 2145   4.943  -0.922  15.276  0.9137 -0.5969 -0.4245
   17DOPE  H18T 2146   4.992  -0.934  15.458  2.6191 -0.4398 -1.1989
   17DOPE   C33 2147   5.344  -0.297  16.615 -0.7594 -0.4656 -0.2630
   17DOPE   H3X 2148   5.249  -0.317  16.669 -0.8044 -1.7877 -0.8013
   17DOPE   H3Y 2149   5.408  -0.383  16.645 -1.3957 -1.1309 -0.7734
   17DOPE   C34 2150   5.309  -0.296  16.472 -0.1980  0.1145  0.0665
   17DOPE   H4X 2151   5.267  -0.394  16.442  1.0267  0.4859 -3.3314
   17DOPE   H4Y 2152   5.221  -0.228  16.462  1.3181  2.2099  0.2573
   17DOPE   C35 2153   5.412  -0.257  16.358 -0.1613  0.1236 -0.0217
   17DOPE   H5X 2154   5.507  -0.314  16.368  0.5829  1.0630 -1.4360
   17DOPE   H5Y 2155   5.440  -0.149  16.354 -0.3119  0.2650  1.7802
   17DOPE   C36 2156   5.357  -0.297  16.225  0.0824 -0.1236  0.1447
   17DOPE   H6X 2157   5.254  -0.256  16.226  0.7202  1.5744  0.8878
   17DOPE   H6Y 2158   5.347  -0.407  16.231 -1.7564  0.0634  1.1170
   17DOPE   C37 2159   5.447  -0.248  16.109 -0.1654  0.0714  0.1827
   17DOPE   H7X 2160   5.485  -0.146  16.133  1.3808 -0.9047  2.1249
   17DOPE   H7Y 2161   5.543  -0.302  16.121 -1.0592 -1.2594  1.6413
   17DOPE   C38 2162   5.408  -0.265  15.963  0.8297 -0.3818  0.1407
   17DOPE   H8X 2163   5.489  -0.223  15.899  0.9188 -1.3638 -0.4147
   17DOPE   H8Y 2164   5.316  -0.205  15.948  2.4307  2.7252  1.9121
   17DOPE   C39 2165   5.382  -0.409  15.933  0.0915  0.3722 -0.4947
   17DOPE   H9X 2166   5.314  -0.452  16.008  3.8032  0.2323  3.0710
   17DOPE  C310 2167   5.414  -0.473  15.817  0.0167  0.1355 -0.2416
   17DOPE  H10X 2168   5.401  -0.582  15.814  0.1319  0.0025  1.9860
   17DOPE  C311 2169   5.496  -0.412  15.707 -0.8709 -0.8300 -0.9428
   17DOPE  H11X 2170   5.488  -0.301  15.715  1.9035 -0.5275 -1.4048
   17DOPE  H11Y 2171   5.603  -0.435  15.724 -0.8498  0.2088  0.5882
   17DOPE  C312 2172   5.459  -0.429  15.567 -0.0851 -0.3884  0.5804
   17DOPE  H12X 2173   5.358  -0.396  15.535  0.5623  0.2921 -0.8517
   17DOPE  H12Y 2174   5.467  -0.536  15.537 -0.5366 -0.3085  0.1688
   17DOPE  C313 2175   5.562  -0.346  15.478 -0.0467 -0.7378  0.6525
   17DOPE  H13X 2176   5.539  -0.239  15.495  0.0158 -0.3991 -1.1949
   17DOPE  H13Y 2177   5.663  -0.369  15.520 -0.0272  2.4376  2.7121
   17DOPE  C314 2178   5.538  -0.363  15.324  0.0296  0.4203 -0.2215
   17DOPE  H14X 2179   5.434  -0.334  15.301 -0.3889  0.3164  1.3688
   17DOPE  H14Y 2180   5.537  -0.474  15.318 -0.1140  0.4095 -0.0138
   17DOPE  C315 2181   5.643  -0.312  15.226  0.0399  0.1642 -0.3239
   17DOPE  H15X 2182   5.683  -0.389  15.157 -2.3226 -1.9466  0.4719
   17DOPE  H15Y 2183   5.719  -0.271  15.295 -0.1047 -1.9379  1.1624
   17DOPE  C316 2184   5.574  -0.204  15.142 -0.2234 -0.1850 -0.1454
   17DOPE  H16X 2185   5.526  -0.134  15.215 -0.7325  1.6184 -2.1173
   17DOPE  H16Y 2186   5.491  -0.253  15.087 -0.8954  0.3724  0.3517
   17DOPE  C317 2187   5.670  -0.131  15.051 -0.5905 -0.3001  0.1245
   17DOPE  H17X 2188   5.746  -0.068  15.102  2.4571 -1.7778 -2.2468
   17DOPE  H17Y 2189   5.721  -0.219  15.006 -0.7450  0.2038 -1.0840
   17DOPE  C318 2190   5.603  -0.040  14.939  0.6324 -0.0565 -0.2162
   17DOPE  H18X 2191   5.556   0.047  14.988  0.8563  0.8058 -1.4663
   17DOPE  H18Y 2192   5.689  -0.020  14.871  1.6352  1.5949  1.4695
   17DOPE  H18Z 2193   5.527  -0.104  14.889 -2.0719  3.4183 -0.9896
   18DOPE     N 2194   2.808   3.249  17.815 -0.0688  0.2133 -0.1576
   18DOPE   HN1 2195   2.899   3.249  17.765 -1.0396 -0.4016 -2.0249
   18DOPE   HN2 2196   2.772   3.342  17.786  0.6679  0.9060  1.0786
   18DOPE   HN3 2197   2.827   3.246  17.917 -1.3090  0.3837  0.0966
   18DOPE   C12 2198   2.711   3.138  17.785 -0.6949 -0.8537 -0.2012
   18DOPE  H12A 2199   2.697   3.150  17.675  1.0808  1.5399 -0.2669
   18DOPE  H12B 2200   2.625   3.167  17.849 -0.8749 -0.4815 -0.6051
   18DOPE   C11 2201   2.774   3.003  17.832 -0.3024  0.0569 -0.0637
   18DOPE  H11A 2202   2.762   2.994  17.942  0.4415  2.8096  0.3121
   18DOPE  H11B 2203   2.881   2.994  17.801 -0.4633 -0.2687 -0.5403
   18DOPE     P 2204   2.740   2.775  17.699 -0.0259 -0.2051 -0.0604
   18DOPE   O13 2205   2.647   2.661  17.706 -0.7548 -0.1595 -0.2050
   18DOPE   O14 2206   2.877   2.748  17.731 -0.3752 -0.1464  0.3110
   18DOPE   O11 2207   2.737   2.837  17.555 -0.0309 -0.1854  0.8159
   18DOPE   O12 2208   2.693   2.899  17.783 -0.2362  0.1252 -0.7091
   18DOPE    C1 2209   2.627   2.905  17.491  0.6146 -0.0553 -0.0350
   18DOPE    HA 2210   2.664   2.993  17.435 -0.6655  0.0228 -0.8034
   18DOPE    HB 2211   2.553   2.943  17.566  0.6329 -1.3149  0.6457
   18DOPE    C2 2212   2.560   2.809  17.394 -0.5446 -0.0068 -0.0069
   18DOPE    HS 2213   2.542   2.717  17.455 -2.5771  1.2440  1.4124
   18DOPE   O21 2214   2.643   2.792  17.278 -0.4300 -0.4308  0.0228
   18DOPE   C21 2215   2.608   2.697  17.199  1.0711  0.3909 -0.4495
   18DOPE   O22 2216   2.529   2.611  17.220  0.3311 -0.2433 -0.2598
   18DOPE   C22 2217   2.670   2.728  17.062 -0.5398 -0.0843  0.3956
   18DOPE   H2R 2218   2.779   2.736  17.080 -0.2207  0.6895 -1.6439
   18DOPE   H2S 2219   2.628   2.820  17.017 -2.6972 -1.2305 -0.0927
   18DOPE    C3 2220   2.416   2.860  17.358  0.0202 -0.5987  0.3710
   18DOPE    HX 2221   2.364   2.896  17.448 -1.0092  0.4287 -0.6060
   18DOPE    HY 2222   2.357   2.779  17.310 -2.5102  2.2829 -1.7231
   18DOPE   O31 2223   2.428   2.977  17.276  0.3608 -0.3874  0.0315
   18DOPE   C31 2224   2.382   2.969  17.155  0.2598 -0.1996 -0.0225
   18DOPE   O32 2225   2.342   2.869  17.103  0.8942  0.7639 -0.2303
   18DOPE   C32 2226   2.381   3.102  17.085 -0.6846 -0.4351  0.1513
   18DOPE   H2X 2227   2.327   3.170  17.155 -0.8772  0.0093 -0.4284
   18DOPE   H2Y 2228   2.474   3.163  17.082 -1.3153  0.5693  0.3806
   18DOPE   C23 2229   2.644   2.613  16.959 -0.2074 -0.2284 -0.5628
   18DOPE   H3R 2230   2.538   2.578  16.960 -0.4547  0.5149 -0.0684
   18DOPE   H3S 2231   2.717   2.536  16.993 -0.6672  0.0843  1.2138
   18DOPE   C24 2232   2.675   2.670  16.814 -0.0713 -0.2198 -0.8548
   18DOPE   H4R 2233   2.778   2.712  16.822 -0.1894 -0.2737  1.5649
   18DOPE   H4S 2234   2.604   2.754  16.797  1.4278  1.4167  0.5479
   18DOPE   C25 2235   2.665   2.559  16.713  0.3786 -0.1194 -0.1194
   18DOPE   H5R 2236   2.596   2.477  16.741  1.2229 -0.7402  0.1980
   18DOPE   H5S 2237   2.766   2.514  16.710  1.3137  1.8695 -0.6034
   18DOPE   C26 2238   2.631   2.608  16.575 -0.3606 -0.1695 -0.1668
   18DOPE   H6R 2239   2.694   2.698  16.555  0.6277 -0.0170  3.1324
   18DOPE   H6S 2240   2.526   2.642  16.563  0.1467  1.6126  0.1080
   18DOPE   C27 2241   2.654   2.500  16.465  0.1523  0.0509  0.3434
   18DOPE   H7R 2242   2.580   2.417  16.466 -0.5150  0.5459 -1.8468
   18DOPE   H7S 2243   2.755   2.457  16.482  0.1683  0.1084  0.3940
   18DOPE   C28 2244   2.640   2.558  16.326 -0.0644 -0.4670  0.6684
   18DOPE   H8R 2245   2.707   2.646  16.326 -0.1762 -0.3303 -1.3165
   18DOPE   H8S 2246   2.535   2.592  16.315  0.0983 -0.2847 -0.5088
   18DOPE   C29 2247   2.684   2.459  16.217 -0.2131 -0.1824 -0.5320
   18DOPE   H9R 2248   2.793   2.453  16.204  0.0745  0.1225  1.3338
   18DOPE  C210 2249   2.606   2.395  16.132  0.1372 -0.3607 -1.0101
   18DOPE  H10R 2250   2.656   2.334  16.055 -0.0327  0.8336 -2.0954
   18DOPE  C211 2251   2.456   2.406  16.112  0.6137  0.1719  0.9699
   18DOPE  H11R 2252   2.414   2.488  16.174  2.7051  0.8099  1.6299
   18DOPE  H11S 2253   2.409   2.314  16.154 -0.5435 -0.0492 -0.7242
   18DOPE  C212 2254   2.422   2.418  15.956  0.1328 -0.2775 -0.1278
   18DOPE  H12R 2255   2.478   2.507  15.920  2.5577 -0.9531  1.7252
   18DOPE  H12S 2256   2.314   2.445  15.951 -0.0010 -0.8595 -0.4312
   18DOPE  C213 2257   2.463   2.291  15.879  0.2997  0.2223 -0.9401
   18DOPE  H13R 2258   2.389   2.209  15.895  1.1401 -0.2787  0.5607
   18DOPE  H13S 2259   2.564   2.252  15.906 -0.7020 -2.6925 -1.0051
   18DOPE  C214 2260   2.476   2.301  15.727 -1.0485 -0.2449  0.0509
   18DOPE  H14R 2261   2.511   2.205  15.683  1.0423  1.5074 -2.4442
   18DOPE  H14S 2262   2.544   2.386  15.707 -0.9327 -0.5467 -0.8971
   18DOPE  C215 2263   2.356   2.330  15.649 -0.0034  0.1825 -0.1213
   18DOPE  H15R 2264   2.311   2.429  15.673 -0.1514 -0.6706  3.8771
   18DOPE  H15S 2265   2.283   2.248  15.668  1.0319 -0.7805 -0.2195
   18DOPE  C216 2266   2.380   2.330  15.500  0.1083 -0.3294  0.5706
   18DOPE  H16R 2267   2.435   2.236  15.478  0.5833 -0.1427  0.9462
   18DOPE  H16S 2268   2.441   2.417  15.466 -0.0119  1.7008  4.9238
   18DOPE  C217 2269   2.254   2.330  15.413 -0.3289  0.0326  0.1100
   18DOPE  H17R 2270   2.284   2.364  15.312 -2.1126  2.1832  0.2223
   18DOPE  H17S 2271   2.191   2.416  15.446  0.0286  0.0369  0.8135
   18DOPE  C218 2272   2.180   2.202  15.399 -0.2342 -0.1808  0.3571
   18DOPE  H18R 2273   2.143   2.178  15.501  0.9900 -0.5599  0.7242
   18DOPE  H18S 2274   2.250   2.120  15.371  0.1012  0.1268  0.2939
   18DOPE  H18T 2275   2.099   2.194  15.323  2.4573 -0.1888 -2.7069
   18DOPE   C33 2276   2.322   3.100  16.941  0.0298  0.5191  0.1732
   18DOPE   H3X 2277   2.271   3.196  16.921  0.4596  0.4788 -1.2441
   18DOPE   H3Y 2278   2.242   3.025  16.922 -0.4441  1.2693 -0.8832
   18DOPE   C34 2279   2.441   3.089  16.839 -0.1120  0.1113 -0.1622
   18DOPE   H4X 2280   2.514   3.170  16.859 -0.5527  1.5693 -3.7728
   18DOPE   H4Y 2281   2.490   2.991  16.854  2.1077  1.2138  0.2506
   18DOPE   C35 2282   2.399   3.107  16.695  0.1995  0.7327 -0.2598
   18DOPE   H5X 2283   2.355   3.207  16.678  0.2787  0.9640  0.8716
   18DOPE   H5Y 2284   2.320   3.031  16.679  0.9157 -0.3209  1.0198
   18DOPE   C36 2285   2.515   3.088  16.592 -0.3935  0.0662  0.3273
   18DOPE   H6X 2286   2.552   2.984  16.606  0.1567  0.4139  1.5982
   18DOPE   H6Y 2287   2.586   3.171  16.614  0.9584 -1.0233  0.2534
   18DOPE   C37 2288   2.480   3.094  16.441  0.2944 -0.1234  0.2472
   18DOPE   H7X 2289   2.390   3.159  16.433 -0.4287 -0.8381  1.9667
   18DOPE   H7Y 2290   2.568   3.136  16.387 -0.1792 -0.5644 -0.8880
   18DOPE   C38 2291   2.455   2.951  16.382 -0.5918 -0.0577 -0.5302
   18DOPE   H8X 2292   2.376   2.905  16.444 -0.1522 -0.7982 -0.5045
   18DOPE   H8Y 2293   2.555   2.903  16.390 -1.0323 -1.1006 -1.1236
   18DOPE   C39 2294   2.407   2.966  16.242  0.3697  0.0323  0.0617
   18DOPE   H9X 2295   2.305   3.007  16.229 -0.7781 -2.9303 -1.1186
   18DOPE  C310 2296   2.453   2.904  16.132  0.3280 -0.4860 -0.0537
   18DOPE  H10X 2297   2.404   2.914  16.034  0.2307 -0.8186 -0.0405
   18DOPE  C311 2298   2.573   2.821  16.119 -0.0427 -0.2129 -0.3706
   18DOPE  H11X 2299   2.650   2.850  16.194  0.7082 -0.2711 -1.1075
   18DOPE  H11Y 2300   2.564   2.710  16.123  0.1166 -0.4321 -3.6391
   18DOPE  C312 2301   2.642   2.852  15.981 -0.4054  0.0604 -0.0155
   18DOPE  H12X 2302   2.585   2.814  15.894 -0.5164  0.1500  0.0178
   18DOPE  H12Y 2303   2.744   2.809  15.977 -0.5627 -0.3222  0.0554
   18DOPE  C313 2304   2.668   3.003  15.949  0.4664  0.4361  0.0246
   18DOPE  H13X 2305   2.574   3.062  15.949  1.0617  1.4818 -2.0231
   18DOPE  H13Y 2306   2.736   3.044  16.028 -0.1096 -0.5277  1.0515
   18DOPE  C314 2307   2.728   3.035  15.813  0.0419  0.2150 -0.3148
   18DOPE  H14X 2308   2.829   2.989  15.813  0.3392  0.7462  2.4225
   18DOPE  H14Y 2309   2.729   3.145  15.796 -0.5262  0.4894  1.2636
   18DOPE  C315 2310   2.651   2.977  15.685  0.1309 -0.2927  0.0850
   18DOPE  H15X 2311   2.541   2.982  15.698  0.4612  1.2080  3.2171
   18DOPE  H15Y 2312   2.682   2.871  15.667  0.7013  0.3462 -3.2593
   18DOPE  C316 2313   2.684   3.041  15.547 -0.0720 -0.8278  0.0018
   18DOPE  H16X 2314   2.703   3.149  15.564  1.7284 -1.2386  0.8354
   18DOPE  H16Y 2315   2.597   3.023  15.480  0.8274  0.5468 -1.5832
   18DOPE  C317 2316   2.812   2.980  15.486  0.5507  0.0618  1.0373
   18DOPE  H17X 2317   2.900   3.002  15.550  0.2686 -0.7972  1.7195
   18DOPE  H17Y 2318   2.796   2.871  15.478 -2.0972  0.4177  0.8215
   18DOPE  C318 2319   2.831   3.036  15.348  0.3951  0.8183 -0.0016
   18DOPE  H18X 2320   2.746   3.007  15.284  0.5541  1.7734 -0.6653
   18DOPE  H18Y 2321   2.851   3.145  15.348  2.0405  0.5451  0.0134
   18DOPE  H18Z 2322   2.916   2.996  15.289 -1.2216  0.2453 -2.0462
   19DOPE     N 2323   2.645   3.982  17.769  0.4163  0.4296 -0.2227
   19DOPE   HN1 2324   2.739   3.973  17.811  2.1608 -0.1796 -3.8880
   19DOPE   HN2 2325   2.648   3.935  17.677  3.1950 -2.0099  0.9590
   19DOPE   HN3 2326   2.621   4.084  17.765  0.4627  0.4047 -1.8047
   19DOPE   C12 2327   2.533   3.923  17.857 -0.2904  0.1792 -0.2193
   19DOPE  H12A 2328   2.445   3.990  17.861 -0.2993  0.2037 -0.6998
   19DOPE  H12B 2329   2.582   3.921  17.957 -1.6942  1.4698  0.5279
   19DOPE   C11 2330   2.488   3.785  17.806 -1.0374  0.1989  0.6570
   19DOPE  H11A 2331   2.448   3.804  17.704 -1.6689  0.6707  0.9832
   19DOPE  H11B 2332   2.412   3.749  17.879 -1.9063  0.4975 -0.0814
   19DOPE     P 2333   2.565   3.544  17.765 -0.5445  0.1631 -0.4536
   19DOPE   O13 2334   2.454   3.543  17.668 -0.0886 -0.2955  0.0323
   19DOPE   O14 2335   2.529   3.474  17.887  0.6774  0.3522  0.0454
   19DOPE   O11 2336   2.695   3.478  17.709  0.0669  0.2372 -0.4932
   19DOPE   O12 2337   2.598   3.694  17.802 -0.3015 -0.6388 -0.8447
   19DOPE    C1 2338   2.811   3.552  17.674 -0.5321  0.4234  0.1623
   19DOPE    HA 2339   2.899   3.492  17.643 -0.6473  0.7290 -0.7930
   19DOPE    HB 2340   2.847   3.621  17.753 -0.8364  3.9777 -2.5528
   19DOPE    C2 2341   2.775   3.635  17.547 -0.1527  0.5254  0.0708
   19DOPE    HS 2342   2.675   3.681  17.558 -0.4326  0.0650 -0.5339
   19DOPE   O21 2343   2.774   3.549  17.426  0.5511 -0.1329  0.0366
   19DOPE   C21 2344   2.690   3.580  17.332 -0.3421 -1.2507 -0.1488
   19DOPE   O22 2345   2.588   3.646  17.344  0.3741 -0.2010 -0.6027
   19DOPE   C22 2346   2.736   3.513  17.204  0.2436  0.0927  0.1722
   19DOPE   H2R 2347   2.755   3.407  17.233  1.1477  0.8838  2.8675
   19DOPE   H2S 2348   2.826   3.569  17.172  1.0333 -1.1298  0.1796
   19DOPE    C3 2349   2.866   3.760  17.522  0.1888  0.1349  0.4876
   19DOPE    HX 2350   2.972   3.726  17.514 -0.3009 -1.2111 -0.6770
   19DOPE    HY 2351   2.872   3.817  17.617  2.2928  0.1902  0.3770
   19DOPE   O31 2352   2.827   3.839  17.407  0.5406  0.2160  0.0943
   19DOPE   C31 2353   2.719   3.913  17.421 -0.4189  0.1911 -0.1103
   19DOPE   O32 2354   2.652   3.918  17.521  0.0911  0.7676  1.1354
   19DOPE   C32 2355   2.688   3.997  17.291 -0.8280  0.2429 -0.0721
   19DOPE   H2X 2356   2.651   4.096  17.325  1.2408  1.4758 -1.2104
   19DOPE   H2Y 2357   2.785   3.996  17.237  0.2355 -1.5783  1.7182
   19DOPE   C23 2358   2.626   3.514  17.102 -0.2618  0.3399 -1.0430
   19DOPE   H3R 2359   2.558   3.601  17.106  0.3045  0.8756 -2.3559
   19DOPE   H3S 2360   2.555   3.434  17.130 -0.8546  1.0880 -0.3943
   19DOPE   C24 2361   2.670   3.497  16.961  0.0148 -0.4101 -0.2815
   19DOPE   H4R 2362   2.724   3.402  16.941 -0.7099 -0.2773 -3.3295
   19DOPE   H4S 2363   2.758   3.562  16.944  1.2806 -1.8726  0.4311
   19DOPE   C25 2364   2.555   3.517  16.859  0.8214 -0.2763  0.8884
   19DOPE   H5R 2365   2.517   3.622  16.858 -0.2934 -0.6680  0.7636
   19DOPE   H5S 2366   2.483   3.435  16.882  0.9594 -1.0139 -1.1103
   19DOPE   C26 2367   2.600   3.486  16.714  0.0758  0.4618 -0.3557
   19DOPE   H6R 2368   2.624   3.378  16.720 -2.1643 -0.1174 -0.8550
   19DOPE   H6S 2369   2.692   3.540  16.682  0.6181 -0.3678 -0.2255
   19DOPE   C27 2370   2.491   3.522  16.617  0.5380 -0.3336  0.2542
   19DOPE   H7R 2371   2.483   3.633  16.619 -0.3098 -0.3436 -1.2014
   19DOPE   H7S 2372   2.398   3.478  16.658 -0.0426  0.4739 -0.1716
   19DOPE   C28 2373   2.516   3.464  16.480 -0.5572 -0.1835  0.2504
   19DOPE   H8R 2374   2.533   3.354  16.485 -0.6631 -0.1892  0.5108
   19DOPE   H8S 2375   2.611   3.501  16.437 -1.7294  1.6872 -0.9018
   19DOPE   C29 2376   2.398   3.497  16.397  0.1248 -0.2278  0.2834
   19DOPE   H9R 2377   2.313   3.548  16.444  0.6594  0.6803  0.2942
   19DOPE  C210 2378   2.400   3.489  16.265  0.4311  0.0652 -0.0882
   19DOPE  H10R 2379   2.310   3.520  16.210 -1.5956  1.3420  3.6108
   19DOPE  C211 2380   2.509   3.433  16.175 -1.0475  1.0526  0.5714
   19DOPE  H11R 2381   2.589   3.381  16.232  0.8034  0.8841 -1.9840
   19DOPE  H11S 2382   2.563   3.506  16.110  1.7775 -1.5419 -0.2350
   19DOPE  C212 2383   2.442   3.313  16.098  0.3733  0.9497 -0.1716
   19DOPE  H12R 2384   2.371   3.256  16.162  0.8580 -0.1165 -0.5553
   19DOPE  H12S 2385   2.523   3.241  16.072  0.4163  0.9897 -0.1486
   19DOPE  C213 2386   2.365   3.343  15.970 -0.2127 -0.5292  0.2116
   19DOPE  H13R 2387   2.281   3.415  15.983  1.0944  1.1030 -0.0155
   19DOPE  H13S 2388   2.322   3.246  15.938  2.1648 -1.5624 -0.0646
   19DOPE  C214 2389   2.453   3.378  15.849 -0.0455 -0.2241 -0.0820
   19DOPE  H14R 2390   2.530   3.298  15.846 -2.7604 -3.0005 -3.6754
   19DOPE  H14S 2391   2.511   3.469  15.875 -1.3172 -0.3676  4.0056
   19DOPE  C215 2392   2.393   3.397  15.713  0.0672  0.5096 -0.7792
   19DOPE  H15R 2393   2.422   3.493  15.666  2.4188  0.9712  1.3853
   19DOPE  H15S 2394   2.284   3.385  15.734  0.3315 -0.3548  0.2158
   19DOPE  C216 2395   2.438   3.279  15.615 -0.0354 -0.5653 -1.1492
   19DOPE  H16R 2396   2.418   3.180  15.662  0.8928 -0.5026 -0.6265
   19DOPE  H16S 2397   2.545   3.300  15.595  0.2496 -0.1353  0.6901
   19DOPE  C217 2398   2.353   3.294  15.483 -0.0943 -0.7132 -0.1209
   19DOPE  H17R 2399   2.375   3.395  15.441  0.9097 -0.4495  0.9794
   19DOPE  H17S 2400   2.245   3.293  15.506  0.1453  3.6846  2.3349
   19DOPE  C218 2401   2.398   3.185  15.385  0.4692  0.7552  0.5062
   19DOPE  H18R 2402   2.499   3.220  15.355  0.6860 -0.0917  0.2232
   19DOPE  H18S 2403   2.320   3.170  15.308 -0.6359  0.3230  1.6808
   19DOPE  H18T 2404   2.407   3.088  15.438 -0.0207 -0.8677 -2.2365
   19DOPE   C33 2405   2.584   3.930  17.202  0.5234 -0.4950 -0.4519
   19DOPE   H3X 2406   2.485   3.932  17.252  0.8037 -0.2708  0.0953
   19DOPE   H3Y 2407   2.615   3.825  17.184 -0.2917 -0.9259  0.5630
   19DOPE   C34 2408   2.564   4.007  17.068 -0.9029  0.5221 -0.2318
   19DOPE   H4X 2409   2.549   4.117  17.076  0.8962  1.1796 -3.9499
   19DOPE   H4Y 2410   2.653   3.992  17.004 -0.1965 -0.7355  0.9755
   19DOPE   C35 2411   2.433   3.960  17.004 -0.4175 -0.7971 -0.2326
   19DOPE   H5X 2412   2.351   3.976  17.078  0.3616 -0.5877  0.5994
   19DOPE   H5Y 2413   2.446   3.853  16.976 -0.3111 -0.5470 -1.1627
   19DOPE   C36 2414   2.394   4.039  16.872  0.2684 -0.3031 -0.0555
   19DOPE   H6X 2415   2.477   4.112  16.863 -0.7237  0.9713  0.8491
   19DOPE   H6Y 2416   2.306   4.105  16.882  0.9104  0.3712  1.4131
   19DOPE   C37 2417   2.383   3.946  16.753  0.4761 -0.0294  0.7532
   19DOPE   H7X 2418   2.482   3.900  16.736  0.0211 -0.5921 -0.4949
   19DOPE   H7Y 2419   2.315   3.863  16.782 -0.2176  0.0859 -0.4839
   19DOPE   C38 2420   2.344   4.015  16.617  0.6105  0.2373 -0.5011
   19DOPE   H8X 2421   2.420   4.091  16.588  0.1892  0.2733 -1.5583
   19DOPE   H8Y 2422   2.251   4.075  16.628  0.3352 -0.4653  1.3344
   19DOPE   C39 2423   2.323   3.914  16.500  0.1029 -0.0366  0.5912
   19DOPE   H9X 2424   2.286   3.816  16.533  1.4582 -0.6352  0.3937
   19DOPE  C310 2425   2.378   3.921  16.376  0.3935 -0.8008 -0.1792
   19DOPE  H10X 2426   2.363   3.841  16.302  0.9023 -1.2314  0.1729
   19DOPE  C311 2427   2.448   4.046  16.320  0.4830 -0.6784 -0.1027
   19DOPE  H11X 2428   2.446   4.141  16.377 -0.0048 -0.8428  0.1659
   19DOPE  H11Y 2429   2.558   4.036  16.310  0.5373 -1.2000  0.8886
   19DOPE  C312 2430   2.378   4.081  16.183  0.3529  0.0279 -0.2097
   19DOPE  H12X 2431   2.371   3.984  16.129 -0.6875  0.0246 -0.0919
   19DOPE  H12Y 2432   2.453   4.142  16.130  2.0377  0.0084  2.0130
   19DOPE  C313 2433   2.240   4.154  16.202  0.1051  0.0072  0.5973
   19DOPE  H13X 2434   2.171   4.101  16.271  0.0301 -1.5165 -0.6060
   19DOPE  H13Y 2435   2.246   4.256  16.248 -1.2817 -0.2539  1.4020
   19DOPE  C314 2436   2.166   4.169  16.066 -0.0800  1.0907 -0.3734
   19DOPE  H14X 2437   2.070   4.226  16.069  0.2408  1.5876  0.9008
   19DOPE  H14Y 2438   2.141   4.067  16.029 -0.2730  0.4770  1.3533
   19DOPE  C315 2439   2.251   4.247  15.966 -0.6715 -0.3466  0.5315
   19DOPE  H15X 2440   2.353   4.205  15.950 -1.3019 -0.8781 -3.0728
   19DOPE  H15Y 2441   2.263   4.353  15.996  1.8112 -0.6206  0.6973
   19DOPE  C316 2442   2.190   4.235  15.822 -0.1248  0.9396  0.3658
   19DOPE  H16X 2443   2.088   4.277  15.815 -1.5170 -2.4354 -1.9760
   19DOPE  H16Y 2444   2.159   4.130  15.806 -0.6014  0.6023  3.0754
   19DOPE  C317 2445   2.280   4.281  15.703  0.0139 -0.2426  0.7385
   19DOPE  H17X 2446   2.306   4.387  15.720  1.3630 -0.4288 -0.0385
   19DOPE  H17Y 2447   2.380   4.235  15.717  1.4117  1.9014 -1.3706
   19DOPE  C318 2448   2.218   4.273  15.563  0.4539  0.3535 -0.4327
   19DOPE  H18X 2449   2.184   4.169  15.546  1.1172 -0.1116  0.9236
   19DOPE  H18Y 2450   2.136   4.348  15.566 -1.4299 -1.4683 -2.8931
   19DOPE  H18Z 2451   2.285   4.315  15.486 -1.2380  1.0635 -1.5708
   20DOPE     N 2452   2.685   6.555  17.227  0.1140 -0.0601 -0.0602
   20DOPE   HN1 2453   2.601   6.500  17.254 -0.1990 -0.2960 -1.4424
   20DOPE   HN2 2454   2.776   6.516  17.258  0.0277 -1.6472 -1.6982
   20DOPE   HN3 2455   2.680   6.651  17.267 -1.3149 -0.3550  0.5169
   20DOPE   C12 2456   2.694   6.566  17.082 -0.0286 -0.7199 -0.4131
   20DOPE  H12A 2457   2.714   6.460  17.052 -0.6527 -1.3276  1.1921
   20DOPE  H12B 2458   2.785   6.627  17.062 -1.6736  2.1057  0.1997
   20DOPE   C11 2459   2.569   6.641  17.029  0.9652  0.2474  0.6525
   20DOPE  H11A 2460   2.479   6.575  17.031  0.9249  0.2627 -0.1793
   20DOPE  H11B 2461   2.570   6.658  16.919 -1.9023 -1.8802  0.1647
   20DOPE     P 2462   2.422   6.842  17.131  0.1853 -0.2441 -0.0844
   20DOPE   O13 2463   2.446   6.975  17.190 -0.3278 -0.4528 -0.1506
   20DOPE   O14 2464   2.345   6.746  17.207 -0.4244  0.2223 -0.7719
   20DOPE   O11 2465   2.358   6.851  16.983 -0.2014  0.0155 -0.1261
   20DOPE   O12 2466   2.554   6.767  17.101  0.1123  0.5124  0.0846
   20DOPE    C1 2467   2.382   6.966  16.903 -0.0333 -0.1232  0.5986
   20DOPE    HA 2468   2.486   7.003  16.906 -0.8438  2.6154 -1.4460
   20DOPE    HB 2469   2.323   7.048  16.949  0.5603  2.5394 -2.9745
   20DOPE    C2 2470   2.328   6.941  16.762  0.9448 -0.0083 -0.1009
   20DOPE    HS 2471   2.371   7.028  16.709 -1.1087  3.5783  3.5971
   20DOPE   O21 2472   2.186   6.971  16.772 -0.7836 -0.0913  0.5290
   20DOPE   C21 2473   2.139   7.071  16.693 -0.1412 -0.1098 -0.2564
   20DOPE   O22 2474   2.206   7.139  16.617  0.1352  0.3002 -0.6480
   20DOPE   C22 2475   1.987   7.087  16.703  0.0348  0.4078 -0.6565
   20DOPE   H2R 2476   1.970   7.177  16.766  0.7360 -0.4490  0.8217
   20DOPE   H2S 2477   1.949   7.002  16.764  0.6060 -0.4974 -1.5496
   20DOPE    C3 2478   2.369   6.803  16.702 -0.0029 -0.1935 -0.4364
   20DOPE    HX 2479   2.317   6.715  16.747  0.2722 -0.0326  0.2095
   20DOPE    HY 2480   2.471   6.790  16.743  0.9465  2.2130 -1.8346
   20DOPE   O31 2481   2.361   6.795  16.556 -0.0589  0.6354 -0.0351
   20DOPE   C31 2482   2.460   6.856  16.489 -0.0072  0.0375 -1.0949
   20DOPE   O32 2483   2.550   6.921  16.540  0.6483 -0.2265 -0.0294
   20DOPE   C32 2484   2.442   6.827  16.341  0.2246  0.1137  0.5123
   20DOPE   H2X 2485   2.483   6.725  16.326 -0.0209 -0.1288  1.4397
   20DOPE   H2Y 2486   2.334   6.837  16.317 -0.0322 -1.7541  0.7902
   20DOPE   C23 2487   1.922   7.101  16.569 -0.2980  0.1483 -0.0442
   20DOPE   H3R 2488   1.987   7.176  16.519 -0.3057  0.2125  0.0443
   20DOPE   H3S 2489   1.822   7.146  16.585  0.1909  1.4033 -0.4076
   20DOPE   C24 2490   1.916   6.979  16.472 -0.6264 -0.7442  0.1079
   20DOPE   H4R 2491   1.850   6.901  16.515 -1.1945  0.0639  0.7296
   20DOPE   H4S 2492   2.019   6.938  16.466  0.1183  0.9189  0.9616
   20DOPE   C25 2493   1.864   7.030  16.343  0.5201  0.5217  0.5179
   20DOPE   H5R 2494   1.920   7.122  16.313 -0.0367  0.7859  0.2675
   20DOPE   H5S 2495   1.758   7.058  16.358 -0.2206 -1.6601 -0.3998
   20DOPE   C26 2496   1.879   6.921  16.229 -0.2793  0.2258 -0.3143
   20DOPE   H6R 2497   1.824   6.834  16.271 -1.3338  1.2064  0.4115
   20DOPE   H6S 2498   1.983   6.882  16.223 -0.4367 -0.3278  0.3496
   20DOPE   C27 2499   1.821   6.956  16.088 -0.2089  0.0396  0.2598
   20DOPE   H7R 2500   1.852   6.873  16.022 -0.5343  1.7512 -2.1896
   20DOPE   H7S 2501   1.857   7.054  16.048 -3.7473  0.9095 -1.1685
   20DOPE   C28 2502   1.672   6.972  16.088  0.1220 -0.1976 -0.2916
   20DOPE   H8R 2503   1.649   7.047  16.167 -1.8238 -0.0869 -0.9261
   20DOPE   H8S 2504   1.623   6.878  16.122  0.4379  0.1194  1.0950
   20DOPE   C29 2505   1.620   7.021  15.954 -0.1629  0.0491 -0.6589
   20DOPE   H9R 2506   1.610   7.131  15.949 -0.7887  0.0433  0.2164
   20DOPE  C210 2507   1.578   6.943  15.849  0.4530 -0.7226 -0.7723
   20DOPE  H10R 2508   1.548   6.996  15.757 -0.0439 -0.6439 -0.5703
   20DOPE  C211 2509   1.586   6.801  15.849 -0.0447 -0.3228  0.3846
   20DOPE  H11R 2510   1.546   6.754  15.942 -0.3216 -0.3413  0.2601
   20DOPE  H11S 2511   1.692   6.770  15.836 -0.3669 -1.0717 -0.6305
   20DOPE  C212 2512   1.522   6.733  15.724 -0.7895 -0.2240  0.2936
   20DOPE  H12R 2513   1.412   6.750  15.719 -0.9786 -1.5723 -2.3969
   20DOPE  H12S 2514   1.526   6.622  15.726 -1.4249 -0.2511  0.2624
   20DOPE  C213 2515   1.594   6.777  15.594  0.4058 -0.8491  0.2607
   20DOPE  H13R 2516   1.702   6.749  15.597  1.5245  2.6086 -1.4481
   20DOPE  H13S 2517   1.578   6.887  15.593 -2.4503 -1.1950  0.4801
   20DOPE  C214 2518   1.520   6.718  15.469 -0.8242 -0.3724 -0.3606
   20DOPE  H14R 2519   1.413   6.743  15.482 -0.6551  0.2234 -0.1157
   20DOPE  H14S 2520   1.530   6.607  15.473 -1.1963 -0.3773  0.6892
   20DOPE  C215 2521   1.586   6.782  15.337  0.0421  0.2041 -0.6186
   20DOPE  H15R 2522   1.672   6.713  15.319 -0.6675 -0.6707 -0.7654
   20DOPE  H15S 2523   1.608   6.889  15.353  0.7311 -0.1576  1.0728
   20DOPE  C216 2524   1.492   6.768  15.217 -0.1320 -0.5509 -0.8728
   20DOPE  H16R 2525   1.457   6.665  15.196 -0.7661 -0.3137 -0.9942
   20DOPE  H16S 2526   1.551   6.801  15.129 -0.1674 -0.8191 -0.9973
   20DOPE  C217 2527   1.367   6.859  15.229  0.0030  0.2662 -0.0022
   20DOPE  H17R 2528   1.400   6.965  15.228  1.8492 -0.2200 -2.4800
   20DOPE  H17S 2529   1.321   6.844  15.329 -1.4992  0.4597 -0.6280
   20DOPE  C218 2530   1.263   6.840  15.124  0.9404 -0.2891 -0.3461
   20DOPE  H18R 2531   1.285   6.893  15.029 -1.8917  0.9876 -0.3746
   20DOPE  H18S 2532   1.159   6.872  15.148  0.2560 -2.3168 -0.3722
   20DOPE  H18T 2533   1.266   6.731  15.104  0.3709 -0.3227 -0.2730
   20DOPE   C33 2534   2.509   6.926  16.238  0.1260  0.3005 -0.7156
   20DOPE   H3X 2535   2.613   6.945  16.270 -0.0650 -1.4234  1.1339
   20DOPE   H3Y 2536   2.459   7.025  16.241  1.5199  1.1583 -3.0809
   20DOPE   C34 2537   2.494   6.867  16.096  0.4677  0.5015  0.0296
   20DOPE   H4X 2538   2.557   6.932  16.031  0.5567 -1.1908 -1.6878
   20DOPE   H4Y 2539   2.535   6.764  16.090 -1.4109 -0.2027 -2.5556
   20DOPE   C35 2540   2.356   6.850  16.029 -0.5072 -0.4432  0.1346
   20DOPE   H5X 2541   2.271   6.811  16.089 -0.3879 -1.6407 -0.4475
   20DOPE   H5Y 2542   2.359   6.784  15.939 -0.8814 -0.1275 -0.1157
   20DOPE   C36 2543   2.312   6.983  15.969 -0.3466 -0.2719  0.0719
   20DOPE   H6X 2544   2.388   7.020  15.898 -2.0888  0.9307 -1.2740
   20DOPE   H6Y 2545   2.301   7.057  16.052 -0.5295 -0.3710  0.1369
   20DOPE   C37 2546   2.181   6.973  15.888 -0.0319 -0.5633  0.3464
   20DOPE   H7X 2547   2.195   6.887  15.818  3.1525 -0.2239  0.4450
   20DOPE   H7Y 2548   2.096   6.954  15.958  1.5612  1.5000  3.0122
   20DOPE   C38 2549   2.144   7.108  15.817  0.6252  0.2987  0.4296
   20DOPE   H8X 2550   2.234   7.137  15.758  1.5725 -1.0878  1.1647
   20DOPE   H8Y 2551   2.117   7.189  15.887  0.2522 -1.1111  1.9730
   20DOPE   C39 2552   2.026   7.089  15.720 -0.1501 -0.9905  0.3414
   20DOPE   H9X 2553   1.928   7.124  15.754  0.3225 -0.9681  1.7588
   20DOPE  C310 2554   2.028   7.025  15.602 -0.1691 -0.1731 -0.3949
   20DOPE  H10X 2555   1.934   7.000  15.552  0.3829 -1.3333 -0.8722
   20DOPE  C311 2556   2.141   6.946  15.548 -0.5676 -0.0301  0.0156
   20DOPE  H11X 2557   2.236   6.987  15.588 -0.0552 -1.0692 -0.0883
   20DOPE  H11Y 2558   2.132   6.843  15.589 -2.5334 -0.8153 -2.1785
   20DOPE  C312 2559   2.154   6.934  15.394  0.3484 -0.0578  0.4483
   20DOPE  H12X 2560   2.258   6.900  15.379 -0.5168 -1.9923 -1.8061
   20DOPE  H12Y 2561   2.146   7.033  15.344  0.2788 -0.6603 -0.7706
   20DOPE  C313 2562   2.066   6.827  15.314 -0.1914 -0.0375 -0.0438
   20DOPE  H13X 2563   2.095   6.722  15.333  0.2234 -0.2036 -1.4554
   20DOPE  H13Y 2564   1.967   6.851  15.359 -0.4631  1.3400 -1.2807
   20DOPE  C314 2565   2.070   6.855  15.160  0.1954 -0.2796 -0.7035
   20DOPE  H14X 2566   2.173   6.846  15.120  0.2378 -1.4298 -0.3524
   20DOPE  H14Y 2567   2.029   6.954  15.129 -0.7795 -0.2150  0.7086
   20DOPE  C315 2568   1.978   6.753  15.083  0.2851  0.2028 -0.3666
   20DOPE  H15X 2569   1.883   6.749  15.140  1.2126  1.5051  1.3699
   20DOPE  H15Y 2570   2.030   6.657  15.066 -1.3610 -0.9301  0.6869
   20DOPE  C316 2571   1.949   6.805  14.938 -0.2399 -1.1682  0.2523
   20DOPE  H16X 2572   2.044   6.804  14.881 -0.5601 -0.4046 -0.3091
   20DOPE  H16Y 2573   1.906   6.907  14.952  2.1995 -0.3211  2.4415
   20DOPE  C317 2574   1.835   6.727  14.872  0.0645  0.3172 -0.6863
   20DOPE  H17X 2575   1.756   6.696  14.943  0.4417 -1.1133 -0.8637
   20DOPE  H17Y 2576   1.793   6.797  14.796 -1.0540  1.6645  1.1143
   20DOPE  C318 2577   1.892   6.605  14.791 -0.4280  1.0483 -0.3828
   20DOPE  H18X 2578   1.819   6.565  14.719 -0.9251  0.5095  0.4038
   20DOPE  H18Y 2579   1.979   6.646  14.735  1.4826 -1.7519  0.3264
   20DOPE  H18Z 2580   1.922   6.517  14.853  0.2452  1.6971  0.2402
   21DOPE     N 2581   5.660   0.689  16.980  0.1145  0.2817  0.0240
   21DOPE   HN1 2582   5.673   0.639  17.071  1.8237  0.3067 -0.1764
   21DOPE   HN2 2583   5.720   0.774  16.981  1.5761 -0.7028 -0.4970
   21DOPE   HN3 2584   5.561   0.714  16.962  0.1540  0.3186 -0.1414
   21DOPE   C12 2585   5.711   0.598  16.869 -0.0458 -0.2964 -0.1578
   21DOPE  H12A 2586   5.718   0.655  16.774  0.6347  1.0442  0.6535
   21DOPE  H12B 2587   5.630   0.523  16.854  1.3789 -1.3407 -3.4054
   21DOPE   C11 2588   5.847   0.541  16.898  0.0313 -0.4036  0.3708
   21DOPE  H11A 2589   5.929   0.616  16.899  0.1568 -0.5185 -0.3718
   21DOPE  H11B 2590   5.868   0.483  16.805 -0.1240  1.7994 -1.1394
   21DOPE     P 2591   5.936   0.330  17.037  0.5035 -0.3143 -0.6340
   21DOPE   O13 2592   5.887   0.268  17.160 -0.0926  0.1932  0.5201
   21DOPE   O14 2593   6.073   0.370  17.037 -0.2497 -0.7235  0.6988
   21DOPE   O11 2594   5.922   0.244  16.902 -0.2762  0.3412 -0.1585
   21DOPE   O12 2595   5.844   0.459  17.011 -0.4619  0.1681 -0.2685
   21DOPE    C1 2596   5.789   0.214  16.854  0.4150  0.1361  0.6150
   21DOPE    HA 2597   5.714   0.293  16.876  0.7975  2.1518 -4.1696
   21DOPE    HB 2598   5.758   0.121  16.905  2.3581 -0.8656  0.0621
   21DOPE    C2 2599   5.799   0.183  16.700 -0.3173  0.3693 -0.3921
   21DOPE    HS 2600   5.900   0.137  16.685  0.3761  2.1183 -1.3137
   21DOPE   O21 2601   5.798   0.313  16.631  0.2053 -1.4547 -0.8442
   21DOPE   C21 2602   5.875   0.303  16.521  0.2473 -0.0824 -0.1320
   21DOPE   O22 2603   5.953   0.217  16.489 -0.5092 -0.0827  0.2424
   21DOPE   C22 2604   5.846   0.420  16.433 -0.1091 -0.3307  0.4750
   21DOPE   H2R 2605   5.925   0.494  16.461  1.1938 -1.9644  1.3249
   21DOPE   H2S 2606   5.742   0.453  16.451 -0.2330 -1.0138  1.0393
   21DOPE    C3 2607   5.695   0.073  16.656 -0.1955  0.2974  0.3812
   21DOPE    HX 2608   5.596   0.112  16.689 -0.4017 -1.1497  1.5887
   21DOPE    HY 2609   5.702  -0.020  16.716  0.8689  0.1375  0.0216
   21DOPE   O31 2610   5.690   0.061  16.511 -0.4167  0.1178 -0.6346
   21DOPE   C31 2611   5.758  -0.049  16.472  0.0347  0.1164  0.6810
   21DOPE   O32 2612   5.817  -0.127  16.542  0.3712  0.3388 -0.7567
   21DOPE   C32 2613   5.778  -0.046  16.325 -0.5464  0.1092  0.0015
   21DOPE   H2X 2614   5.678  -0.043  16.277  0.1429 -1.3293 -1.6255
   21DOPE   H2Y 2615   5.830   0.050  16.305  0.6591 -0.6597 -0.6852
   21DOPE   C23 2616   5.885   0.389  16.287  0.3600 -0.2649 -0.0099
   21DOPE   H3R 2617   5.967   0.315  16.278  1.7099  1.0547  0.8083
   21DOPE   H3S 2618   5.910   0.483  16.233 -0.4849  0.2472  0.4701
   21DOPE   C24 2619   5.767   0.332  16.208  0.0440 -0.0703 -0.4234
   21DOPE   H4R 2620   5.681   0.401  16.224  0.0522 -0.2589  0.5284
   21DOPE   H4S 2621   5.725   0.238  16.252 -0.0279  1.0354  2.0615
   21DOPE   C25 2622   5.783   0.323  16.059  0.8979 -0.0423  0.1053
   21DOPE   H5R 2623   5.873   0.261  16.040  0.8453 -0.2037  0.3767
   21DOPE   H5S 2624   5.804   0.426  16.023 -0.0540 -0.5459 -2.1079
   21DOPE   C26 2625   5.661   0.261  15.978 -0.1685 -0.0415  0.0347
   21DOPE   H6R 2626   5.577   0.333  15.981 -0.0399  0.1489 -0.6390
   21DOPE   H6S 2627   5.637   0.163  16.025  2.6198  0.3227  2.5630
   21DOPE   C27 2628   5.670   0.244  15.824 -0.3935 -0.5827  0.4104
   21DOPE   H7R 2629   5.584   0.190  15.781 -1.1900  0.8390  0.1726
   21DOPE   H7S 2630   5.759   0.184  15.793 -0.8711 -0.6994 -0.7725
   21DOPE   C28 2631   5.671   0.378  15.752  0.2953  0.4230  0.2567
   21DOPE   H8R 2632   5.754   0.442  15.789  2.3447 -1.4366 -0.8822
   21DOPE   H8S 2633   5.573   0.430  15.763  0.0725  0.3472 -1.1759
   21DOPE   C29 2634   5.702   0.354  15.607  0.4583 -0.5087  0.4350
   21DOPE   H9R 2635   5.778   0.278  15.585  0.7007 -0.1966  0.1819
   21DOPE  C210 2636   5.647   0.413  15.502 -0.2848  0.2537  0.6406
   21DOPE  H10R 2637   5.700   0.396  15.407 -0.9370  0.9270  0.1483
   21DOPE  C211 2638   5.556   0.532  15.497  0.3087 -0.3633  0.6080
   21DOPE  H11R 2639   5.600   0.625  15.540 -0.0965 -0.6579  1.6757
   21DOPE  H11S 2640   5.461   0.512  15.550 -1.3643 -2.4908 -2.8846
   21DOPE  C212 2641   5.519   0.555  15.351  1.0644  0.2321 -0.5705
   21DOPE  H12R 2642   5.447   0.637  15.332 -1.2383 -0.9741  2.2329
   21DOPE  H12S 2643   5.454   0.469  15.323  1.1793 -0.7700  1.9798
   21DOPE  C213 2644   5.632   0.562  15.245  0.5430  0.1394  0.3698
   21DOPE  H13R 2645   5.664   0.459  15.218 -1.1380  0.1494 -2.0000
   21DOPE  H13S 2646   5.713   0.628  15.283  1.5695  1.4738 -3.6461
   21DOPE  C214 2647   5.569   0.620  15.114 -0.5072  0.9541 -0.5976
   21DOPE  H14R 2648   5.508   0.708  15.140 -1.2774  0.9337 -2.2206
   21DOPE  H14S 2649   5.502   0.546  15.066  1.1792  1.0586 -3.3283
   21DOPE  C215 2650   5.679   0.652  15.014 -0.1598  0.3459  0.1077
   21DOPE  H15R 2651   5.713   0.554  14.974 -0.5609 -0.3774  1.4793
   21DOPE  H15S 2652   5.753   0.715  15.067 -1.5000  1.3400  0.8651
   21DOPE  C216 2653   5.632   0.739  14.899 -0.1801  0.3292 -0.2335
   21DOPE  H16R 2654   5.716   0.735  14.827  0.6798 -0.0551  0.7701
   21DOPE  H16S 2655   5.619   0.844  14.933  0.9454  0.4123 -0.0225
   21DOPE  C217 2656   5.495   0.701  14.847 -0.3884 -0.1026 -0.6225
   21DOPE  H17R 2657   5.420   0.719  14.927  0.0551  0.9357 -0.4213
   21DOPE  H17S 2658   5.505   0.593  14.822 -0.4457 -0.5108  1.0240
   21DOPE  C218 2659   5.464   0.797  14.733 -0.4817 -0.3197 -0.1285
   21DOPE  H18R 2660   5.458   0.900  14.773  2.8505  0.2734 -0.8261
   21DOPE  H18S 2661   5.364   0.791  14.684 -0.5034  1.9051 -0.4758
   21DOPE  H18T 2662   5.542   0.805  14.655 -0.8422 -1.1568 -0.5930
   21DOPE   C33 2663   5.873  -0.154  16.264  0.6251  0.4044  0.5587
   21DOPE   H3X 2664   5.829  -0.254  16.282  1.7735  0.1390  2.0778
   21DOPE   H3Y 2665   5.971  -0.155  16.315  0.7355 -0.7976  0.3435
   21DOPE   C34 2666   5.902  -0.130  16.112 -0.8016  0.0760 -1.0165
   21DOPE   H4X 2667   5.953  -0.031  16.109 -0.2107 -0.2245 -3.9589
   21DOPE   H4Y 2668   5.973  -0.209  16.081  0.2124  0.2166  0.8236
   21DOPE   C35 2669   5.779  -0.140  16.015 -0.3684  0.3841 -0.0195
   21DOPE   H5X 2670   5.692  -0.094  16.067 -1.3785 -1.1117 -0.3390
   21DOPE   H5Y 2671   5.763  -0.250  16.010 -1.2897  0.4983  0.1814
   21DOPE   C36 2672   5.813  -0.093  15.876 -1.0232  0.1028 -1.1215
   21DOPE   H6X 2673   5.821   0.018  15.876  1.9381  0.0037  0.7034
   21DOPE   H6Y 2674   5.717  -0.102  15.820 -1.5888 -0.9832 -0.0339
   21DOPE   C37 2675   5.937  -0.153  15.805  0.2642 -0.8597 -0.7706
   21DOPE   H7X 2676   6.023  -0.139  15.874  1.6192  2.7175 -2.9182
   21DOPE   H7Y 2677   5.918  -0.259  15.777 -1.0182 -0.5911 -0.9747
   21DOPE   C38 2678   5.974  -0.078  15.675 -1.0448  0.2607  0.0532
   21DOPE   H8X 2679   6.044  -0.144  15.622 -2.3264 -1.3405  0.2727
   21DOPE   H8Y 2680   6.034   0.013  15.696  2.1951 -2.1722  2.1148
   21DOPE   C39 2681   5.864  -0.039  15.578  0.4923  0.4145 -0.5240
   21DOPE   H9X 2682   5.763  -0.064  15.612  0.6580 -0.0342 -0.3542
   21DOPE  C310 2683   5.882   0.015  15.459  0.1983 -0.3291  0.4645
   21DOPE  H10X 2684   5.794   0.024  15.393 -0.8881  1.1247  2.0365
   21DOPE  C311 2685   6.023   0.044  15.412 -0.0367  0.2602  0.1758
   21DOPE  H11X 2686   6.110   0.033  15.480  0.7210 -0.4199 -0.8718
   21DOPE  H11Y 2687   6.038  -0.024  15.326  0.0355  2.3251 -1.5294
   21DOPE  C312 2688   6.034   0.184  15.357  0.1129  0.3328  0.0184
   21DOPE  H12X 2689   6.141   0.202  15.334  0.8767 -2.5806  0.7964
   21DOPE  H12Y 2690   6.000   0.257  15.433  0.8066  1.7497 -0.9961
   21DOPE  C313 2691   5.954   0.205  15.231 -0.2687 -0.6631  0.7892
   21DOPE  H13X 2692   5.988   0.122  15.166  2.3395  1.6308 -1.0074
   21DOPE  H13Y 2693   5.844   0.192  15.244 -0.5211 -2.6437 -2.3348
   21DOPE  C314 2694   5.984   0.334  15.152 -0.4321 -0.1812 -0.0375
   21DOPE  H14X 2695   6.092   0.358  15.144 -0.9555  1.7592 -2.9271
   21DOPE  H14Y 2696   5.945   0.419  15.212  0.6560 -0.7646  1.5833
   21DOPE  C315 2697   5.920   0.335  15.009 -0.4983  0.5290 -1.3453
   21DOPE  H15X 2698   5.929   0.434  14.961 -0.7888  0.8185 -0.8108
   21DOPE  H15Y 2699   5.812   0.323  15.036 -0.1733  0.1795 -0.1001
   21DOPE  C316 2700   5.967   0.216  14.921  0.2955  0.5311  0.9703
   21DOPE  H16X 2701   5.951   0.117  14.967  1.3504 -0.5368 -0.8321
   21DOPE  H16Y 2702   6.077   0.203  14.918  0.2825 -0.6264  3.5007
   21DOPE  C317 2703   5.886   0.199  14.789 -0.7556 -0.1225 -0.4114
   21DOPE  H17X 2704   5.781   0.182  14.821  0.1724 -2.6576  1.5829
   21DOPE  H17Y 2705   5.885   0.295  14.733  1.0096  0.0758 -0.1524
   21DOPE  C318 2706   5.938   0.094  14.692 -0.0334  0.0829 -0.2842
   21DOPE  H18X 2707   6.045   0.114  14.668  0.2743 -0.6193  0.4408
   21DOPE  H18Y 2708   5.931  -0.004  14.743  0.4498 -0.1815 -0.7080
   21DOPE  H18Z 2709   5.866   0.091  14.607 -0.6864  0.5608  0.2475
   22DOPE     N 2710   2.925   4.732  18.047 -0.2485 -0.0219  0.6772
   22DOPE   HN1 2711   3.015   4.779  18.070 -1.0393  1.1113  1.5889
   22DOPE   HN2 2712   2.930   4.633  18.077  1.0384 -0.0071  0.5507
   22DOPE   HN3 2713   2.906   4.735  17.945  0.7044 -0.8540  0.4592
   22DOPE   C12 2714   2.812   4.795  18.117  0.0791  0.1871 -0.0275
   22DOPE  H12A 2715   2.803   4.900  18.081 -2.9702 -0.5117 -1.6088
   22DOPE  H12B 2716   2.846   4.799  18.223  1.9927  0.2659 -0.5965
   22DOPE   C11 2717   2.686   4.728  18.080 -0.0757  1.0674 -0.5349
   22DOPE  H11A 2718   2.601   4.751  18.147  0.5348  0.9786  0.2767
   22DOPE  H11B 2719   2.691   4.620  18.105 -1.3017  0.9114 -0.9234
   22DOPE     P 2720   2.562   4.837  17.881 -0.1156  0.1310  0.0297
   22DOPE   O13 2721   2.630   4.959  17.830 -0.2097 -0.1491  0.5747
   22DOPE   O14 2722   2.455   4.869  17.978 -0.4468  0.5652  0.2352
   22DOPE   O11 2723   2.479   4.764  17.763 -0.6180  0.1704  0.2560
   22DOPE   O12 2724   2.668   4.734  17.938  0.8395 -0.4523 -0.6811
   22DOPE    C1 2725   2.543   4.747  17.633  0.5820  0.3084  0.7384
   22DOPE    HA 2726   2.540   4.639  17.609 -1.9707  0.4575  0.1658
   22DOPE    HB 2727   2.653   4.762  17.639  1.0441 -1.8478 -0.8732
   22DOPE    C2 2728   2.473   4.824  17.519  0.3922  0.1993 -0.0952
   22DOPE    HS 2729   2.363   4.833  17.533  0.5191  0.2391  0.9533
   22DOPE   O21 2730   2.503   4.766  17.390  0.1624  0.4190 -0.5857
   22DOPE   C21 2731   2.442   4.649  17.368  0.6054  0.3852  0.6831
   22DOPE   O22 2732   2.354   4.602  17.433  0.3113  0.2660 -0.0953
   22DOPE   C22 2733   2.491   4.593  17.236  0.6124  0.0573 -0.0868
   22DOPE   H2R 2734   2.569   4.517  17.259 -1.0429 -1.0228  2.3954
   22DOPE   H2S 2735   2.516   4.680  17.172 -3.0355  0.7833 -0.7262
   22DOPE    C3 2736   2.522   4.977  17.521  0.1484 -0.3450 -0.4725
   22DOPE    HX 2737   2.630   4.980  17.494 -0.1643 -0.2277 -1.7362
   22DOPE    HY 2738   2.503   5.011  17.625  0.0339 -2.0930  0.1130
   22DOPE   O31 2739   2.445   5.061  17.431 -0.0384 -0.6830  0.1540
   22DOPE   C31 2740   2.491   5.183  17.394 -0.7396 -0.2953  0.3119
   22DOPE   O32 2741   2.597   5.223  17.439  0.0887  0.4451  0.0301
   22DOPE   C32 2742   2.388   5.252  17.301  0.0711  0.2556  0.5345
   22DOPE   H2X 2743   2.340   5.183  17.228 -0.2280  2.8253 -1.8691
   22DOPE   H2Y 2744   2.305   5.283  17.370 -1.8673 -1.6192 -0.8373
   22DOPE   C23 2745   2.385   4.506  17.177  0.9649 -0.6101 -0.3328
   22DOPE   H3R 2746   2.291   4.566  17.167 -0.8401 -3.3993 -1.2470
   22DOPE   H3S 2747   2.356   4.422  17.244 -1.1932  0.5128  0.2593
   22DOPE   C24 2748   2.419   4.441  17.037  0.0960 -0.3476 -0.3506
   22DOPE   H4R 2749   2.352   4.357  17.008  1.9295 -1.9816 -0.0518
   22DOPE   H4S 2750   2.525   4.407  17.043  1.1983  2.6748 -1.2013
   22DOPE   C25 2751   2.430   4.539  16.926 -0.1998 -0.6846 -0.7687
   22DOPE   H5R 2752   2.510   4.613  16.945 -0.1820 -0.8318 -0.2698
   22DOPE   H5S 2753   2.340   4.603  16.926  0.4686  0.3765  2.0522
   22DOPE   C26 2754   2.461   4.473  16.795 -0.0768 -0.3063  0.1902
   22DOPE   H6R 2755   2.383   4.401  16.762 -0.2908  0.3257 -0.7492
   22DOPE   H6S 2756   2.558   4.419  16.795  0.2141  0.1610 -1.3546
   22DOPE   C27 2757   2.471   4.587  16.691 -0.5324 -0.2976  0.3172
   22DOPE   H7R 2758   2.574   4.624  16.672  1.3044 -4.7685  0.3234
   22DOPE   H7S 2759   2.415   4.677  16.724 -0.7449 -0.7717  1.2580
   22DOPE   C28 2760   2.431   4.551  16.547  0.4646  0.3385  0.1080
   22DOPE   H8R 2761   2.434   4.644  16.485  0.5427 -1.3179 -2.5088
   22DOPE   H8S 2762   2.324   4.523  16.544  0.4706  0.3817 -2.1067
   22DOPE   C29 2763   2.501   4.438  16.483 -0.7672 -0.5743  0.4469
   22DOPE   H9R 2764   2.554   4.375  16.556  0.1283 -0.8671 -0.4468
   22DOPE  C210 2765   2.492   4.405  16.351  0.4712 -0.4984 -0.5253
   22DOPE  H10R 2766   2.554   4.320  16.316 -0.3168 -0.6657 -1.5676
   22DOPE  C211 2767   2.427   4.497  16.243 -0.3296  0.3019 -0.4435
   22DOPE  H11R 2768   2.412   4.601  16.279 -0.8649  0.1462 -0.2129
   22DOPE  H11S 2769   2.320   4.470  16.233 -0.2310  0.0987 -1.0172
   22DOPE  C212 2770   2.497   4.482  16.110 -0.3584  0.6124 -0.2670
   22DOPE  H12R 2771   2.498   4.380  16.067 -1.9394  0.7776 -0.7399
   22DOPE  H12S 2772   2.605   4.508  16.106  0.0358 -0.9451 -0.1562
   22DOPE  C213 2773   2.443   4.582  16.015 -0.2634 -0.9355  0.6280
   22DOPE  H13R 2774   2.425   4.683  16.056  0.5752  0.4877 -2.2358
   22DOPE  H13S 2775   2.344   4.544  15.980 -0.9152  1.5096 -0.3676
   22DOPE  C214 2776   2.527   4.601  15.889  0.1373  0.0696 -0.5554
   22DOPE  H14R 2777   2.552   4.500  15.850  1.1079 -0.2902  0.9113
   22DOPE  H14S 2778   2.619   4.659  15.914 -0.4719  0.7383  0.1881
   22DOPE  C215 2779   2.448   4.676  15.775  0.0983 -0.8038  0.4592
   22DOPE  H15R 2780   2.429   4.771  15.828  3.7259 -0.1438  0.8565
   22DOPE  H15S 2781   2.358   4.615  15.751 -0.5673  0.4894 -0.4008
   22DOPE  C216 2782   2.529   4.694  15.639  0.4020  0.1810  0.2521
   22DOPE  H16R 2783   2.562   4.597  15.598 -0.6782  0.4634 -1.3416
   22DOPE  H16S 2784   2.623   4.751  15.661  2.1124 -0.6008 -4.0714
   22DOPE  C217 2785   2.453   4.764  15.526  0.3331 -0.5699 -0.8769
   22DOPE  H17R 2786   2.525   4.822  15.464  1.4828  1.8109  2.3879
   22DOPE  H17S 2787   2.376   4.826  15.576  0.2217 -1.0904 -0.3957
   22DOPE  C218 2788   2.386   4.664  15.437 -0.8834  0.4855  0.1150
   22DOPE  H18R 2789   2.459   4.585  15.408  0.1331  1.3016  0.3935
   22DOPE  H18S 2790   2.348   4.715  15.346 -0.2788 -0.8241 -0.9056
   22DOPE  H18T 2791   2.300   4.606  15.478  0.0053 -2.2365 -1.5911
   22DOPE   C33 2792   2.443   5.373  17.224 -0.0804 -0.6781  0.1715
   22DOPE   H3X 2793   2.509   5.433  17.290  0.5410 -1.2315  0.0590
   22DOPE   H3Y 2794   2.366   5.451  17.203 -0.2988 -0.8272  0.4239
   22DOPE   C34 2795   2.503   5.335  17.084  0.0949 -0.2492 -0.6679
   22DOPE   H4X 2796   2.603   5.287  17.095  0.4680  1.0930  3.5282
   22DOPE   H4Y 2797   2.426   5.263  17.047  0.7852 -1.7144  0.6496
   22DOPE   C35 2798   2.502   5.452  16.983  0.6590  0.1335  0.5324
   22DOPE   H5X 2799   2.541   5.548  17.024 -0.7410 -0.4456  3.4474
   22DOPE   H5Y 2800   2.394   5.474  16.969  0.5180 -1.4346 -1.3425
   22DOPE   C36 2801   2.564   5.402  16.846  0.3795  0.1130 -0.1915
   22DOPE   H6X 2802   2.674   5.394  16.859  0.4137 -1.4322 -1.2800
   22DOPE   H6Y 2803   2.546   5.485  16.775 -1.3801 -1.6141 -1.8588
   22DOPE   C37 2804   2.502   5.269  16.808 -0.3510 -0.1071  0.1056
   22DOPE   H7X 2805   2.540   5.184  16.869 -0.5409 -1.2742 -1.3441
   22DOPE   H7Y 2806   2.392   5.267  16.823 -0.6627  0.2908 -1.8748
   22DOPE   C38 2807   2.516   5.250  16.651 -0.2702 -0.4281  0.9616
   22DOPE   H8X 2808   2.482   5.145  16.644 -1.8318 -0.1626  3.4069
   22DOPE   H8Y 2809   2.625   5.259  16.633 -0.3528 -1.5833 -0.2530
   22DOPE   C39 2810   2.429   5.341  16.568  0.5266 -0.4657  0.2715
   22DOPE   H9X 2811   2.321   5.344  16.587  0.4483  0.5997 -0.2424
   22DOPE  C310 2812   2.472   5.430  16.481  0.0867  0.0070  0.7262
   22DOPE  H10X 2813   2.389   5.475  16.424 -0.3075 -1.5596  0.0158
   22DOPE  C311 2814   2.613   5.464  16.430 -0.4179 -1.0400  0.5437
   22DOPE  H11X 2815   2.639   5.570  16.446 -1.9961 -0.0908 -2.4520
   22DOPE  H11Y 2816   2.689   5.401  16.482 -1.3122 -2.7344 -0.1256
   22DOPE  C312 2817   2.624   5.432  16.280 -0.3977 -0.0040 -0.2145
   22DOPE  H12X 2818   2.608   5.323  16.267 -0.2435 -0.1703  0.8681
   22DOPE  H12Y 2819   2.727   5.445  16.242  0.7725 -1.3785  2.2295
   22DOPE  C313 2820   2.514   5.502  16.194  0.2168 -0.2528 -0.1665
   22DOPE  H13X 2821   2.415   5.472  16.235 -0.4752  0.8810 -0.9448
   22DOPE  H13Y 2822   2.531   5.611  16.209  1.4024 -0.4897  0.3548
   22DOPE  C314 2823   2.531   5.462  16.046  0.4521 -0.1907 -0.2399
   22DOPE  H14X 2824   2.503   5.355  16.032 -0.4937  0.0017  0.1052
   22DOPE  H14Y 2825   2.635   5.478  16.010  0.4003 -1.0107 -0.7901
   22DOPE  C315 2826   2.435   5.546  15.953  0.3154  0.5018  0.1071
   22DOPE  H15X 2827   2.463   5.652  15.969  1.2020  0.7055 -2.3314
   22DOPE  H15Y 2828   2.328   5.523  15.973  0.6277 -0.5084  0.7293
   22DOPE  C316 2829   2.465   5.519  15.799  0.2540 -0.7183  0.5074
   22DOPE  H16X 2830   2.446   5.411  15.788  0.0608 -0.5715 -0.7601
   22DOPE  H16Y 2831   2.568   5.541  15.764  0.7970 -0.7412  2.0524
   22DOPE  C317 2832   2.351   5.583  15.715 -0.3566  0.1926 -0.5060
   22DOPE  H17X 2833   2.255   5.566  15.768  1.3625 -1.2123  2.3985
   22DOPE  H17Y 2834   2.373   5.690  15.699 -0.8703  0.1982 -1.1646
   22DOPE  C318 2835   2.342   5.514  15.579 -0.8423  0.2987  0.2018
   22DOPE  H18X 2836   2.302   5.595  15.515 -0.8621  1.5456  1.7385
   22DOPE  H18Y 2837   2.441   5.479  15.543 -2.1733 -1.5568 -1.8938
   22DOPE  H18Z 2838   2.279   5.423  15.578  0.5518 -0.7014 -0.3355
   23DOPE     N 2839   0.337   0.392  17.195  0.0608 -0.4023  0.5957
   23DOPE   HN1 2840   0.439   0.411  17.198  0.3351 -1.8319  1.5736
   23DOPE   HN2 2841   0.324   0.292  17.223  1.2079 -1.2941 -1.7859
   23DOPE   HN3 2842   0.312   0.393  17.094 -0.9758  0.1920  0.8467
   23DOPE   C12 2843   0.234   0.498  17.256  0.0647  0.1566 -0.3445
   23DOPE  H12A 2844   0.230   0.471  17.364 -0.9383  2.0648  0.1415
   23DOPE  H12B 2845   0.136   0.486  17.206  0.4313 -2.3006 -0.6008
   23DOPE   C11 2846   0.283   0.644  17.238  0.2187  0.1209 -0.7042
   23DOPE  H11A 2847   0.381   0.642  17.289 -0.5047 -1.4128  0.6962
   23DOPE  H11B 2848   0.216   0.712  17.296 -0.1471 -0.9053  0.1151
   23DOPE     P 2849   0.343   0.822  17.058  0.0164  0.2162  0.0241
   23DOPE   O13 2850   0.391   0.899  17.174  0.0349 -0.7753 -0.1076
   23DOPE   O14 2851   0.247   0.895  16.970 -0.8109 -0.2510 -0.2263
   23DOPE   O11 2852   0.466   0.786  16.965 -0.1285  0.3450  0.0925
   23DOPE   O12 2853   0.282   0.678  17.100 -0.3449 -0.4883  0.1935
   23DOPE    C1 2854   0.483   0.668  16.890  0.1770  0.5019  0.4881
   23DOPE    HA 2855   0.450   0.574  16.939 -0.2268  1.1016  1.3795
   23DOPE    HB 2856   0.593   0.651  16.883  0.3675  1.2147  1.5310
   23DOPE    C2 2857   0.425   0.668  16.749 -0.1490  0.4234 -0.2485
   23DOPE    HS 2858   0.314   0.669  16.754 -0.2022 -2.0311  0.1583
   23DOPE   O21 2859   0.496   0.573  16.670  0.3559  0.4847  0.3868
   23DOPE   C21 2860   0.429   0.455  16.659  0.2355 -0.4655  1.2010
   23DOPE   O22 2861   0.311   0.439  16.690  0.0320 -0.1321  0.1883
   23DOPE   C22 2862   0.525   0.354  16.591  0.7993  0.7541 -0.5363
   23DOPE   H2R 2863   0.577   0.300  16.673  0.7003  0.2960 -0.7741
   23DOPE   H2S 2864   0.598   0.413  16.531  0.2052  2.3151  0.2233
   23DOPE    C3 2865   0.444   0.811  16.687  0.2262  0.3329  0.2217
   23DOPE    HX 2866   0.553   0.833  16.684  0.0370  1.2585 -0.3876
   23DOPE    HY 2867   0.406   0.891  16.752  1.9464  0.2193  1.4360
   23DOPE   O31 2868   0.383   0.804  16.559 -0.1050 -0.1141 -0.1397
   23DOPE   C31 2869   0.456   0.823  16.459  0.3314 -0.6111  0.3156
   23DOPE   O32 2870   0.578   0.836  16.454  0.1452 -0.3306 -0.2869
   23DOPE   C32 2871   0.375   0.809  16.333 -0.2063 -0.1666 -0.6598
   23DOPE   H2X 2872   0.334   0.706  16.327  1.3275 -0.7978 -0.7675
   23DOPE   H2Y 2873   0.295   0.885  16.332 -1.8439 -1.8120 -0.4204
   23DOPE   C23 2874   0.455   0.257  16.486  0.0433 -0.4257 -0.3055
   23DOPE   H3R 2875   0.376   0.203  16.543  1.5025  0.7393  3.1016
   23DOPE   H3S 2876   0.527   0.186  16.441  0.8540  0.7527 -0.9114
   23DOPE   C24 2877   0.395   0.348  16.371  0.1914  0.1515 -0.4032
   23DOPE   H4R 2878   0.477   0.393  16.310  0.2867  0.3272 -0.1459
   23DOPE   H4S 2879   0.344   0.436  16.414  2.5441  0.0826  2.9676
   23DOPE   C25 2880   0.320   0.264  16.260  0.1938 -0.0516 -0.8009
   23DOPE   H5R 2881   0.233   0.213  16.308  1.9136 -1.4752  0.9832
   23DOPE   H5S 2882   0.388   0.187  16.216  0.0852  0.0012 -1.0651
   23DOPE   C26 2883   0.273   0.360  16.153  0.4512  0.6165 -0.4438
   23DOPE   H6R 2884   0.354   0.384  16.080  0.6118 -0.4863 -0.6483
   23DOPE   H6S 2885   0.239   0.453  16.203 -3.8450  0.1324 -2.0128
   23DOPE   C27 2886   0.151   0.304  16.069 -0.0192 -0.3246 -0.1548
   23DOPE   H7R 2887   0.055   0.329  16.120  1.1214 -0.3374  2.0975
   23DOPE   H7S 2888   0.173   0.196  16.070  2.5720  0.1318  0.4107
   23DOPE   C28 2889   0.136   0.353  15.925  0.0228  0.0786 -0.8215
   23DOPE   H8R 2890   0.119   0.463  15.927 -1.8513 -0.1491 -1.6506
   23DOPE   H8S 2891   0.036   0.320  15.888 -1.7207  1.9939  1.8313
   23DOPE   C29 2892   0.251   0.319  15.835 -0.4201  0.0291 -0.4252
   23DOPE   H9R 2893   0.296   0.226  15.873 -0.0796  0.3996  0.0921
   23DOPE  C210 2894   0.293   0.374  15.721  0.6979  0.3675 -0.7813
   23DOPE  H10R 2895   0.377   0.327  15.667  0.0530 -0.6827 -0.9015
   23DOPE  C211 2896   0.236   0.495  15.643  0.6324 -0.5825 -0.8017
   23DOPE  H11R 2897   0.311   0.560  15.592  1.0339  0.1569  0.6844
   23DOPE  H11S 2898   0.194   0.575  15.708  0.3555  0.8398 -2.6192
   23DOPE  C212 2899   0.133   0.451  15.537  0.3186 -0.3557 -0.0395
   23DOPE  H12R 2900   0.070   0.537  15.504 -1.5671 -2.3364 -1.8448
   23DOPE  H12S 2901   0.055   0.389  15.584 -0.4006 -0.9574 -1.9375
   23DOPE  C213 2902   0.190   0.382  15.411  0.0061 -0.8887  0.8370
   23DOPE  H13R 2903   0.269   0.308  15.438  1.1458 -0.2960 -0.7360
   23DOPE  H13S 2904   0.254   0.462  15.367 -1.1690 -0.5380 -0.2877
   23DOPE  C214 2905   0.088   0.345  15.300  0.3629 -0.1506 -0.6880
   23DOPE  H14R 2906   0.032   0.425  15.247  2.4807  2.0297  0.1745
   23DOPE  H14S 2907   0.000   0.284  15.330  1.1246 -0.8728  0.1639
   23DOPE  C215 2908   0.154   0.261  15.191  0.2917 -0.0580 -0.4529
   23DOPE  H15R 2909   0.182   0.168  15.246 -1.8208 -0.8621 -0.6255
   23DOPE  H15S 2910   0.232   0.332  15.158 -0.7521  1.3969  0.0851
   23DOPE  C216 2911   0.056   0.231  15.074 -0.0868 -0.2292  0.0550
   23DOPE  H16R 2912   0.018   0.328  15.035 -1.6813  0.0613  2.1491
   23DOPE  H16S 2913  -0.039   0.185  15.108 -0.9773 -0.9256 -3.0742
   23DOPE  C217 2914   0.122   0.129  14.965 -0.2113 -0.1288 -0.1244
   23DOPE  H17R 2915   0.116   0.021  14.988  2.2425 -0.4493 -0.6869
   23DOPE  H17S 2916   0.229   0.159  14.963 -0.7815  2.0902 -0.5759
   23DOPE  C218 2917   0.079   0.147  14.818  0.0450  0.1946 -0.6853
   23DOPE  H18R 2918   0.164   0.133  14.749 -1.2692 -3.9539 -1.7420
   23DOPE  H18S 2919   0.037   0.249  14.808 -0.4309  0.1444  0.5422
   23DOPE  H18T 2920  -0.001   0.075  14.789  0.7179 -0.6311 -0.5228
   23DOPE   C33 2921   0.463   0.848  16.205  0.2629  0.1083 -0.1873
   23DOPE   H3X 2922   0.558   0.792  16.207 -0.3048 -1.0512  4.1709
   23DOPE   H3Y 2923   0.495   0.954  16.216  1.5226 -0.3622  0.9205
   23DOPE   C34 2924   0.389   0.827  16.069  0.1777 -0.4436  0.1202
   23DOPE   H4X 2925   0.355   0.722  16.080  1.5159 -1.1343 -1.6624
   23DOPE   H4Y 2926   0.301   0.895  16.072 -0.7897 -1.6968  1.8742
   23DOPE   C35 2927   0.470   0.836  15.941  0.5372 -0.7048 -0.0138
   23DOPE   H5X 2928   0.561   0.776  15.960  0.8967 -0.5856 -1.2616
   23DOPE   H5Y 2929   0.508   0.938  15.919  0.4328 -0.4480  0.9821
   23DOPE   C36 2930   0.384   0.796  15.814 -0.1094  0.9116 -0.2080
   23DOPE   H6X 2931   0.277   0.819  15.831 -0.4078 -0.7228  0.3291
   23DOPE   H6Y 2932   0.381   0.687  15.793  0.8624  1.0139 -0.9238
   23DOPE   C37 2933   0.436   0.871  15.687 -0.4195  0.7667  0.4589
   23DOPE   H7X 2934   0.480   0.971  15.707 -0.7486  1.2876 -1.2420
   23DOPE   H7Y 2935   0.517   0.810  15.642  0.8061  0.8348  2.4454
   23DOPE   C38 2936   0.319   0.890  15.579 -0.3273  0.6215 -0.1146
   23DOPE   H8X 2937   0.239   0.945  15.633 -1.2035  1.0528 -1.7862
   23DOPE   H8Y 2938   0.283   0.791  15.546  2.6622 -1.4776  2.3156
   23DOPE   C39 2939   0.362   0.983  15.469  0.8229  0.0128 -0.0503
   23DOPE   H9X 2940   0.362   1.090  15.495  0.8281  0.1861 -0.7616
   23DOPE  C310 2941   0.435   0.959  15.356  0.2103 -0.1354  0.1586
   23DOPE  H10X 2942   0.476   1.033  15.286 -1.7027 -1.4254 -2.5136
   23DOPE  C311 2943   0.480   0.823  15.313 -0.6407 -0.3358 -0.7242
   23DOPE  H11X 2944   0.582   0.821  15.268 -0.7069 -2.5226 -0.9014
   23DOPE  H11Y 2945   0.488   0.754  15.400  0.3563 -0.4016 -0.8596
   23DOPE  C312 2946   0.370   0.759  15.219 -0.1962  0.0450 -0.7729
   23DOPE  H12X 2947   0.264   0.757  15.252 -0.7987 -1.9735 -2.5813
   23DOPE  H12Y 2948   0.400   0.653  15.205  0.7424  0.4516 -2.0662
   23DOPE  C313 2949   0.362   0.832  15.082  0.3312  0.4459  0.2813
   23DOPE  H13X 2950   0.334   0.939  15.089 -1.0207  0.0877  0.8371
   23DOPE  H13Y 2951   0.460   0.820  15.031  0.0302 -0.6338 -0.0842
   23DOPE  C314 2952   0.273   0.759  14.979  0.2597 -0.2278 -0.4191
   23DOPE  H14X 2953   0.297   0.789  14.875 -0.7026  1.5823 -0.1622
   23DOPE  H14Y 2954   0.173   0.783  15.021  0.9484 -0.0384  1.1694
   23DOPE  C315 2955   0.301   0.606  14.967 -0.1051  0.1130  0.8863
   23DOPE  H15X 2956   0.291   0.557  15.066 -1.4587  0.2132  0.8147
   23DOPE  H15Y 2957   0.403   0.585  14.928 -0.6193 -0.8882  0.0431
   23DOPE  C316 2958   0.200   0.536  14.869 -0.1568  0.1494 -0.2746
   23DOPE  H16X 2959   0.101   0.568  14.909 -0.6115 -0.4331 -0.9201
   23DOPE  H16Y 2960   0.202   0.428  14.896 -1.8294  0.1313 -0.0967
   23DOPE  C317 2961   0.236   0.573  14.717  0.6766 -0.3795 -0.1528
   23DOPE  H17X 2962   0.144   0.552  14.658  1.5922 -1.4492 -1.2586
   23DOPE  H17Y 2963   0.260   0.681  14.707 -0.6324 -0.2596 -2.9935
   23DOPE  C318 2964   0.346   0.480  14.662  0.0689  0.1115  0.8533
   23DOPE  H18X 2965   0.361   0.496  14.553  1.9074 -2.0458  0.7235
   23DOPE  H18Y 2966   0.441   0.489  14.719 -0.4789  0.1215  1.7908
   23DOPE  H18Z 2967   0.316   0.373  14.669  0.1479 -0.0992 -1.3615
   24DOPE     N 2968   2.149   6.598  17.101 -0.4070 -0.2054  0.5310
   24DOPE   HN1 2969   2.237   6.639  17.139 -0.4356 -0.4847  0.8969
   24DOPE   HN2 2970   2.166   6.527  17.027  1.5547 -0.9219  1.6127
   24DOPE   HN3 2971   2.110   6.679  17.048  2.1659  1.0504  0.3891
   24DOPE   C12 2972   2.061   6.532  17.202  0.0976 -0.2871 -0.2511
   24DOPE  H12A 2973   1.957   6.523  17.163  0.2972 -0.1046 -0.8415
   24DOPE  H12B 2974   2.052   6.593  17.294  2.2855  0.6998 -0.6346
   24DOPE   C11 2975   2.116   6.391  17.238  0.1598 -0.8193  0.0620
   24DOPE  H11A 2976   2.119   6.347  17.136  0.7068  0.2672 -0.4117
   24DOPE  H11B 2977   2.037   6.336  17.294 -0.4587  0.1398  0.1469
   24DOPE     P 2978   2.366   6.330  17.260 -0.5511 -0.3831 -0.2452
   24DOPE   O13 2979   2.352   6.189  17.306  0.1694  0.1215 -0.0537
   24DOPE   O14 2980   2.490   6.404  17.304 -0.0522  0.3769  0.1033
   24DOPE   O11 2981   2.348   6.332  17.102 -0.1035 -0.3984 -0.0022
   24DOPE   O12 2982   2.236   6.402  17.313 -0.2126  0.5152 -0.4768
   24DOPE    C1 2983   2.447   6.271  17.025 -0.2998 -0.5154  0.3938
   24DOPE    HA 2984   2.451   6.160  17.031 -0.1938 -0.6728 -1.9215
   24DOPE    HB 2985   2.552   6.296  17.050 -0.7316 -0.7661  2.6682
   24DOPE    C2 2986   2.421   6.316  16.877  0.5042 -0.1855  0.2246
   24DOPE    HS 2987   2.405   6.426  16.882 -1.0230 -0.4225  3.7040
   24DOPE   O21 2988   2.306   6.257  16.814 -0.9175 -0.1739  0.0594
   24DOPE   C21 2989   2.195   6.324  16.837 -0.6825  1.0376  0.0176
   24DOPE   O22 2990   2.184   6.440  16.878  0.0809  0.4133  0.1229
   24DOPE   C22 2991   2.072   6.235  16.802 -0.3001  0.7299 -0.1365
   24DOPE   H2R 2992   1.976   6.292  16.805 -0.5145  0.3832 -0.2776
   24DOPE   H2S 2993   2.069   6.156  16.880  1.1681  0.4349 -0.3529
   24DOPE    C3 2994   2.543   6.298  16.790 -0.1137  0.0235  0.1261
   24DOPE    HX 2995   2.576   6.194  16.813  0.3910  0.5957  2.2250
   24DOPE    HY 2996   2.622   6.365  16.829 -0.7439  0.7513  0.1845
   24DOPE   O31 2997   2.516   6.300  16.645  0.5788 -0.3070  0.3035
   24DOPE   C31 2998   2.506   6.425  16.598  0.0220  0.0865 -0.0677
   24DOPE   O32 2999   2.509   6.527  16.658 -0.1650  0.7120 -0.2826
   24DOPE   C32 3000   2.493   6.433  16.447 -0.5007  0.3111  0.6646
   24DOPE   H2X 3001   2.433   6.522  16.421 -0.9798 -0.2227 -0.1164
   24DOPE   H2Y 3002   2.592   6.445  16.399 -0.5075  1.8846  1.0010
   24DOPE   C23 3003   2.082   6.157  16.669 -0.0357 -0.8872  0.1098
   24DOPE   H3R 3004   2.000   6.083  16.679 -0.4858 -0.5149 -0.6587
   24DOPE   H3S 3005   2.177   6.104  16.649  1.8875  3.1147 -2.7224
   24DOPE   C24 3006   2.057   6.242  16.545 -0.3804 -0.6478  0.6817
   24DOPE   H4R 3007   2.136   6.320  16.547 -0.6857 -0.3292  0.3293
   24DOPE   H4S 3008   1.970   6.310  16.552 -0.0253 -0.1389  0.2396
   24DOPE   C25 3009   2.057   6.168  16.407  0.5021  0.2658  0.3432
   24DOPE   H5R 3010   2.082   6.061  16.419 -1.1296 -0.5404 -2.6515
   24DOPE   H5S 3011   2.134   6.212  16.340 -0.6413  1.3357 -0.3203
   24DOPE   C26 3012   1.923   6.182  16.338  0.4952 -0.5584 -0.2033
   24DOPE   H6R 3013   1.885   6.286  16.348 -0.7372 -1.1946  3.1498
   24DOPE   H6S 3014   1.844   6.126  16.394  0.5158  1.6425  2.2016
   24DOPE   C27 3015   1.918   6.131  16.194  0.5879  0.1812 -0.3799
   24DOPE   H7R 3016   1.940   6.022  16.189 -1.8859 -0.4441  0.8025
   24DOPE   H7S 3017   1.996   6.180  16.132 -1.4252  2.5216 -1.2423
   24DOPE   C28 3018   1.782   6.156  16.124 -0.2030 -0.7949  0.2184
   24DOPE   H8R 3019   1.804   6.157  16.015  1.9753 -2.1463  0.5737
   24DOPE   H8S 3020   1.750   6.260  16.146 -0.2898 -0.4130 -1.6031
   24DOPE   C29 3021   1.668   6.063  16.148 -0.2563  1.4485  0.1075
   24DOPE   H9R 3022   1.603   6.073  16.236  1.4502  1.1553  1.4578
   24DOPE  C210 3023   1.650   5.947  16.074 -0.4943 -0.6923 -0.1118
   24DOPE  H10R 3024   1.577   5.873  16.112  2.3494 -3.2170  0.7990
   24DOPE  C211 3025   1.728   5.893  15.956  0.0810 -0.3022  0.2522
   24DOPE  H11R 3026   1.748   5.786  15.976  1.0180 -0.0226  0.8439
   24DOPE  H11S 3027   1.828   5.939  15.942  0.5651 -0.8216  1.7625
   24DOPE  C212 3028   1.638   5.919  15.836 -0.1300 -0.1799 -0.2270
   24DOPE  H12R 3029   1.535   5.887  15.859 -0.9648  0.3767 -2.9062
   24DOPE  H12S 3030   1.677   5.856  15.753 -0.4537 -1.3475  0.4891
   24DOPE  C213 3031   1.634   6.070  15.792 -0.7123  0.0458  0.4352
   24DOPE  H13R 3032   1.740   6.100  15.775 -0.0320 -2.2154  0.4732
   24DOPE  H13S 3033   1.608   6.128  15.884 -1.2396  0.2970  0.1310
   24DOPE  C214 3034   1.531   6.084  15.676  0.0011 -0.9473  0.0158
   24DOPE  H14R 3035   1.544   6.188  15.638  0.7268 -0.8556  0.5096
   24DOPE  H14S 3036   1.425   6.079  15.709 -0.5571 -0.9222 -1.6911
   24DOPE  C215 3037   1.548   6.010  15.546  0.1264 -0.1521 -0.2423
   24DOPE  H15R 3038   1.449   6.022  15.497 -0.7009 -1.6124  0.9587
   24DOPE  H15S 3039   1.563   5.903  15.575 -1.7909 -0.7007 -1.0655
   24DOPE  C216 3040   1.662   6.053  15.448  0.2690  0.3919 -0.1644
   24DOPE  H16R 3041   1.759   6.031  15.497  0.1553  0.5363  0.1324
   24DOPE  H16S 3042   1.659   6.162  15.424  0.7687  0.3120 -0.5952
   24DOPE  C217 3043   1.649   5.958  15.326 -0.2446 -1.0532  0.5667
   24DOPE  H17R 3044   1.549   5.957  15.277  0.2191  0.2401 -0.4686
   24DOPE  H17S 3045   1.671   5.857  15.368  0.8575 -0.1137  2.3831
   24DOPE  C218 3046   1.757   5.996  15.224  0.2054 -0.6458 -0.6461
   24DOPE  H18R 3047   1.856   6.001  15.274  1.0382 -2.8902 -1.8839
   24DOPE  H18S 3048   1.742   6.098  15.184  1.4567 -0.0453  0.3451
   24DOPE  H18T 3049   1.763   5.925  15.138  0.1912 -0.9016 -0.4356
   24DOPE   C33 3050   2.428   6.307  16.384 -0.0778  0.6484  0.6197
   24DOPE   H3X 3051   2.334   6.269  16.429 -0.1999  0.0363 -0.1219
   24DOPE   H3Y 3052   2.497   6.220  16.391  0.7633  1.3680  1.4787
   24DOPE   C34 3053   2.407   6.330  16.234  0.2361  0.0620  0.1288
   24DOPE   H4X 3054   2.322   6.266  16.202  0.3149  0.4704 -0.9213
   24DOPE   H4Y 3055   2.377   6.437  16.223 -3.6517 -0.8465  0.4983
   24DOPE   C35 3056   2.529   6.312  16.145 -0.2819  0.1401 -0.0352
   24DOPE   H5X 3057   2.545   6.202  16.148  1.4869  0.3686 -0.1613
   24DOPE   H5Y 3058   2.616   6.366  16.187 -0.5302  0.7299 -0.2719
   24DOPE   C36 3059   2.512   6.353  15.999  0.2490 -0.3512 -0.1215
   24DOPE   H6X 3060   2.482   6.460  15.992 -1.3023 -0.6570  1.3771
   24DOPE   H6Y 3061   2.434   6.290  15.951  1.9615 -2.8294  0.1374
   24DOPE   C37 3062   2.645   6.332  15.915  0.7500  0.2340 -0.0720
   24DOPE   H7X 3063   2.731   6.312  15.983 -0.2426 -1.9229  0.6446
   24DOPE   H7Y 3064   2.636   6.248  15.843 -1.2877  1.7629 -1.7121
   24DOPE   C38 3065   2.681   6.453  15.823  0.4844 -0.7928 -0.4045
   24DOPE   H8X 3066   2.664   6.543  15.887  0.5662 -0.9546 -0.1547
   24DOPE   H8Y 3067   2.602   6.465  15.746 -1.0335  0.5442  1.2461
   24DOPE   C39 3068   2.814   6.448  15.751 -0.0937  0.1750 -0.5317
   24DOPE   H9X 3069   2.840   6.344  15.723  2.1144  0.7301 -0.7404
   24DOPE  C310 3070   2.903   6.541  15.738  0.2901 -0.1952  0.8290
   24DOPE  H10X 3071   3.002   6.512  15.698  0.6714  1.4736  0.4748
   24DOPE  C311 3072   2.899   6.683  15.783 -0.0235  0.2906  0.2479
   24DOPE  H11X 3073   2.924   6.753  15.701  2.1000 -2.0408 -1.2569
   24DOPE  H11Y 3074   2.803   6.712  15.831  0.8183  0.8327  1.6689
   24DOPE  C312 3075   3.006   6.714  15.890 -0.0664 -0.4305 -0.1748
   24DOPE  H12X 3076   3.013   6.823  15.910  0.3541 -0.6097  0.7227
   24DOPE  H12Y 3077   3.105   6.689  15.844  1.0074 -1.6150  2.5644
   24DOPE  C313 3078   2.988   6.649  16.028  0.4727 -0.3445 -0.2012
   24DOPE  H13X 3079   2.988   6.539  16.020 -0.2656 -0.5173  1.7807
   24DOPE  H13Y 3080   3.073   6.669  16.096 -1.2469 -0.0545  1.9662
   24DOPE  C314 3081   2.863   6.703  16.114 -0.4555 -0.4743  0.7365
   24DOPE  H14X 3082   2.768   6.686  16.060  0.0603  0.6225 -0.5945
   24DOPE  H14Y 3083   2.880   6.811  16.133  1.7992 -0.5856 -0.2577
   24DOPE  C315 3084   2.855   6.629  16.251  0.4476 -0.2939 -0.4133
   24DOPE  H15X 3085   2.863   6.519  16.234 -1.8695 -0.3298 -1.6545
   24DOPE  H15Y 3086   2.749   6.630  16.282  1.2558  1.9055  2.6567
   24DOPE  C316 3087   2.954   6.677  16.364  0.1158 -0.3388  0.4893
   24DOPE  H16X 3088   2.950   6.788  16.371  0.9879 -0.3083  0.6638
   24DOPE  H16Y 3089   3.056   6.644  16.337  0.2519  0.7262 -0.3587
   24DOPE  C317 3090   2.917   6.614  16.504 -0.2639  0.2265  0.8938
   24DOPE  H17X 3091   2.887   6.507  16.493 -2.1584  0.8092  0.0481
   24DOPE  H17Y 3092   3.008   6.621  16.567  0.3400 -1.9559  0.3651
   24DOPE  C318 3093   2.793   6.686  16.566 -0.2035  0.1694 -0.1632
   24DOPE  H18X 3094   2.709   6.679  16.494 -0.4074  1.6950 -0.1091
   24DOPE  H18Y 3095   2.760   6.628  16.655  0.4563 -2.7944 -1.7208
   24DOPE  H18Z 3096   2.809   6.793  16.592 -0.8552  0.2527 -0.0951
   25DOPE     N 3097   3.442   6.080  18.010  0.0232  0.2466 -0.8239
   25DOPE   HN1 3098   3.412   6.180  18.014 -1.4947 -0.0042 -3.4254
   25DOPE   HN2 3099   3.538   6.076  18.049 -0.2864 -1.4355 -0.1614
   25DOPE   HN3 3100   3.455   6.060  17.909  0.8222 -1.6523 -0.3932
   25DOPE   C12 3101   3.341   5.978  18.060 -1.2000 -0.6885  0.3817
   25DOPE  H12A 3102   3.241   6.019  18.035 -1.8510 -2.1675  0.4713
   25DOPE  H12B 3103   3.344   5.962  18.170 -1.8526 -0.6261  0.4078
   25DOPE   C11 3104   3.372   5.844  17.989  0.1051 -0.5364  0.3007
   25DOPE  H11A 3105   3.286   5.781  18.019 -1.3400  2.2025  2.3173
   25DOPE  H11B 3106   3.468   5.801  18.026  0.4105 -2.6745 -2.5624
   25DOPE     P 3107   3.257   5.898  17.763 -0.1861 -0.1052  0.4732
   25DOPE   O13 3108   3.268   6.029  17.700 -0.2014 -0.0850 -0.3245
   25DOPE   O14 3109   3.133   5.876  17.847  0.0293 -0.4130 -0.1349
   25DOPE   O11 3110   3.252   5.787  17.648 -0.0013  0.2416 -0.7313
   25DOPE   O12 3111   3.384   5.851  17.845 -0.4397 -0.2437 -0.3994
   25DOPE    C1 3112   3.356   5.780  17.546  0.1761 -0.7077 -0.4266
   25DOPE    HA 3113   3.406   5.681  17.559  1.6584 -0.3987 -3.1075
   25DOPE    HB 3114   3.442   5.845  17.569 -0.4374  0.0393 -0.2284
   25DOPE    C2 3115   3.306   5.808  17.400 -0.7839 -0.1374 -1.2399
   25DOPE    HS 3116   3.330   5.715  17.343  0.7275 -0.8367  0.4276
   25DOPE   O21 3117   3.361   5.930  17.351 -0.1365 -0.0229 -0.0610
   25DOPE   C21 3118   3.448   5.910  17.251  0.0324  0.1371  0.3020
   25DOPE   O22 3119   3.494   5.801  17.216  0.0470  0.0691  0.4137
   25DOPE   C22 3120   3.472   6.038  17.170 -0.1701  0.6502  0.0782
   25DOPE   H2R 3121   3.545   6.100  17.226  0.0782 -1.4380  2.2494
   25DOPE   H2S 3122   3.383   6.103  17.162 -0.3224  0.3542 -0.6676
   25DOPE    C3 3123   3.155   5.817  17.413 -0.1595  0.9963  0.1840
   25DOPE    HX 3124   3.119   5.899  17.479 -2.2558 -2.3670  3.6373
   25DOPE    HY 3125   3.124   5.718  17.454 -1.9826  1.0509 -0.9549
   25DOPE   O31 3126   3.103   5.834  17.279 -0.8284  0.0117 -0.1145
   25DOPE   C31 3127   2.976   5.857  17.270  0.1181  0.4062 -0.2663
   25DOPE   O32 3128   2.892   5.842  17.359  0.3050 -0.1433 -0.1677
   25DOPE   C32 3129   2.950   5.883  17.120  0.5685 -0.4430 -0.3891
   25DOPE   H2X 3130   2.841   5.870  17.103  0.3551 -0.4893  0.8751
   25DOPE   H2Y 3131   2.998   5.981  17.102  0.6122 -0.1433  1.2364
   25DOPE   C23 3132   3.526   6.023  17.026 -0.5520 -0.8005  0.8737
   25DOPE   H3R 3133   3.613   5.955  17.039  0.4229  0.6451  2.3059
   25DOPE   H3S 3134   3.580   6.118  17.004  0.1688 -1.2419  0.7144
   25DOPE   C24 3135   3.431   5.988  16.911 -0.3413 -0.4821  0.2829
   25DOPE   H4R 3136   3.345   6.058  16.906 -0.2589 -0.4962 -1.9146
   25DOPE   H4S 3137   3.402   5.883  16.932 -0.5765 -0.5480 -0.3575
   25DOPE   C25 3138   3.506   5.991  16.774  0.1370 -0.1568  0.1486
   25DOPE   H5R 3139   3.566   5.900  16.752  1.0556  0.6859 -0.9321
   25DOPE   H5S 3140   3.565   6.084  16.763 -0.7158  0.3255 -0.5713
   25DOPE   C26 3141   3.390   5.996  16.671 -0.3437  1.1260  0.1855
   25DOPE   H6R 3142   3.319   6.078  16.695 -1.0041  1.0688 -1.4042
   25DOPE   H6S 3143   3.332   5.902  16.680  0.5092  0.6021  0.3343
   25DOPE   C27 3144   3.436   6.004  16.520 -0.0513 -0.1023 -0.4033
   25DOPE   H7R 3145   3.491   5.912  16.494  0.2880  0.2731 -1.0339
   25DOPE   H7S 3146   3.511   6.085  16.505 -0.4988  0.2942 -0.5579
   25DOPE   C28 3147   3.318   6.011  16.427  0.0958  0.2709 -0.4062
   25DOPE   H8R 3148   3.356   6.053  16.331 -0.9879 -0.2762 -1.0954
   25DOPE   H8S 3149   3.238   6.075  16.469  0.0071 -1.5486  2.4325
   25DOPE   C29 3150   3.257   5.875  16.401  0.0267  0.1591 -0.2786
   25DOPE   H9R 3151   3.220   5.830  16.494  2.3098 -0.1614  0.5217
   25DOPE  C210 3152   3.279   5.805  16.286  0.0382  0.6872 -0.1171
   25DOPE  H10R 3153   3.226   5.708  16.287  0.5515  0.3167  2.9917
   25DOPE  C211 3154   3.354   5.826  16.158  0.5966 -0.0192  0.4312
   25DOPE  H11R 3155   3.464   5.810  16.169  0.6787 -0.5998 -1.0852
   25DOPE  H11S 3156   3.347   5.933  16.129  0.7940  0.6703  2.7009
   25DOPE  C212 3157   3.306   5.729  16.050  0.0555  0.1543 -0.4065
   25DOPE  H12R 3158   3.205   5.759  16.015  0.3670  1.8348  0.0363
   25DOPE  H12S 3159   3.300   5.623  16.084 -1.7693  0.6596  0.9931
   25DOPE  C213 3160   3.395   5.735  15.921 -0.1484 -0.8107 -0.9986
   25DOPE  H13R 3161   3.495   5.705  15.959 -0.4070 -0.5866 -0.1284
   25DOPE  H13S 3162   3.400   5.843  15.898 -2.5634 -0.5731 -0.7266
   25DOPE  C214 3163   3.341   5.648  15.812 -0.1844  0.4413 -0.7059
   25DOPE  H14R 3164   3.234   5.672  15.794 -0.9831 -2.0765  0.2665
   25DOPE  H14S 3165   3.335   5.541  15.841  0.7852  0.4747 -0.3523
   25DOPE  C215 3166   3.411   5.656  15.674  1.0475 -0.3759 -0.8755
   25DOPE  H15R 3167   3.516   5.638  15.704  0.2211 -1.1332  1.7932
   25DOPE  H15S 3168   3.416   5.759  15.632  0.0388 -0.3092 -0.8574
   25DOPE  C216 3169   3.364   5.547  15.584 -0.8328  0.7297 -0.0129
   25DOPE  H16R 3170   3.253   5.543  15.574 -0.7260 -1.8905 -0.6153
   25DOPE  H16S 3171   3.388   5.451  15.634  1.5457  1.5282  0.5025
   25DOPE  C217 3172   3.419   5.548  15.443  0.0207  0.0046  0.7509
   25DOPE  H17R 3173   3.354   5.615  15.383 -1.1099 -1.1269  0.6666
   25DOPE  H17S 3174   3.410   5.447  15.398  1.7663 -0.5104  1.4903
   25DOPE  C218 3175   3.562   5.593  15.433  0.0185  0.0652 -0.0889
   25DOPE  H18R 3176   3.625   5.554  15.516  1.0004 -0.9055 -1.2576
   25DOPE  H18S 3177   3.566   5.704  15.425  0.0902  0.1385  0.8208
   25DOPE  H18T 3178   3.606   5.553  15.339 -2.1215  0.8480 -1.4960
   25DOPE   C33 3179   3.014   5.772  17.027  0.0647  0.0057  0.6993
   25DOPE   H3X 3180   3.123   5.753  17.040  0.1631  0.6810  0.8759
   25DOPE   H3Y 3181   2.987   5.803  16.924 -0.2852 -1.4218  0.3300
   25DOPE   C34 3182   2.946   5.638  17.039  0.2308  0.3013  0.2486
   25DOPE   H4X 3183   3.012   5.560  16.995 -0.7794  0.1960 -1.1477
   25DOPE   H4Y 3184   2.938   5.598  17.142 -0.5772 -1.4733 -0.4682
   25DOPE   C35 3185   2.815   5.631  16.966 -0.3086  0.6934 -1.2978
   25DOPE   H5X 3186   2.736   5.690  17.017 -0.5587 -1.0011  0.4118
   25DOPE   H5Y 3187   2.796   5.522  16.979  3.7246 -0.2547 -2.0029
   25DOPE   C36 3188   2.817   5.670  16.820 -0.1444  0.3825  0.4073
   25DOPE   H6X 3189   2.822   5.780  16.804  1.0694  0.3818  0.7086
   25DOPE   H6Y 3190   2.712   5.648  16.791  0.0196 -0.3820  0.3688
   25DOPE   C37 3191   2.891   5.583  16.726  0.6182 -0.1373 -0.0931
   25DOPE   H7X 3192   2.979   5.535  16.774  1.4030 -0.5835 -1.8816
   25DOPE   H7Y 3193   2.822   5.509  16.680  0.9867 -1.1263  0.9067
   25DOPE   C38 3194   2.955   5.666  16.612  0.1511  0.2588  0.1855
   25DOPE   H8X 3195   3.031   5.734  16.656 -0.3162  1.6255 -1.0516
   25DOPE   H8Y 3196   2.875   5.722  16.560 -0.3855 -0.7683 -0.1255
   25DOPE   C39 3197   3.018   5.583  16.507  0.8386  0.1302  0.0881
   25DOPE   H9X 3198   3.107   5.532  16.547  0.4597  0.8446  1.9393
   25DOPE  C310 3199   3.002   5.585  16.375 -0.6009  0.4283  0.3533
   25DOPE  H10X 3200   3.068   5.530  16.306 -0.8404  0.1609  0.3362
   25DOPE  C311 3201   2.917   5.682  16.299  0.4029  0.2059 -0.1833
   25DOPE  H11X 3202   2.813   5.688  16.338  0.5717  0.1538  0.2859
   25DOPE  H11Y 3203   2.975   5.775  16.313 -0.6431  0.6424  1.6092
   25DOPE  C312 3204   2.932   5.658  16.156  0.1624  0.6507  0.3869
   25DOPE  H12X 3205   2.915   5.550  16.133  0.2704  1.2695 -3.2344
   25DOPE  H12Y 3206   3.035   5.665  16.116  0.1955 -0.3190  0.2696
   25DOPE  C313 3207   2.847   5.750  16.064  0.4634 -0.0980  0.8154
   25DOPE  H13X 3208   2.741   5.760  16.097  0.3590 -0.6752  0.6781
   25DOPE  H13Y 3209   2.894   5.850  16.071 -0.2833  0.2454  1.0202
   25DOPE  C314 3210   2.846   5.703  15.918 -0.5400  0.0279 -0.3297
   25DOPE  H14X 3211   2.801   5.602  15.906 -1.8030  0.7166 -1.9100
   25DOPE  H14Y 3212   2.953   5.693  15.890 -0.1999 -2.8485  1.6101
   25DOPE  C315 3213   2.772   5.807  15.824 -0.6990 -0.3545 -0.6588
   25DOPE  H15X 3214   2.820   5.905  15.845 -0.5990 -0.4556 -0.3967
   25DOPE  H15Y 3215   2.663   5.803  15.842 -0.6649 -1.1843 -0.5803
   25DOPE  C316 3216   2.805   5.779  15.676 -0.6517  0.2470  0.3135
   25DOPE  H16X 3217   2.915   5.789  15.663 -0.4267  0.3038  2.0434
   25DOPE  H16Y 3218   2.760   5.852  15.606  0.1569 -0.5924 -1.1344
   25DOPE  C317 3219   2.754   5.645  15.630 -0.2802 -0.0258  0.3643
   25DOPE  H17X 3220   2.787   5.561  15.694  0.9189 -0.5889 -0.9424
   25DOPE  H17Y 3221   2.645   5.644  15.611 -0.0129 -1.9191 -1.5782
   25DOPE  C318 3222   2.825   5.623  15.495  0.5101  0.4621  0.0131
   25DOPE  H18X 3223   2.816   5.702  15.418  0.1563 -2.2278 -2.9478
   25DOPE  H18Y 3224   2.934   5.609  15.512  0.0263 -2.9507  1.0578
   25DOPE  H18Z 3225   2.784   5.528  15.452 -2.8556  0.7108  2.2727
   26DOPE     N 3226   3.289   6.265  17.576 -0.6229  0.7279  0.3128
   26DOPE   HN1 3227   3.196   6.307  17.598 -1.4229 -0.5946 -0.4281
   26DOPE   HN2 3228   3.281   6.174  17.627  1.2536  1.5107  2.1483
   26DOPE   HN3 3229   3.366   6.318  17.621 -0.1546 -1.0210  1.7266
   26DOPE   C12 3230   3.313   6.249  17.429  0.0844 -0.1794 -0.0268
   26DOPE  H12A 3231   3.249   6.170  17.382  1.0187 -0.4679 -0.8682
   26DOPE  H12B 3232   3.423   6.236  17.415 -0.2539 -2.4605 -1.0053
   26DOPE   C11 3233   3.288   6.383  17.351  0.1263  0.0805 -0.7314
   26DOPE  H11A 3234   3.319   6.375  17.244  1.1125 -1.0853 -0.3810
   26DOPE  H11B 3235   3.352   6.460  17.400  0.5704 -0.9320  0.3352
   26DOPE     P 3236   3.043   6.366  17.276 -0.0332  0.4699  0.8200
   26DOPE   O13 3237   2.923   6.454  17.293  0.0195  0.5242  0.1846
   26DOPE   O14 3238   3.006   6.226  17.292  0.1766  0.2925 -0.6355
   26DOPE   O11 3239   3.105   6.381  17.128 -0.6324 -0.4445 -0.0430
   26DOPE   O12 3240   3.155   6.411  17.379  0.6369 -0.0320 -0.1964
   26DOPE    C1 3241   3.054   6.468  17.028 -0.5818 -0.0537  0.0319
   26DOPE    HA 3242   3.060   6.576  17.055  0.2703 -0.1884  0.4411
   26DOPE    HB 3243   2.952   6.430  17.006 -0.6030  1.4890 -2.9949
   26DOPE    C2 3244   3.129   6.449  16.891  0.1445 -0.1498 -0.2204
   26DOPE    HS 3245   3.089   6.523  16.818 -1.0589 -0.1420  0.4137
   26DOPE   O21 3246   3.108   6.325  16.835 -0.2892  0.4502  0.6771
   26DOPE   C21 3247   2.995   6.302  16.780  0.1080 -0.4143 -0.1396
   26DOPE   O22 3248   2.898   6.379  16.774  0.7790  0.2759  0.2713
   26DOPE   C22 3249   2.989   6.158  16.731  0.1947 -0.0643  0.6117
   26DOPE   H2R 3250   2.994   6.093  16.821  0.7006  1.1596  1.5021
   26DOPE   H2S 3251   3.070   6.145  16.657 -0.1527  1.8884 -0.1913
   26DOPE    C3 3252   3.282   6.459  16.896 -0.0589  0.0506 -0.5325
   26DOPE    HX 3253   3.307   6.409  16.992 -0.8613  2.7126  1.1875
   26DOPE    HY 3254   3.312   6.565  16.911 -0.1476  0.1497 -1.0517
   26DOPE   O31 3255   3.349   6.405  16.781 -0.2091 -0.0277 -0.1962
   26DOPE   C31 3256   3.316   6.470  16.672 -0.5679 -0.6083  0.0518
   26DOPE   O32 3257   3.274   6.585  16.668 -0.5830 -0.7960  0.0539
   26DOPE   C32 3258   3.349   6.384  16.552  0.3574  0.0754 -0.3714
   26DOPE   H2X 3259   3.456   6.355  16.564 -0.2897 -1.9998  1.0146
   26DOPE   H2Y 3260   3.294   6.288  16.537  0.3182  0.3873 -2.6785
   26DOPE   C23 3261   2.850   6.131  16.670  0.4729 -0.6089 -0.1698
   26DOPE   H3R 3262   2.774   6.167  16.742 -0.8774 -0.6782 -1.5191
   26DOPE   H3S 3263   2.854   6.022  16.649  0.7167 -0.3735 -1.4271
   26DOPE   C24 3264   2.820   6.184  16.528  0.6607 -0.2044 -0.1237
   26DOPE   H4R 3265   2.838   6.293  16.542  0.6302 -0.3319  1.0057
   26DOPE   H4S 3266   2.715   6.167  16.499  0.8944  1.2977 -2.0347
   26DOPE   C25 3267   2.918   6.123  16.436  0.3319  0.5229  0.4070
   26DOPE   H5R 3268   2.914   6.012  16.436  1.5013  0.4773  0.6628
   26DOPE   H5S 3269   3.023   6.150  16.461  0.5185  0.0092  0.1849
   26DOPE   C26 3270   2.896   6.172  16.284  0.6417 -0.7913 -0.0466
   26DOPE   H6R 3271   2.845   6.270  16.287  2.0770 -0.0291 -0.0956
   26DOPE   H6S 3272   2.825   6.103  16.232 -0.5688  0.2387  0.1820
   26DOPE   C27 3273   3.019   6.183  16.194  0.0372 -0.2319 -0.1116
   26DOPE   H7R 3274   3.068   6.087  16.168  0.5712 -0.2171  0.8148
   26DOPE   H7S 3275   3.089   6.257  16.239 -0.3273 -0.8467  1.5309
   26DOPE   C28 3276   2.981   6.259  16.058 -0.5855  0.7373  0.2338
   26DOPE   H8R 3277   2.930   6.356  16.081 -0.8383  0.8463 -0.7373
   26DOPE   H8S 3278   2.901   6.207  16.002 -0.7800  1.5495 -0.2660
   26DOPE   C29 3279   3.107   6.292  15.982 -0.6028 -0.2805  0.3639
   26DOPE   H9R 3280   3.129   6.399  15.992  0.6825 -0.4375 -0.5699
   26DOPE  C210 3281   3.183   6.218  15.902  0.5213 -0.0456 -0.4010
   26DOPE  H10R 3282   3.273   6.260  15.854  0.4325  0.3459 -0.2259
   26DOPE  C211 3283   3.153   6.070  15.866 -0.1268  0.0510  0.5051
   26DOPE  H11R 3284   3.065   6.040  15.927 -0.7103  0.5654 -0.0789
   26DOPE  H11S 3285   3.228   6.001  15.910 -1.4406 -0.4155  2.1209
   26DOPE  C212 3286   3.141   6.036  15.713  0.0607  0.0124 -0.4043
   26DOPE  H12R 3287   3.137   5.928  15.690 -1.6646 -0.3767  1.3967
   26DOPE  H12S 3288   3.230   6.083  15.666  0.7643 -2.2952 -1.4837
   26DOPE  C213 3289   3.019   6.116  15.661  0.0584  0.4670 -0.4810
   26DOPE  H13R 3290   3.042   6.225  15.658 -0.6848  0.6108 -1.3466
   26DOPE  H13S 3291   2.933   6.106  15.730  2.0989 -1.4493  1.9699
   26DOPE  C214 3292   2.976   6.080  15.522  0.1779  0.0902  0.3136
   26DOPE  H14R 3293   2.927   5.981  15.516 -0.1427  0.3420 -2.8309
   26DOPE  H14S 3294   3.066   6.070  15.458 -0.4265  2.5609 -1.0513
   26DOPE  C215 3295   2.885   6.189  15.457 -0.6421  0.5476  0.5326
   26DOPE  H15R 3296   2.947   6.281  15.450  1.9645 -1.1741 -0.7406
   26DOPE  H15S 3297   2.792   6.201  15.518 -1.3842  0.0664 -0.4650
   26DOPE  C216 3298   2.843   6.166  15.309  0.2655  0.0293 -0.5096
   26DOPE  H16R 3299   2.772   6.080  15.314  2.5521 -1.8937  1.1945
   26DOPE  H16S 3300   2.911   6.141  15.226 -0.5613  2.9663 -2.2237
   26DOPE  C217 3301   2.758   6.286  15.270  0.1041 -0.1801  0.2440
   26DOPE  H17R 3302   2.813   6.381  15.253 -0.8358  0.4220  0.4775
   26DOPE  H17S 3303   2.682   6.308  15.348  1.2462  1.8418  0.8573
   26DOPE  C218 3304   2.685   6.268  15.137 -0.6100  0.1915 -0.2569
   26DOPE  H18R 3305   2.635   6.169  15.132 -0.1809  0.0217 -2.3452
   26DOPE  H18S 3306   2.746   6.272  15.044 -2.8178  2.0693 -1.7464
   26DOPE  H18T 3307   2.610   6.349  15.124  2.0507  2.7850 -0.6339
   26DOPE   C33 3308   3.332   6.474  16.427  0.4452 -0.0008  0.4519
   26DOPE   H3X 3309   3.369   6.578  16.445  0.6861  0.1002 -0.5892
   26DOPE   H3Y 3310   3.225   6.493  16.404 -0.2205 -0.8292  2.6195
   26DOPE   C34 3311   3.409   6.412  16.311  0.1884 -0.0772  0.4262
   26DOPE   H4X 3312   3.515   6.404  16.345  0.5372  0.6910 -0.4193
   26DOPE   H4Y 3313   3.375   6.312  16.278 -0.7829  0.3676  0.0500
   26DOPE   C35 3314   3.404   6.504  16.184 -0.4739  0.5329 -0.5269
   26DOPE   H5X 3315   3.454   6.603  16.189  2.0838 -0.6874 -0.2025
   26DOPE   H5Y 3316   3.299   6.528  16.157 -1.0526 -2.2265 -1.0465
   26DOPE   C36 3317   3.461   6.439  16.063  0.1585  0.3192 -0.0204
   26DOPE   H6X 3318   3.464   6.513  15.979 -1.2709 -1.5533 -1.8274
   26DOPE   H6Y 3319   3.395   6.359  16.024  0.8289 -0.7562  1.0033
   26DOPE   C37 3320   3.594   6.365  16.077 -0.4013  0.5102 -0.0564
   26DOPE   H7X 3321   3.678   6.430  16.109  2.9363 -2.3546 -2.2585
   26DOPE   H7Y 3322   3.590   6.283  16.152 -2.2276 -0.4183 -1.0813
   26DOPE   C38 3323   3.640   6.295  15.945  0.0472  0.1027 -0.3984
   26DOPE   H8X 3324   3.746   6.272  15.970 -0.3103 -0.3977  0.7183
   26DOPE   H8Y 3325   3.645   6.368  15.861  3.2035  1.3695  0.7411
   26DOPE   C39 3326   3.579   6.166  15.910 -0.0674 -0.2828  0.5673
   26DOPE   H9X 3327   3.595   6.082  15.979  1.2404 -0.8388 -0.3603
   26DOPE  C310 3328   3.536   6.128  15.785  0.4887 -0.7469 -0.1588
   26DOPE  H10X 3329   3.478   6.035  15.789  0.3177 -0.6031  1.7502
   26DOPE  C311 3330   3.526   6.204  15.656 -0.4411 -0.1090 -0.1540
   26DOPE  H11X 3331   3.419   6.204  15.627 -1.1848 -0.2983  2.3624
   26DOPE  H11Y 3332   3.561   6.308  15.676  0.2145 -0.3603  0.0442
   26DOPE  C312 3333   3.622   6.151  15.548  0.9675 -0.3122  0.3539
   26DOPE  H12X 3334   3.730   6.137  15.572  1.2615 -0.9043 -1.1885
   26DOPE  H12Y 3335   3.622   6.218  15.459 -0.0451  0.1440  0.6793
   26DOPE  C313 3336   3.576   6.003  15.493  0.0364  0.2344 -0.9421
   26DOPE  H13X 3337   3.589   5.926  15.572 -0.4246  0.0214 -1.0753
   26DOPE  H13Y 3338   3.466   6.008  15.477 -0.3502  1.3777  1.4853
   26DOPE  C314 3339   3.641   5.968  15.359 -0.0039 -0.1412  0.1345
   26DOPE  H14X 3340   3.641   6.062  15.299 -0.4835  0.6878  1.3770
   26DOPE  H14Y 3341   3.590   5.889  15.301 -0.8755  1.0940 -0.8454
   26DOPE  C315 3342   3.784   5.919  15.370  0.0265 -0.0802  0.1342
   26DOPE  H15X 3343   3.782   5.824  15.427  3.4457  0.6181  1.6529
   26DOPE  H15Y 3344   3.835   5.999  15.427  2.8759 -0.6801 -1.4016
   26DOPE  C316 3345   3.858   5.903  15.232  0.2583  0.1419 -0.7256
   26DOPE  H16X 3346   3.851   6.001  15.179 -1.0075  0.9023  0.7587
   26DOPE  H16Y 3347   3.808   5.822  15.174 -2.1305 -0.2559  1.6756
   26DOPE  C317 3348   4.007   5.862  15.254  0.1813  0.1947 -0.1372
   26DOPE  H17X 3349   4.055   5.851  15.154  0.5908 -2.4725  0.2975
   26DOPE  H17Y 3350   4.070   5.935  15.308  0.9502 -0.4688 -0.1192
   26DOPE  C318 3351   4.022   5.721  15.323  0.0846 -1.0516  0.0913
   26DOPE  H18X 3352   4.131   5.700  15.323  0.2161 -0.6495 -2.0201
   26DOPE  H18Y 3353   3.996   5.739  15.429  2.2859  1.6758  0.2810
   26DOPE  H18Z 3354   3.969   5.635  15.277 -0.2305 -1.1956  0.7154
   27DOPE     N 3355   6.440   2.753  17.303 -0.1041 -0.1584  0.5335
   27DOPE   HN1 3356   6.520   2.811  17.336  0.4072  0.8846 -2.2592
   27DOPE   HN2 3357   6.342   2.786  17.304  0.0173  0.5939 -2.1911
   27DOPE   HN3 3358   6.435   2.664  17.356 -1.5001  0.4582  1.4898
   27DOPE   C12 3359   6.451   2.707  17.161 -0.9305  0.5524  0.0425
   27DOPE  H12A 3360   6.489   2.793  17.102 -0.9538  0.5278 -0.0086
   27DOPE  H12B 3361   6.354   2.676  17.117 -0.9219  2.5991 -1.5658
   27DOPE   C11 3362   6.555   2.598  17.151 -0.8876  0.5729  0.5282
   27DOPE  H11A 3363   6.593   2.593  17.047  0.9704 -0.6041  1.2243
   27DOPE  H11B 3364   6.508   2.498  17.162 -0.1339 -0.1780 -2.2485
   27DOPE     P 3365   6.774   2.492  17.250  0.0800 -0.1378  0.2563
   27DOPE   O13 3366   6.700   2.376  17.311  0.3151  0.3910 -0.1624
   27DOPE   O14 3367   6.884   2.553  17.329  0.4042  0.3408  0.6555
   27DOPE   O11 3368   6.821   2.445  17.112  0.3015 -0.3789  0.3300
   27DOPE   O12 3369   6.675   2.618  17.226  0.1620 -0.2570 -0.0503
   27DOPE    C1 3370   6.941   2.502  17.049  0.7967  0.7831  0.0215
   27DOPE    HA 3371   7.022   2.427  17.062  1.1367  0.9200 -1.1316
   27DOPE    HB 3372   6.966   2.599  17.096 -0.3758  1.3173 -0.4122
   27DOPE    C2 3373   6.906   2.536  16.902 -0.3839  0.0613 -0.3397
   27DOPE    HS 3374   6.826   2.613  16.906  0.9016  1.4713 -0.8834
   27DOPE   O21 3375   6.867   2.422  16.827 -0.1975  0.5115  0.1593
   27DOPE   C21 3376   6.765   2.437  16.744  0.1572 -0.0373 -0.3869
   27DOPE   O22 3377   6.708   2.543  16.730  0.4316 -0.9326  1.3553
   27DOPE   C22 3378   6.740   2.309  16.667 -0.1430 -0.0261  0.2682
   27DOPE   H2R 3379   6.642   2.273  16.705 -1.0562  1.8770 -0.1743
   27DOPE   H2S 3380   6.820   2.237  16.695 -1.5565 -1.5843  0.4407
   27DOPE    C3 3381   7.028   2.604  16.834 -0.0856  0.2771  0.0267
   27DOPE    HX 3382   7.115   2.537  16.852 -0.0306 -0.1613 -1.6466
   27DOPE    HY 3383   7.055   2.697  16.888 -2.4139  0.9645  0.1089
   27DOPE   O31 3384   7.017   2.621  16.690 -0.0842 -0.2937 -0.2668
   27DOPE   C31 3385   6.941   2.721  16.642 -0.8336  0.5412  0.2494
   27DOPE   O32 3386   6.898   2.817  16.702 -0.0931 -0.6607 -0.0288
   27DOPE   C32 3387   6.916   2.701  16.491  0.5715  0.0403  0.7106
   27DOPE   H2X 3388   6.992   2.631  16.452  0.5733  0.8398 -0.8019
   27DOPE   H2Y 3389   6.817   2.655  16.470  1.7506 -2.1524 -0.4203
   27DOPE   C23 3390   6.724   2.325  16.513  0.3205 -0.4160 -0.4838
   27DOPE   H3R 3391   6.665   2.415  16.486 -0.5092 -1.2009 -1.3514
   27DOPE   H3S 3392   6.664   2.234  16.493  0.2875 -0.6931  0.7637
   27DOPE   C24 3393   6.857   2.312  16.439 -0.3843 -0.0631 -0.3460
   27DOPE   H4R 3394   6.916   2.218  16.448  0.6872  0.3049 -2.8070
   27DOPE   H4S 3395   6.913   2.390  16.495 -1.9575  0.0652  1.1335
   27DOPE   C25 3396   6.851   2.343  16.290 -0.2428 -0.2076 -0.4398
   27DOPE   H5R 3397   6.785   2.427  16.259  0.2177  0.5627  0.6293
   27DOPE   H5S 3398   6.795   2.262  16.237 -1.0736 -0.0252  0.1396
   27DOPE   C26 3399   6.988   2.369  16.235 -0.6524 -0.0267  0.1763
   27DOPE   H6R 3400   7.066   2.291  16.252 -0.6912  0.1477  1.2236
   27DOPE   H6S 3401   7.038   2.461  16.273  1.8892 -0.8292 -0.9625
   27DOPE   C27 3402   6.973   2.387  16.081  0.0445 -0.3695 -0.7720
   27DOPE   H7R 3403   6.901   2.468  16.058  1.4155  1.5190  1.1174
   27DOPE   H7S 3404   6.951   2.291  16.029  0.5111 -1.6716  1.3252
   27DOPE   C28 3405   7.104   2.437  16.029 -0.4022  0.5488  0.0430
   27DOPE   H8R 3406   7.158   2.495  16.107 -2.0563 -0.0566  1.7266
   27DOPE   H8S 3407   7.085   2.497  15.938 -0.8429 -0.1262 -0.3165
   27DOPE   C29 3408   7.199   2.330  15.992 -1.0249  0.1036 -0.2995
   27DOPE   H9R 3409   7.263   2.285  16.070  0.3832  0.2927 -1.3236
   27DOPE  C210 3410   7.200   2.270  15.871 -0.0064  0.6866  0.4366
   27DOPE  H10R 3411   7.266   2.182  15.869  0.4658  0.9489  2.2579
   27DOPE  C211 3412   7.106   2.296  15.757 -0.2104 -0.3008 -0.7329
   27DOPE  H11R 3413   7.026   2.367  15.784  1.1475  0.8766  0.3655
   27DOPE  H11S 3414   7.038   2.208  15.751  0.1802 -0.8859  1.8310
   27DOPE  C212 3415   7.180   2.324  15.625  0.1302 -0.2794  0.1150
   27DOPE  H12R 3416   7.251   2.244  15.594  0.4337 -0.3385  0.9598
   27DOPE  H12S 3417   7.248   2.412  15.628  0.2110 -0.3357 -0.0184
   27DOPE  C213 3418   7.093   2.345  15.497 -0.6811  0.0302 -0.2587
   27DOPE  H13R 3419   7.022   2.430  15.506  2.0459  2.2229  3.3400
   27DOPE  H13S 3420   7.036   2.254  15.471 -0.4307  0.8421 -4.4314
   27DOPE  C214 3421   7.191   2.375  15.379  0.7535 -0.0100 -0.4416
   27DOPE  H14R 3422   7.287   2.318  15.382  0.2889 -0.7642  0.9822
   27DOPE  H14S 3423   7.216   2.483  15.390  0.0728 -0.0021  1.3782
   27DOPE  C215 3424   7.118   2.360  15.241 -0.7491  0.0857  0.2177
   27DOPE  H15R 3425   7.047   2.445  15.228 -0.7625  0.1726  0.8288
   27DOPE  H15S 3426   7.070   2.260  15.232 -0.2591 -0.3619  2.0730
   27DOPE  C216 3427   7.221   2.358  15.125 -0.0475 -0.5883 -0.5498
   27DOPE  H16R 3428   7.298   2.285  15.157 -0.3024  0.0216  1.6123
   27DOPE  H16S 3429   7.266   2.460  15.128 -2.5397  0.5900 -0.6371
   27DOPE  C217 3430   7.149   2.324  14.991 -0.4645 -0.0076 -0.0323
   27DOPE  H17R 3431   7.105   2.223  14.996  1.2524 -0.9629 -2.2513
   27DOPE  H17S 3432   7.236   2.321  14.922 -0.4302 -1.0864  0.0357
   27DOPE  C218 3433   7.048   2.428  14.947 -0.6418  0.1221  0.3175
   27DOPE  H18R 3434   6.970   2.422  15.025  2.7139  1.0449  4.1115
   27DOPE  H18S 3435   7.013   2.397  14.846 -1.3793 -1.6940  1.1016
   27DOPE  H18T 3436   7.102   2.526  14.951 -1.7838  0.7937 -0.1936
   27DOPE   C33 3437   6.930   2.837  16.420  0.7609 -0.0922  0.3536
   27DOPE   H3X 3438   7.012   2.899  16.463 -0.0654  1.9585 -0.8880
   27DOPE   H3Y 3439   6.845   2.898  16.458 -0.4368 -0.7827 -1.1139
   27DOPE   C34 3440   6.953   2.843  16.261 -0.1208  0.7139 -0.5507
   27DOPE   H4X 3441   6.977   2.949  16.240  0.0886  1.1476  1.6658
   27DOPE   H4Y 3442   7.041   2.780  16.236 -1.8562 -2.4754  0.7282
   27DOPE   C35 3443   6.851   2.770  16.175  0.7084  0.3255 -0.0440
   27DOPE   H5X 3444   6.746   2.803  16.189 -0.0263 -0.9293 -2.2026
   27DOPE   H5Y 3445   6.847   2.664  16.208  0.1373  0.4518  0.2984
   27DOPE   C36 3446   6.860   2.802  16.026 -0.6513  0.3280 -1.0073
   27DOPE   H6X 3447   6.956   2.763  15.988 -1.3263 -2.7420  0.1128
   27DOPE   H6Y 3448   6.854   2.913  16.021  2.3599  0.5187 -1.9516
   27DOPE   C37 3449   6.755   2.729  15.948 -0.0451 -0.3928  0.4366
   27DOPE   H7X 3450   6.739   2.624  15.981 -0.5388 -0.2340  0.7183
   27DOPE   H7Y 3451   6.659   2.774  15.982  0.4365  0.4488  0.7279
   27DOPE   C38 3452   6.770   2.735  15.792  0.2365  0.4173 -0.3433
   27DOPE   H8X 3453   6.791   2.839  15.757 -1.3663  0.6453 -0.6787
   27DOPE   H8Y 3454   6.674   2.709  15.743 -0.9841  1.2327  1.4873
   27DOPE   C39 3455   6.875   2.636  15.750  0.2072  0.2160  0.4009
   27DOPE   H9X 3456   6.850   2.529  15.746 -0.5197  0.3801  0.3577
   27DOPE  C310 3457   7.006   2.670  15.718  0.1801  0.3473  0.1324
   27DOPE  H10X 3458   7.081   2.590  15.714  0.3963  0.6085 -1.5875
   27DOPE  C311 3459   7.074   2.801  15.720 -0.2965  0.3395 -0.1096
   27DOPE  H11X 3460   7.011   2.881  15.764 -1.8808 -1.2162  0.5980
   27DOPE  H11Y 3461   7.164   2.794  15.785 -0.1930 -1.0430 -0.3642
   27DOPE  C312 3462   7.126   2.844  15.582  0.3817 -0.9684 -0.9705
   27DOPE  H12X 3463   7.192   2.929  15.611 -0.9064 -0.5302  0.8358
   27DOPE  H12Y 3464   7.045   2.890  15.521 -0.2474 -1.4477 -0.5036
   27DOPE  C313 3465   7.225   2.756  15.507  0.0420 -0.9336 -0.6739
   27DOPE  H13X 3466   7.312   2.741  15.574 -1.3843  1.1528  1.8430
   27DOPE  H13Y 3467   7.168   2.664  15.481  1.6177 -1.8707 -0.9625
   27DOPE  C314 3468   7.261   2.832  15.381  0.1171 -0.6047  0.2638
   27DOPE  H14X 3469   7.361   2.798  15.346  1.2646  2.7050 -0.0843
   27DOPE  H14Y 3470   7.278   2.939  15.408  0.3953 -0.8942  1.2823
   27DOPE  C315 3471   7.155   2.827  15.273  0.2800 -0.2009  0.2468
   27DOPE  H15X 3472   7.062   2.879  15.301  0.1065  0.3221 -1.2189
   27DOPE  H15Y 3473   7.127   2.723  15.246 -2.0430  1.0466 -2.8232
   27DOPE  C316 3474   7.213   2.882  15.145 -0.0301 -0.3699 -0.0249
   27DOPE  H16X 3475   7.281   2.805  15.103  1.2799  0.1939  0.9661
   27DOPE  H16Y 3476   7.270   2.976  15.164  1.6646 -1.0963 -1.2180
   27DOPE  C317 3477   7.097   2.912  15.050 -0.2845  0.0247 -0.6604
   27DOPE  H17X 3478   7.048   2.816  15.022  0.6223 -0.7982  0.4764
   27DOPE  H17Y 3479   7.024   2.979  15.100  0.2611  0.5076 -0.4995
   27DOPE  C318 3480   7.155   2.973  14.922  0.0579  0.3506  0.8980
   27DOPE  H18X 3481   7.067   2.972  14.854  0.8994 -0.1893 -0.2240
   27DOPE  H18Y 3482   7.175   3.082  14.934 -0.3189  0.5338 -0.0153
   27DOPE  H18Z 3483   7.233   2.914  14.870 -0.5881 -0.2140  0.5577
   28DOPE     N 3484   2.657   1.156  17.005 -0.0855  0.1234 -0.0762
   28DOPE   HN1 3485   2.554   1.156  16.987 -0.2560 -1.5967  0.6339
   28DOPE   HN2 3486   2.666   1.222  17.084 -1.1051  0.4931 -0.2544
   28DOPE   HN3 3487   2.700   1.196  16.919  0.7841  0.7341  0.6259
   28DOPE   C12 3488   2.714   1.019  17.036 -0.2248 -0.1133  0.2403
   28DOPE  H12A 3489   2.695   0.957  16.946 -2.1935 -0.4214  0.8235
   28DOPE  H12B 3490   2.659   0.979  17.123 -0.1104 -0.7561  0.0289
   28DOPE   C11 3491   2.862   1.023  17.065 -0.0153  0.3086  0.1666
   28DOPE  H11A 3492   2.886   0.926  17.113 -1.5156  0.3611  1.0969
   28DOPE  H11B 3493   2.879   1.108  17.134 -1.5827  2.0022 -1.3888
   28DOPE     P 3494   3.096   1.010  16.937 -0.1099  0.0477 -0.0592
   28DOPE   O13 3495   3.147   0.985  17.071 -0.0009 -0.5977  0.1897
   28DOPE   O14 3496   3.164   1.110  16.857 -0.0965  0.0987  0.0121
   28DOPE   O11 3497   3.100   0.866  16.859  0.3721 -0.0137  0.0503
   28DOPE   O12 3498   2.941   1.033  16.942 -0.3063 -0.2620 -0.2117
   28DOPE    C1 3499   3.088   0.874  16.715 -0.3002 -0.3199 -1.1949
   28DOPE    HA 3500   3.049   0.974  16.685  2.1276  1.4312  0.9639
   28DOPE    HB 3501   3.022   0.793  16.678  0.0257 -1.5775  0.8250
   28DOPE    C2 3502   3.223   0.840  16.654 -0.3230 -0.0287 -0.1118
   28DOPE    HS 3503   3.282   0.934  16.653 -1.3602  0.6627 -2.1426
   28DOPE   O21 3504   3.186   0.802  16.519 -0.2475 -0.0763 -0.0290
   28DOPE   C21 3505   3.256   0.846  16.416  0.4171  0.2339 -0.2366
   28DOPE   O22 3506   3.357   0.916  16.424 -0.0333  0.4182 -0.3983
   28DOPE   C22 3507   3.191   0.807  16.281  0.0523  0.1626  0.0211
   28DOPE   H2R 3508   3.089   0.850  16.271 -0.1607 -0.6200 -1.5944
   28DOPE   H2S 3509   3.178   0.697  16.291 -1.1318  0.2854 -0.0014
   28DOPE    C3 3510   3.301   0.724  16.715 -0.1020 -0.1609 -0.0294
   28DOPE    HX 3511   3.227   0.642  16.704 -0.2229 -0.1680  0.7594
   28DOPE    HY 3512   3.316   0.744  16.823  0.9613  1.2365 -0.4182
   28DOPE   O31 3513   3.425   0.690  16.646  0.5672 -0.3402 -0.4820
   28DOPE   C31 3514   3.522   0.779  16.676 -0.0466 -0.1215  0.3788
   28DOPE   O32 3515   3.504   0.885  16.734 -0.7235  0.6225  0.9112
   28DOPE   C32 3516   3.656   0.737  16.627 -0.3766  0.0884  0.0598
   28DOPE   H2X 3517   3.710   0.834  16.617  1.9279 -1.2912 -1.9850
   28DOPE   H2Y 3518   3.702   0.679  16.709 -0.8279  0.4836  0.5970
   28DOPE   C23 3519   3.276   0.841  16.158 -0.4792 -0.3872  0.2500
   28DOPE   H3R 3520   3.382   0.807  16.164 -0.7821 -1.5351 -0.6281
   28DOPE   H3S 3521   3.288   0.950  16.140 -0.3128 -0.3402  0.6410
   28DOPE   C24 3522   3.218   0.796  16.024 -0.3083  0.1090  0.6370
   28DOPE   H4R 3523   3.121   0.846  16.004  0.7027  1.8063 -0.1841
   28DOPE   H4S 3524   3.200   0.687  16.036  1.3799  0.0616  3.6886
   28DOPE   C25 3525   3.318   0.803  15.907  0.9789  0.3148  0.4017
   28DOPE   H5R 3526   3.397   0.728  15.931  0.0998 -0.9585 -0.5571
   28DOPE   H5S 3527   3.361   0.906  15.906 -1.5131  1.4697  1.7192
   28DOPE   C26 3528   3.251   0.769  15.770 -0.5694 -0.5492  0.1376
   28DOPE   H6R 3529   3.165   0.838  15.753  0.5126  0.6224 -0.7311
   28DOPE   H6S 3530   3.217   0.663  15.778  0.5176 -0.8743  0.5966
   28DOPE   C27 3531   3.349   0.795  15.660  0.3489  0.9634  0.7358
   28DOPE   H7R 3532   3.443   0.744  15.691  0.9023  0.8945 -0.9668
   28DOPE   H7S 3533   3.362   0.906  15.653  0.4428  0.8743 -0.8764
   28DOPE   C28 3534   3.302   0.736  15.525  0.1743 -0.3522 -0.2154
   28DOPE   H8R 3535   3.194   0.760  15.516  0.4079  0.3553 -1.3328
   28DOPE   H8S 3536   3.310   0.626  15.515  0.6052 -0.2842 -0.6128
   28DOPE   C29 3537   3.386   0.804  15.420  0.0490  0.3782  0.2154
   28DOPE   H9R 3538   3.423   0.907  15.432 -1.8392  0.9178  1.9978
   28DOPE  C210 3539   3.390   0.755  15.296 -0.3983  0.1963  0.2742
   28DOPE  H10R 3540   3.457   0.802  15.224  2.3419 -0.5953  2.1204
   28DOPE  C211 3541   3.320   0.634  15.240 -1.0143  0.1022  0.0624
   28DOPE  H11R 3542   3.218   0.665  15.209 -0.5345 -0.3839 -2.1699
   28DOPE  H11S 3543   3.305   0.560  15.322 -1.2169 -0.3761 -0.4031
   28DOPE  C212 3544   3.389   0.562  15.119  0.2625  0.3785 -0.5448
   28DOPE  H12R 3545   3.336   0.466  15.103 -2.2874  1.2916  1.6794
   28DOPE  H12S 3546   3.496   0.543  15.139  0.4514  1.4194 -0.4844
   28DOPE  C213 3547   3.382   0.633  14.983 -0.3787 -0.1307 -0.0220
   28DOPE  H13R 3548   3.435   0.729  15.001 -0.7248 -0.0297  0.4719
   28DOPE  H13S 3549   3.280   0.674  14.966  0.1642  1.2895 -0.0390
   28DOPE  C214 3550   3.438   0.541  14.879 -0.0955 -0.6471 -0.0317
   28DOPE  H14R 3551   3.354   0.475  14.847 -0.5866  0.6900 -1.6541
   28DOPE  H14S 3552   3.516   0.471  14.917  1.4616  1.8205  1.5475
   28DOPE  C215 3553   3.488   0.613  14.756  0.4166 -0.1177 -0.1906
   28DOPE  H15R 3554   3.416   0.696  14.739  1.2829  0.3092 -2.0043
   28DOPE  H15S 3555   3.480   0.547  14.667 -1.4591  0.8980 -0.8365
   28DOPE  C216 3556   3.624   0.680  14.758 -0.2695 -0.2563  0.1096
   28DOPE  H16R 3557   3.703   0.603  14.767 -0.8593 -0.7531  1.2997
   28DOPE  H16S 3558   3.637   0.742  14.850 -0.0874 -1.5094  0.9481
   28DOPE  C217 3559   3.639   0.752  14.622  0.6464 -0.7278 -0.2203
   28DOPE  H17R 3560   3.559   0.829  14.619  0.2525 -1.1015 -4.1120
   28DOPE  H17S 3561   3.617   0.679  14.541 -0.1748 -0.0045 -0.6655
   28DOPE  C218 3562   3.772   0.827  14.596  0.1015 -0.2612 -0.1403
   28DOPE  H18R 3563   3.772   0.865  14.492 -0.6088 -3.2791 -1.3227
   28DOPE  H18S 3564   3.863   0.766  14.617  0.2351 -0.7439 -1.9680
   28DOPE  H18T 3565   3.786   0.915  14.663  2.2461 -1.5612  1.2411
   28DOPE   C33 3566   3.651   0.647  16.505 -0.0990 -0.5438 -1.1701
   28DOPE   H3X 3567   3.592   0.693  16.422 -0.4785  0.3116 -0.4449
   28DOPE   H3Y 3568   3.597   0.554  16.533 -0.4709 -0.1832 -0.6829
   28DOPE   C34 3569   3.795   0.622  16.453 -0.1991 -0.3028  1.1775
   28DOPE   H4X 3570   3.844   0.718  16.426  0.5379 -1.1975 -0.8312
   28DOPE   H4Y 3571   3.845   0.573  16.540  0.1240 -3.0751 -0.4546
   28DOPE   C35 3572   3.813   0.534  16.323  0.9281 -0.1560 -0.1765
   28DOPE   H5X 3573   3.747   0.444  16.332 -0.1265  0.6411  0.3648
   28DOPE   H5Y 3574   3.915   0.492  16.323  0.3347 -1.7107  0.7575
   28DOPE   C36 3575   3.786   0.606  16.186  0.5524  0.2572  0.0964
   28DOPE   H6X 3576   3.863   0.684  16.168  0.8739 -0.6191 -2.7968
   28DOPE   H6Y 3577   3.684   0.647  16.193  1.3532  2.2455  0.7429
   28DOPE   C37 3578   3.784   0.522  16.054  0.1170  0.0608  0.1429
   28DOPE   H7X 3579   3.879   0.465  16.050 -0.2973 -0.6687  0.4061
   28DOPE   H7Y 3580   3.698   0.452  16.043 -0.2828  0.9188 -3.4381
   28DOPE   C38 3581   3.780   0.599  15.919 -0.0822 -0.1609  0.0450
   28DOPE   H8X 3582   3.835   0.695  15.927 -3.1544  1.7834 -0.5205
   28DOPE   H8Y 3583   3.676   0.630  15.896  0.2930  1.0139 -0.1474
   28DOPE   C39 3584   3.838   0.528  15.800  0.5309  0.5213  0.7799
   28DOPE   H9X 3585   3.948   0.522  15.802  0.5208 -1.6899 -1.4140
   28DOPE  C310 3586   3.786   0.500  15.683  0.4267 -0.2548 -0.1376
   28DOPE  H10X 3587   3.853   0.463  15.604  0.7170 -0.6866  0.3031
   28DOPE  C311 3588   3.647   0.533  15.651 -0.1951 -0.1979  0.1017
   28DOPE  H11X 3589   3.586   0.571  15.736 -0.7663  0.2585 -0.4925
   28DOPE  H11Y 3590   3.646   0.614  15.574  1.8315 -1.6518 -1.5601
   28DOPE  C312 3591   3.591   0.400  15.599  0.8857 -0.1322  0.2466
   28DOPE  H12X 3592   3.480   0.409  15.601  0.6240 -2.0680 -1.5847
   28DOPE  H12Y 3593   3.637   0.322  15.663  2.5338  1.9909  1.7930
   28DOPE  C313 3594   3.617   0.371  15.453  0.0918 -0.9048 -0.1853
   28DOPE  H13X 3595   3.554   0.436  15.389 -0.4980 -1.6948 -0.4151
   28DOPE  H13Y 3596   3.726   0.388  15.434  0.0328 -0.1896  0.1033
   28DOPE  C314 3597   3.585   0.232  15.418 -0.5462  0.3220 -0.0187
   28DOPE  H14X 3598   3.476   0.211  15.428 -0.8529  1.8915  0.1413
   28DOPE  H14Y 3599   3.629   0.163  15.493  0.8695  0.0139 -1.0885
   28DOPE  C315 3600   3.635   0.203  15.270 -0.0452 -0.3285 -0.2264
   28DOPE  H15X 3601   3.742   0.220  15.246  0.1128  0.8789  1.1677
   28DOPE  H15Y 3602   3.591   0.291  15.217  1.2138  1.1437  1.0508
   28DOPE  C316 3603   3.600   0.070  15.202  0.3203  0.6985  0.3488
   28DOPE  H16X 3604   3.649  -0.012  15.260 -0.1495  1.9727  2.6650
   28DOPE  H16Y 3605   3.638   0.081  15.098  1.8488  1.9127  0.9909
   28DOPE  C317 3606   3.453   0.028  15.202 -0.6373  0.1873 -0.0956
   28DOPE  H17X 3607   3.448  -0.050  15.124  2.6251  0.5997 -0.8511
   28DOPE  H17Y 3608   3.426  -0.005  15.305 -2.1676  1.7525  0.0531
   28DOPE  C318 3609   3.346   0.133  15.176  0.0594  0.5076 -0.3277
   28DOPE  H18X 3610   3.245   0.090  15.194  0.5131 -1.4329 -2.0564
   28DOPE  H18Y 3611   3.364   0.225  15.235  1.1134  0.1411 -0.0533
   28DOPE  H18Z 3612   3.338   0.165  15.069  1.3775  1.4853 -0.1630
   29DOPE     N 3613   1.665   2.773  17.912  0.1351  0.4096  0.6356
   29DOPE   HN1 3614   1.703   2.743  17.820  1.3931  0.5783  1.0703
   29DOPE   HN2 3615   1.736   2.833  17.959 -0.8859  1.6844  0.5998
   29DOPE   HN3 3616   1.651   2.682  17.960  0.7008  0.0911  0.2124
   29DOPE   C12 3617   1.528   2.838  17.889 -0.6709 -0.1018 -0.6087
   29DOPE  H12A 3618   1.547   2.947  17.892 -1.0280 -0.0627  0.8906
   29DOPE  H12B 3619   1.460   2.807  17.971 -1.3680 -0.8143 -1.4362
   29DOPE   C11 3620   1.469   2.810  17.749 -0.3988 -0.4724  0.1826
   29DOPE  H11A 3621   1.548   2.848  17.680 -0.6493  1.1453  0.7386
   29DOPE  H11B 3622   1.387   2.883  17.735  1.0341  1.4277  1.2037
   29DOPE     P 3623   1.294   2.614  17.711  0.0442 -0.3584 -0.1171
   29DOPE   O13 3624   1.205   2.667  17.815  0.5521 -0.3959 -0.4157
   29DOPE   O14 3625   1.303   2.467  17.703 -0.9110 -0.5817 -0.6419
   29DOPE   O11 3626   1.245   2.674  17.573  0.2225 -0.0447 -0.0122
   29DOPE   O12 3627   1.441   2.673  17.729  0.7507  0.7013  0.3985
   29DOPE    C1 3628   1.338   2.645  17.468 -0.1830 -0.9256  0.4613
   29DOPE    HA 3629   1.388   2.546  17.475 -0.3665 -1.0577 -0.0467
   29DOPE    HB 3630   1.419   2.721  17.473 -1.9635  1.0879 -0.2311
   29DOPE    C2 3631   1.274   2.659  17.324  0.6352 -0.4535  0.0080
   29DOPE    HS 3632   1.199   2.577  17.316  0.2508 -0.0209 -0.9919
   29DOPE   O21 3633   1.378   2.668  17.228 -0.0650  0.7334  0.5046
   29DOPE   C21 3634   1.354   2.612  17.103 -0.8754 -0.1978 -0.2894
   29DOPE   O22 3635   1.249   2.563  17.074  0.2453 -0.3503 -0.1059
   29DOPE   C22 3636   1.485   2.606  17.029  0.6416 -0.1627  0.2246
   29DOPE   H2R 3637   1.557   2.552  17.095 -0.7868 -0.8237  1.3111
   29DOPE   H2S 3638   1.524   2.707  17.004  0.0332  0.1086  0.3618
   29DOPE    C3 3639   1.191   2.791  17.311  0.0555  0.2350  0.4658
   29DOPE    HX 3640   1.265   2.864  17.351  2.4236 -3.0980  2.7158
   29DOPE    HY 3641   1.102   2.773  17.376 -0.5547  1.8917  0.1458
   29DOPE   O31 3642   1.158   2.820  17.174  0.6888  0.9633 -0.1687
   29DOPE   C31 3643   1.035   2.776  17.131  0.1444 -0.0354  0.4883
   29DOPE   O32 3644   0.963   2.695  17.183 -0.2217  0.1595  0.4823
   29DOPE   C32 3645   0.997   2.857  17.002  0.2255  1.0269  0.2494
   29DOPE   H2X 3646   0.896   2.810  16.996  0.5984 -0.2602  2.8779
   29DOPE   H2Y 3647   1.001   2.965  17.027  1.7986  0.4981  2.6008
   29DOPE   C23 3648   1.470   2.521  16.898 -0.2656 -0.0576 -1.1146
   29DOPE   H3R 3649   1.439   2.416  16.918 -3.0757  0.9254  0.1260
   29DOPE   H3S 3650   1.574   2.522  16.859  0.6852  3.1313  1.1445
   29DOPE   C24 3651   1.393   2.578  16.781  0.0360 -0.2007 -0.4069
   29DOPE   H4R 3652   1.406   2.688  16.787 -0.3593 -0.1762  0.1733
   29DOPE   H4S 3653   1.284   2.557  16.785  0.1980 -1.1048 -0.4868
   29DOPE   C25 3654   1.439   2.522  16.649 -0.3416 -0.7686  0.5080
   29DOPE   H5R 3655   1.412   2.414  16.648 -0.5323 -0.8551  4.1260
   29DOPE   H5S 3656   1.550   2.528  16.643 -0.4196  1.3634  0.5738
   29DOPE   C26 3657   1.385   2.591  16.512 -0.3281  0.4518 -0.9415
   29DOPE   H6R 3658   1.436   2.689  16.504  0.1806  0.3174  0.3518
   29DOPE   H6S 3659   1.275   2.599  16.520 -0.4658  0.5173 -2.5342
   29DOPE   C27 3660   1.403   2.509  16.379 -0.3675 -0.2230  1.1844
   29DOPE   H7R 3661   1.346   2.414  16.382  1.9435 -1.6828  1.6886
   29DOPE   H7S 3662   1.512   2.487  16.367 -0.7385 -0.8324 -1.7833
   29DOPE   C28 3663   1.354   2.592  16.252  0.0263  1.1237  0.8890
   29DOPE   H8R 3664   1.407   2.690  16.246  1.7588  0.1977  0.2954
   29DOPE   H8S 3665   1.244   2.605  16.263 -0.1193  1.1362 -0.4333
   29DOPE   C29 3666   1.373   2.510  16.131 -0.0464  0.4877 -0.3059
   29DOPE   H9R 3667   1.346   2.404  16.148  0.3727  0.5974  1.1939
   29DOPE  C210 3668   1.397   2.552  16.006  0.1734 -0.9845  0.0181
   29DOPE  H10R 3669   1.407   2.474  15.929  0.3505 -0.3517 -0.6188
   29DOPE  C211 3670   1.458   2.686  15.968  1.0409 -0.2490  0.3391
   29DOPE  H11R 3671   1.548   2.714  16.027  0.1566  1.6254  0.8825
   29DOPE  H11S 3672   1.376   2.756  15.992  0.3973 -0.5094 -0.9832
   29DOPE  C212 3673   1.489   2.678  15.820 -0.1594 -0.0996  0.5888
   29DOPE  H12R 3674   1.546   2.593  15.778 -1.2688  0.0097 -1.2528
   29DOPE  H12S 3675   1.564   2.759  15.804  0.1683 -0.5896 -0.4187
   29DOPE  C213 3676   1.373   2.713  15.728  0.4603 -0.2772  0.4500
   29DOPE  H13R 3677   1.323   2.799  15.777 -0.8344 -1.1003  0.6221
   29DOPE  H13S 3678   1.300   2.630  15.719  0.4218 -0.5652  2.7784
   29DOPE  C214 3679   1.432   2.754  15.593 -0.1305 -0.0048  0.2357
   29DOPE  H14R 3680   1.480   2.667  15.543  0.1525  1.3477 -1.9967
   29DOPE  H14S 3681   1.513   2.830  15.598  1.5137 -1.4176 -2.4715
   29DOPE  C215 3682   1.331   2.816  15.498 -0.3001  0.0500  0.4976
   29DOPE  H15R 3683   1.305   2.919  15.530  2.7963  0.8089  0.8500
   29DOPE  H15S 3684   1.243   2.748  15.498 -0.1656 -0.1966 -1.3959
   29DOPE  C216 3685   1.370   2.804  15.351 -0.2941  0.7827  0.0547
   29DOPE  H16R 3686   1.411   2.701  15.349 -0.4951  0.7147 -1.5517
   29DOPE  H16S 3687   1.453   2.877  15.337  0.9300 -0.2439  1.5628
   29DOPE  C217 3688   1.258   2.821  15.243 -0.1303  0.5536 -0.7767
   29DOPE  H17R 3689   1.187   2.743  15.280  1.7746  0.4704  3.1242
   29DOPE  H17S 3690   1.312   2.796  15.149  1.1417 -1.5278  0.4202
   29DOPE  C218 3691   1.191   2.954  15.239 -0.1160 -0.2912  0.2809
   29DOPE  H18R 3692   1.118   2.968  15.322 -0.7834 -1.5793 -0.0486
   29DOPE  H18S 3693   1.132   2.955  15.145 -0.7311 -2.6494  0.5706
   29DOPE  H18T 3694   1.260   3.040  15.247 -0.8731  0.4111 -0.6090
   29DOPE   C33 3695   1.096   2.832  16.881  0.2942 -0.1791 -0.4798
   29DOPE   H3X 3696   1.112   2.723  16.865 -2.5934 -0.6110 -0.8905
   29DOPE   H3Y 3697   1.195   2.876  16.906 -0.3622  0.6262  0.7903
   29DOPE   C34 3698   1.049   2.897  16.749  0.2591 -0.2197 -0.0527
   29DOPE   H4X 3699   0.941   2.878  16.736 -0.3198  0.3797  3.0524
   29DOPE   H4Y 3700   1.059   3.007  16.761 -1.3067 -0.0805  0.1538
   29DOPE   C35 3701   1.132   2.863  16.628  0.7065  0.0124 -0.1936
   29DOPE   H5X 3702   1.139   2.755  16.599 -0.0063 -0.8095  2.4257
   29DOPE   H5Y 3703   1.235   2.903  16.633  0.6351  0.3163 -0.9741
   29DOPE   C36 3704   1.075   2.937  16.508 -0.0302 -0.7606 -0.0647
   29DOPE   H6X 3705   1.070   3.047  16.526 -2.3986 -0.7818 -0.2895
   29DOPE   H6Y 3706   0.969   2.915  16.485 -0.3372  0.5992 -0.0583
   29DOPE   C37 3707   1.164   2.909  16.383  0.0525  0.1759  0.2914
   29DOPE   H7X 3708   1.255   2.972  16.388 -1.5325  2.7760 -1.4133
   29DOPE   H7Y 3709   1.199   2.804  16.368 -2.8379 -0.6635 -1.3587
   29DOPE   C38 3710   1.089   2.949  16.259  0.3435  0.6818  0.3824
   29DOPE   H8X 3711   1.087   3.060  16.252 -0.1090  0.6505 -0.0989
   29DOPE   H8Y 3712   0.983   2.914  16.259  0.0092  1.6046 -0.8435
   29DOPE   C39 3713   1.169   2.908  16.132 -0.3709  0.1462 -0.3233
   29DOPE   H9X 3714   1.206   2.804  16.137 -1.0943 -0.0612  2.1217
   29DOPE  C310 3715   1.179   2.982  16.020 -0.1060  0.1709  0.0197
   29DOPE  H10X 3716   1.247   2.943  15.943  1.4974 -1.0616  1.9693
   29DOPE  C311 3717   1.095   3.101  15.982  0.5596  0.2235 -0.1111
   29DOPE  H11X 3718   1.012   3.123  16.052  0.9403 -1.9917  1.1419
   29DOPE  H11Y 3719   1.164   3.188  15.986  0.1062  0.5363  2.0631
   29DOPE  C312 3720   1.037   3.104  15.843  0.0819 -0.4687 -0.0720
   29DOPE  H12X 3721   0.976   3.197  15.831  0.6668  0.3713  2.6429
   29DOPE  H12Y 3722   0.967   3.020  15.824 -0.9492 -0.1415  1.9895
   29DOPE  C313 3723   1.156   3.104  15.740  0.2721  0.3011 -0.1802
   29DOPE  H13X 3724   1.237   3.173  15.771 -0.5999  0.5608  1.7033
   29DOPE  H13Y 3725   1.179   2.996  15.742 -3.4665 -0.6383  0.2999
   29DOPE  C314 3726   1.103   3.145  15.600 -0.4261 -0.2450  1.0722
   29DOPE  H14X 3727   1.012   3.210  15.600  0.2604  0.7576 -0.1356
   29DOPE  H14Y 3728   1.069   3.059  15.538 -0.3843  0.2652  0.3246
   29DOPE  C315 3729   1.198   3.224  15.503 -0.3583 -0.6199 -0.6164
   29DOPE  H15X 3730   1.135   3.252  15.417 -1.4430  3.4893  1.2695
   29DOPE  H15Y 3731   1.280   3.155  15.474 -0.5818 -0.8519 -0.6894
   29DOPE  C316 3732   1.256   3.345  15.581  0.3189  0.0997 -0.0856
   29DOPE  H16X 3733   1.335   3.324  15.656  0.8345  0.8881 -0.4009
   29DOPE  H16Y 3734   1.177   3.409  15.626  1.0419 -1.0349  3.0628
   29DOPE  C317 3735   1.304   3.443  15.475 -0.0553 -0.1526 -0.0396
   29DOPE  H17X 3736   1.370   3.383  15.409 -0.2545  0.5812 -0.9320
   29DOPE  H17Y 3737   1.225   3.478  15.406  0.4579 -1.3349 -1.2664
   29DOPE  C318 3738   1.382   3.561  15.535  0.2883  0.0086  0.4165
   29DOPE  H18X 3739   1.317   3.630  15.595  1.8680  1.7995  0.1738
   29DOPE  H18Y 3740   1.466   3.520  15.595  0.1345  1.2792  1.5615
   29DOPE  H18Z 3741   1.422   3.631  15.458  1.2289  0.7903  1.5742
   30DOPE     N 3742   1.948   1.469  17.100 -1.2579 -0.7326  0.3155
   30DOPE   HN1 3743   1.888   1.471  17.015  1.2335 -1.0767 -1.5735
   30DOPE   HN2 3744   2.048   1.462  17.073 -0.9353  0.7101  1.0371
   30DOPE   HN3 3745   1.918   1.382  17.148  0.5088 -0.4209  2.1313
   30DOPE   C12 3746   1.923   1.596  17.173  0.1800  1.0647  0.0580
   30DOPE  H12A 3747   1.965   1.591  17.276 -1.8388 -0.0547  0.8843
   30DOPE  H12B 3748   1.812   1.603  17.178  0.1591  0.4578  0.5210
   30DOPE   C11 3749   1.983   1.713  17.094  0.4287  0.1755  0.2294
   30DOPE  H11A 3750   2.094   1.715  17.086  0.3086 -0.3291 -3.1325
   30DOPE  H11B 3751   1.969   1.804  17.156 -0.8767 -0.5361  1.0052
   30DOPE     P 3752   1.782   1.786  16.937  0.1193 -0.2075 -0.2684
   30DOPE   O13 3753   1.768   1.906  17.024  0.0644 -0.0807 -0.3954
   30DOPE   O14 3754   1.690   1.670  16.960  0.0684  0.2935 -0.5698
   30DOPE   O11 3755   1.780   1.829  16.782 -0.2122  0.1860  0.2034
   30DOPE   O12 3756   1.931   1.731  16.956  0.2542  0.4397  0.1238
   30DOPE    C1 3757   1.898   1.892  16.722  0.1513  0.0504 -0.2945
   30DOPE    HA 3758   1.983   1.823  16.741 -0.4179 -0.6870 -0.4017
   30DOPE    HB 3759   1.914   1.992  16.768  1.3855 -0.1632 -0.2202
   30DOPE    C2 3760   1.888   1.905  16.565  0.5047  0.2906  0.1884
   30DOPE    HS 3761   1.978   1.950  16.516  0.1533  1.4441  0.5684
   30DOPE   O21 3762   1.764   1.980  16.523  0.0968  0.4547 -0.2592
   30DOPE   C21 3763   1.778   2.112  16.535 -0.6099  0.7412  0.0349
   30DOPE   O22 3764   1.876   2.167  16.581 -0.2546 -0.3646 -0.4807
   30DOPE   C22 3765   1.647   2.178  16.485  0.0265  0.4063  0.4164
   30DOPE   H2R 3766   1.672   2.283  16.458  1.7477 -0.2149 -0.5116
   30DOPE   H2S 3767   1.572   2.176  16.567 -0.2874  1.8774  0.1938
   30DOPE    C3 3768   1.892   1.766  16.497  0.6645 -0.1855  0.4562
   30DOPE    HX 3769   1.794   1.716  16.517  0.7581 -1.1707 -1.3880
   30DOPE    HY 3770   1.979   1.714  16.543  0.0800  0.4187  2.3569
   30DOPE   O31 3771   1.913   1.794  16.356  0.1022  0.1874  0.1593
   30DOPE   C31 3772   1.801   1.794  16.283 -0.2149  0.1073 -0.3875
   30DOPE   O32 3773   1.689   1.766  16.319 -0.6641 -0.2783 -0.0633
   30DOPE   C32 3774   1.845   1.795  16.137  0.2717 -0.1378  0.5346
   30DOPE   H2X 3775   1.805   1.895  16.108  0.2206 -0.7731 -1.7167
   30DOPE   H2Y 3776   1.955   1.797  16.120  0.0636  0.3161 -0.8913
   30DOPE   C23 3777   1.587   2.130  16.349 -0.0956 -0.3752  0.5608
   30DOPE   H3R 3778   1.489   2.180  16.331 -1.1158 -1.8353  1.7676
   30DOPE   H3S 3779   1.559   2.022  16.349 -1.8355  0.0423  0.2371
   30DOPE   C24 3780   1.681   2.170  16.233  0.3526  0.3686  0.0952
   30DOPE   H4R 3781   1.768   2.102  16.240 -0.3484 -0.5901 -0.1607
   30DOPE   H4S 3782   1.716   2.274  16.249 -0.0841  0.8661 -1.8678
   30DOPE   C25 3783   1.613   2.159  16.088  0.0535  0.3980 -0.7452
   30DOPE   H5R 3784   1.536   2.238  16.073  0.6187  1.3474  1.1056
   30DOPE   H5S 3785   1.565   2.059  16.080  1.5994 -0.4958  0.6344
   30DOPE   C26 3786   1.708   2.170  15.974  0.1859 -0.7912  0.1872
   30DOPE   H6R 3787   1.802   2.113  15.990  1.3081  1.0609  0.4586
   30DOPE   H6S 3788   1.735   2.277  15.982  1.6807 -1.1047 -0.2860
   30DOPE   C27 3789   1.638   2.148  15.839  0.2433  0.1083  0.1187
   30DOPE   H7R 3790   1.548   2.209  15.818 -0.0848 -0.8308 -1.3401
   30DOPE   H7S 3791   1.618   2.039  15.830  0.5871  0.0750 -0.2660
   30DOPE   C28 3792   1.729   2.177  15.724 -0.2945 -0.3351  1.0051
   30DOPE   H8R 3793   1.770   2.279  15.744  0.5754 -0.7142  1.2185
   30DOPE   H8S 3794   1.665   2.179  15.634 -0.4851 -1.8675  1.0798
   30DOPE   C29 3795   1.847   2.091  15.706  0.1702 -0.0472 -0.1757
   30DOPE   H9R 3796   1.922   2.092  15.786  0.7825 -2.2934 -0.6460
   30DOPE  C210 3797   1.865   1.996  15.606  0.3858 -0.4487 -0.5420
   30DOPE  H10R 3798   1.957   1.938  15.612  1.8543  1.5575 -2.2296
   30DOPE  C211 3799   1.779   1.967  15.484 -0.3877 -0.4183  0.6702
   30DOPE  H11R 3800   1.680   2.015  15.500 -0.2490  0.1931 -0.2653
   30DOPE  H11S 3801   1.752   1.862  15.458  2.0007 -1.8554  3.3802
   30DOPE  C212 3802   1.841   2.036  15.358  0.4632  0.6429  0.4307
   30DOPE  H12R 3803   1.952   2.033  15.368  0.3281 -1.3149  1.8208
   30DOPE  H12S 3804   1.798   2.139  15.351 -0.5006  0.4108  2.2503
   30DOPE  C213 3805   1.797   1.967  15.226  0.2400  0.3829 -0.9897
   30DOPE  H13R 3806   1.802   1.856  15.228 -2.3898  0.2039  0.4047
   30DOPE  H13S 3807   1.869   2.013  15.155  0.6927  1.3688  0.0754
   30DOPE  C214 3808   1.650   2.000  15.190 -0.0390 -0.0526 -0.1774
   30DOPE  H14R 3809   1.586   1.976  15.277 -1.0858 -0.8925 -1.1467
   30DOPE  H14S 3810   1.623   1.934  15.105  1.7204  1.8936 -2.4084
   30DOPE  C215 3811   1.626   2.147  15.145 -0.3680 -0.2798  0.6422
   30DOPE  H15R 3812   1.718   2.186  15.097  0.0558  0.1140  1.7448
   30DOPE  H15S 3813   1.627   2.214  15.233 -0.1706  0.3773  0.1409
   30DOPE  C216 3814   1.493   2.176  15.075  0.3890  0.2057  0.2563
   30DOPE  H16R 3815   1.414   2.151  15.149  1.6519 -1.3492  1.1387
   30DOPE  H16S 3816   1.473   2.093  15.005  2.8046  0.3711 -0.7331
   30DOPE  C217 3817   1.465   2.313  15.005 -0.7764 -0.4789 -0.0927
   30DOPE  H17R 3818   1.357   2.310  14.977 -0.6204  0.7407 -0.8885
   30DOPE  H17S 3819   1.530   2.319  14.916 -2.0422 -3.0074 -1.2787
   30DOPE  C218 3820   1.476   2.435  15.089  0.2139  0.4147 -0.0305
   30DOPE  H18R 3821   1.458   2.521  15.020  0.8569 -2.7742 -4.6480
   30DOPE  H18S 3822   1.578   2.441  15.131 -0.2267  0.9460  0.9991
   30DOPE  H18T 3823   1.394   2.428  15.164  0.1099  1.1474 -0.0636
   30DOPE   C33 3824   1.764   1.685  16.065 -0.0762  0.6779 -0.0288
   30DOPE   H3X 3825   1.656   1.707  16.050  0.2330  1.5040 -1.1863
   30DOPE   H3Y 3826   1.781   1.587  16.114  0.8315 -0.9059 -3.2499
   30DOPE   C34 3827   1.817   1.663  15.918 -0.0620 -0.3979 -0.1605
   30DOPE   H4X 3828   1.862   1.757  15.878  0.3468 -1.0346 -1.2665
   30DOPE   H4Y 3829   1.901   1.591  15.906  0.9040  1.0007 -2.7042
   30DOPE   C35 3830   1.707   1.629  15.817 -0.0035 -0.3195  0.1309
   30DOPE   H5X 3831   1.619   1.694  15.833  0.3187 -0.5560  3.6762
   30DOPE   H5Y 3832   1.681   1.521  15.821 -0.8834 -0.1370 -0.3923
   30DOPE   C36 3833   1.767   1.635  15.678  0.1507  0.3113 -0.5416
   30DOPE   H6X 3834   1.866   1.585  15.682  2.7357  4.9360  2.0817
   30DOPE   H6Y 3835   1.785   1.740  15.648 -0.6882  0.2457 -1.3223
   30DOPE   C37 3836   1.678   1.573  15.571  0.8348  0.0172  0.0532
   30DOPE   H7X 3837   1.626   1.487  15.617  0.6904  0.0476 -0.0520
   30DOPE   H7Y 3838   1.605   1.655  15.556  0.0736 -0.3130  1.8325
   30DOPE   C38 3839   1.752   1.537  15.439  0.3448  0.2071 -0.1445
   30DOPE   H8X 3840   1.811   1.446  15.458  3.2138  1.7553 -1.0047
   30DOPE   H8Y 3841   1.824   1.615  15.405  0.9534 -0.7746 -1.1581
   30DOPE   C39 3842   1.643   1.520  15.335 -0.1458 -1.0660  0.4503
   30DOPE   H9X 3843   1.540   1.504  15.372  0.6607 -0.2476  3.2790
   30DOPE  C310 3844   1.659   1.527  15.199 -0.8246  0.3727  0.4544
   30DOPE  H10X 3845   1.577   1.496  15.132  0.3818 -1.7369 -0.1605
   30DOPE  C311 3846   1.788   1.558  15.131 -0.7836  0.2595 -0.0000
   30DOPE  H11X 3847   1.775   1.662  15.093 -2.1603  0.5798  1.2459
   30DOPE  H11Y 3848   1.873   1.545  15.201 -0.1350  0.6291 -0.7112
   30DOPE  C312 3849   1.814   1.456  15.019  0.3882  0.3998  0.5755
   30DOPE  H12X 3850   1.730   1.463  14.947 -0.1856 -2.5851  0.8176
   30DOPE  H12Y 3851   1.811   1.351  15.056  0.3828  0.6994  1.4519
   30DOPE  C313 3852   1.941   1.485  14.930 -0.6667 -0.2234  0.5098
   30DOPE  H13X 3853   1.928   1.590  14.895 -0.6994 -0.6730 -0.8749
   30DOPE  H13Y 3854   2.027   1.479  15.000 -1.4065  1.4223  1.6318
   30DOPE  C314 3855   1.953   1.394  14.811 -0.8161  0.4841  0.2460
   30DOPE  H14X 3856   1.856   1.393  14.756 -0.1064  0.1939 -1.0300
   30DOPE  H14Y 3857   1.977   1.296  14.858  1.5511  1.3401  0.9657
   30DOPE  C315 3858   2.056   1.436  14.714  0.2359 -0.3930  0.7278
   30DOPE  H15X 3859   2.148   1.468  14.769  0.5906  0.6422 -0.4050
   30DOPE  H15Y 3860   2.028   1.530  14.662 -0.2543 -0.6910  0.4590
   30DOPE  C316 3861   2.074   1.324  14.612 -0.4393  0.1562  0.2935
   30DOPE  H16X 3862   1.982   1.301  14.553 -0.1710 -0.7521  0.2043
   30DOPE  H16Y 3863   2.103   1.232  14.668 -0.2846 -0.7064 -1.1435
   30DOPE  C317 3864   2.175   1.346  14.503 -1.1935 -0.1571  0.9418
   30DOPE  H17X 3865   2.191   1.244  14.462 -0.0150 -0.0312  1.0435
   30DOPE  H17Y 3866   2.131   1.418  14.431 -0.6111 -0.9111 -0.1948
   30DOPE  C318 3867   2.317   1.384  14.549 -0.2130 -0.2075  0.1691
   30DOPE  H18X 3868   2.312   1.474  14.614 -0.8739 -2.0935  2.8862
   30DOPE  H18Y 3869   2.366   1.306  14.611  3.4953  1.5288 -0.3247
   30DOPE  H18Z 3870   2.386   1.404  14.464 -1.1933  1.3328 -0.3042
   31DOPE     N 3871   4.396   4.712  12.554 -0.0408 -0.5612  0.2139
   31DOPE   HN1 3872   4.294   4.698  12.541 -0.1524  1.5351 -2.0254
   31DOPE   HN2 3873   4.414   4.701  12.655 -0.6928  0.6220  0.4778
   31DOPE   HN3 3874   4.417   4.811  12.530  1.1343 -0.9424 -0.4668
   31DOPE   C12 3875   4.482   4.618  12.476  0.1353 -0.0211 -0.3369
   31DOPE  H12A 3876   4.473   4.638  12.367 -1.8183  0.5914 -0.1144
   31DOPE  H12B 3877   4.429   4.524  12.505 -0.8207  1.5728  3.7839
   31DOPE   C11 3878   4.622   4.624  12.531 -0.1693  0.6065 -0.6312
   31DOPE  H11A 3879   4.662   4.728  12.517 -2.5576  1.7773  0.6896
   31DOPE  H11B 3880   4.683   4.546  12.481  0.4250 -0.6538  1.9305
   31DOPE     P 3881   4.764   4.540  12.730  0.2465  0.0121  0.1554
   31DOPE   O13 3882   4.845   4.649  12.786  0.2374  1.0315  0.0808
   31DOPE   O14 3883   4.833   4.454  12.633 -0.0867  0.0061  0.3419
   31DOPE   O11 3884   4.723   4.452  12.851 -0.7978 -0.2071  0.0022
   31DOPE   O12 3885   4.624   4.590  12.667  0.2959  0.6171 -0.0330
   31DOPE    C1 3886   4.603   4.463  12.933 -0.1949 -0.6087  0.1047
   31DOPE    HA 3887   4.512   4.439  12.874 -0.8704  0.9956  0.4248
   31DOPE    HB 3888   4.584   4.568  12.967  0.7907 -0.3783 -0.0287
   31DOPE    C2 3889   4.599   4.368  13.056  0.5804  0.2243 -0.3924
   31DOPE    HS 3890   4.501   4.384  13.105  0.0757  0.5690 -1.4812
   31DOPE   O21 3891   4.712   4.372  13.136 -0.0112 -0.2914 -0.4252
   31DOPE   C21 3892   4.695   4.443  13.249 -0.4492 -0.1058 -0.1248
   31DOPE   O22 3893   4.584   4.476  13.292 -0.5505  0.0106 -0.2770
   31DOPE   C22 3894   4.831   4.456  13.324  0.4502  0.1967 -0.4033
   31DOPE   H2R 3895   4.881   4.544  13.279  0.4743  0.7128  0.6063
   31DOPE   H2S 3896   4.887   4.363  13.301  0.6744 -0.0796  1.1465
   31DOPE    C3 3897   4.585   4.221  13.001  0.5086 -0.1861 -0.3788
   31DOPE    HX 3898   4.672   4.213  12.933  0.4165  2.4921 -0.8919
   31DOPE    HY 3899   4.491   4.209  12.943  0.2257  1.9868 -0.4206
   31DOPE   O31 3900   4.586   4.122  13.111 -0.2532  0.9477 -0.5016
   31DOPE   C31 3901   4.681   4.032  13.100  0.1938  0.1132  0.4320
   31DOPE   O32 3902   4.765   4.023  13.009 -0.1769 -0.1713 -0.4565
   31DOPE   C32 3903   4.681   3.941  13.229 -0.4215 -0.0059  0.2374
   31DOPE   H2X 3904   4.577   3.942  13.268 -0.7015  1.0692 -0.4951
   31DOPE   H2Y 3905   4.703   3.838  13.192  0.3697 -0.8382  2.8375
   31DOPE   C23 3906   4.812   4.477  13.475  0.0372 -0.2721 -0.4494
   31DOPE   H3R 3907   4.759   4.573  13.493  1.2272  0.0910  1.4012
   31DOPE   H3S 3908   4.908   4.490  13.530 -0.3410 -0.0177  0.1709
   31DOPE   C24 3909   4.732   4.367  13.536 -0.0513 -0.5068 -0.3023
   31DOPE   H4R 3910   4.738   4.269  13.484  1.7585 -0.5865  0.0224
   31DOPE   H4S 3911   4.623   4.391  13.542  0.2402  0.8629 -0.1437
   31DOPE   C25 3912   4.778   4.333  13.683  0.4241 -0.1418 -0.4115
   31DOPE   H5R 3913   4.881   4.293  13.690  1.3131  2.2339  2.0869
   31DOPE   H5S 3914   4.710   4.254  13.722  0.8252  0.5929  1.9473
   31DOPE   C26 3915   4.772   4.449  13.788 -0.1391  0.6919 -0.8120
   31DOPE   H6R 3916   4.664   4.474  13.792 -0.3926  0.0608 -2.8137
   31DOPE   H6S 3917   4.832   4.538  13.759 -1.1189  1.7865  0.3901
   31DOPE   C27 3918   4.819   4.391  13.927 -0.0761  0.1919  1.0298
   31DOPE   H7R 3919   4.926   4.361  13.925  0.5317  2.2176 -1.1472
   31DOPE   H7S 3920   4.769   4.291  13.933  0.5045 -0.4468 -2.5375
   31DOPE   C28 3921   4.766   4.482  14.035  0.0336 -0.0483  0.2650
   31DOPE   H8R 3922   4.672   4.531  14.002 -0.8327 -0.9275  1.3419
   31DOPE   H8S 3923   4.839   4.566  14.043  1.5252 -1.3532  0.9468
   31DOPE   C29 3924   4.729   4.416  14.165 -0.4657  0.6387 -0.7591
   31DOPE   H9R 3925   4.629   4.371  14.173 -0.0114 -0.0745  1.8700
   31DOPE  C210 3926   4.817   4.389  14.266 -0.3856  0.4282  0.8719
   31DOPE  H10R 3927   4.786   4.317  14.344  1.2612  0.0373  1.2187
   31DOPE  C211 3928   4.968   4.419  14.268  0.2874 -1.2691  0.0313
   31DOPE  H11R 3929   5.010   4.461  14.175 -1.0004  3.8376  1.4265
   31DOPE  H11S 3930   5.031   4.331  14.291  3.1135  0.5547 -0.2136
   31DOPE  C212 3931   5.001   4.526  14.372 -0.3419  0.6076 -0.1734
   31DOPE  H12R 3932   4.969   4.626  14.336  0.1852  0.8514  0.0307
   31DOPE  H12S 3933   5.112   4.526  14.361 -0.5244  1.2636 -2.8484
   31DOPE  C213 3934   4.960   4.496  14.521  0.1002 -0.1684 -0.3080
   31DOPE  H13R 3935   4.938   4.389  14.543  2.3687 -0.1279  2.9200
   31DOPE  H13S 3936   4.864   4.550  14.537 -0.3302 -0.9886 -0.0349
   31DOPE  C214 3937   5.055   4.542  14.628 -0.1534  0.0120 -0.1280
   31DOPE  H14R 3938   5.058   4.653  14.623 -0.5072  0.0001 -0.6137
   31DOPE  H14S 3939   5.160   4.516  14.604 -1.1996 -3.1016 -1.9164
   31DOPE  C215 3940   5.013   4.500  14.767  0.1848 -0.7389  0.6679
   31DOPE  H15R 3941   5.033   4.391  14.767 -0.3091 -0.8367 -0.4362
   31DOPE  H15S 3942   4.912   4.535  14.796  0.5494 -0.4496  1.6174
   31DOPE  C216 3943   5.102   4.561  14.875  0.3585  0.1257  0.0540
   31DOPE  H16R 3944   5.103   4.672  14.861  1.3278 -0.0424 -1.4772
   31DOPE  H16S 3945   5.209   4.537  14.859  0.0146 -0.8113 -0.9351
   31DOPE  C217 3946   5.057   4.527  15.011  0.8356 -0.1125  0.2988
   31DOPE  H17R 3947   5.061   4.416  15.019  2.8175 -0.0916  0.0943
   31DOPE  H17S 3948   4.951   4.559  15.014  0.6437 -0.7398  0.1868
   31DOPE  C218 3949   5.142   4.587  15.123 -0.7943  0.3473 -0.3534
   31DOPE  H18R 3950   5.106   4.539  15.217  0.9607 -2.0647 -0.8302
   31DOPE  H18S 3951   5.118   4.696  15.124  0.9175  0.7655 -1.5605
   31DOPE  H18T 3952   5.248   4.568  15.099 -1.1014 -0.3455 -1.1964
   31DOPE   C33 3953   4.778   3.981  13.342 -0.4360  0.4966 -0.1806
   31DOPE   H3X 3954   4.776   4.088  13.373  2.2661  0.1917  1.3472
   31DOPE   H3Y 3955   4.877   3.974  13.290 -1.4944 -0.0319 -2.2200
   31DOPE   C34 3956   4.773   3.892  13.466 -0.4192  0.3525 -0.1315
   31DOPE   H4X 3957   4.671   3.896  13.511 -0.5843  0.6912 -0.5278
   31DOPE   H4Y 3958   4.792   3.791  13.422 -0.2059  0.3948 -0.1384
   31DOPE   C35 3959   4.871   3.940  13.579  1.0312 -0.7795 -0.2501
   31DOPE   H5X 3960   4.863   4.051  13.577  1.1109 -0.7607  0.2910
   31DOPE   H5Y 3961   4.974   3.906  13.558  1.6930  0.6710  0.5572
   31DOPE   C36 3962   4.830   3.899  13.715  0.1844 -0.1031  0.1308
   31DOPE   H6X 3963   4.844   3.789  13.725  0.8446 -0.0174  0.1713
   31DOPE   H6Y 3964   4.723   3.921  13.735  0.3219 -0.2363  1.0933
   31DOPE   C37 3965   4.909   3.969  13.829 -0.4681 -0.0013  0.2635
   31DOPE   H7X 3966   5.017   3.968  13.804 -0.6770 -1.2883 -0.6854
   31DOPE   H7Y 3967   4.860   4.068  13.841 -1.2690 -0.5647  1.9932
   31DOPE   C38 3968   4.891   3.888  13.964  0.0230  0.3150 -0.2815
   31DOPE   H8X 3969   4.969   3.934  14.029  0.8529 -3.1087  1.3638
   31DOPE   H8Y 3970   4.928   3.784  13.957  0.3684 -0.0198  3.8892
   31DOPE   C39 3971   4.754   3.889  14.033  0.2524  0.4820  0.0850
   31DOPE   H9X 3972   4.666   3.915  13.973 -0.6029 -3.9195 -0.9296
   31DOPE  C310 3973   4.728   3.865  14.162  0.2482  0.4931 -0.4312
   31DOPE  H10X 3974   4.623   3.871  14.195 -0.0383  1.5964 -1.4416
   31DOPE  C311 3975   4.834   3.819  14.260 -0.0351 -0.7224  0.0112
   31DOPE  H11X 3976   4.915   3.770  14.202 -0.2284 -1.3074  0.2253
   31DOPE  H11Y 3977   4.880   3.890  14.332  1.6068 -3.4487  1.8235
   31DOPE  C312 3978   4.777   3.704  14.344 -0.3726 -0.0055  0.3244
   31DOPE  H12X 3979   4.862   3.644  14.384  0.7530  1.5415  0.3287
   31DOPE  H12Y 3980   4.726   3.630  14.279  1.4689 -1.5643  0.5455
   31DOPE  C313 3981   4.689   3.746  14.467 -0.6005 -0.6115 -0.0291
   31DOPE  H13X 3982   4.730   3.838  14.513 -0.3996 -1.6874  2.0955
   31DOPE  H13Y 3983   4.589   3.759  14.421 -0.3790 -0.4286 -0.4623
   31DOPE  C314 3984   4.682   3.634  14.572  0.1124  0.6749 -0.7386
   31DOPE  H14X 3985   4.779   3.633  14.627 -1.0084 -0.5776  1.3451
   31DOPE  H14Y 3986   4.681   3.541  14.512  0.9828  1.8858 -2.7380
   31DOPE  C315 3987   4.570   3.640  14.677  0.8287 -1.5239  0.3662
   31DOPE  H15X 3988   4.561   3.536  14.713 -0.4512 -1.3514  0.5940
   31DOPE  H15Y 3989   4.471   3.658  14.629  0.8729  0.0487  0.7944
   31DOPE  C316 3990   4.592   3.748  14.791 -0.5658 -0.1022 -0.2042
   31DOPE  H16X 3991   4.613   3.850  14.752  0.4213  0.0397  0.6661
   31DOPE  H16Y 3992   4.685   3.731  14.848 -0.7317 -0.4084 -0.0162
   31DOPE  C317 3993   4.482   3.752  14.896  0.8172  0.0154  0.1504
   31DOPE  H17X 3994   4.385   3.793  14.860  0.9441  0.6899  0.5523
   31DOPE  H17Y 3995   4.472   3.647  14.931  1.6548 -0.0344  0.2514
   31DOPE  C318 3996   4.523   3.834  15.024 -0.1220 -0.5461 -0.1240
   31DOPE  H18X 3997   4.563   3.933  14.994 -0.1216  0.1206  1.8877
   31DOPE  H18Y 3998   4.438   3.852  15.093  0.0183  0.0473 -0.1012
   31DOPE  H18Z 3999   4.602   3.790  15.088  0.0097  0.1902  0.2345
   32DOPE     N 4000   0.509   5.028  12.517 -0.3277 -0.2802 -0.2430
   32DOPE   HN1 4001   0.459   5.007  12.428 -0.7632  4.6676 -1.4624
   32DOPE   HN2 4002   0.449   5.064  12.594  1.4963  1.9142  0.2583
   32DOPE   HN3 4003   0.557   5.114  12.484 -0.8107  0.8820  1.9706
   32DOPE   C12 4004   0.601   4.920  12.570  0.0624  0.1855  0.6518
   32DOPE  H12A 4005   0.637   4.964  12.666  1.1103  1.4728 -0.2893
   32DOPE  H12B 4006   0.697   4.911  12.513  0.1040 -0.3981  0.8026
   32DOPE   C11 4007   0.536   4.787  12.582  0.2260 -0.2012 -0.2670
   32DOPE  H11A 4008   0.613   4.712  12.612  2.0075  1.6765  0.0376
   32DOPE  H11B 4009   0.485   4.747  12.491 -0.2343  1.0513 -0.5739
   32DOPE     P 4010   0.447   4.742  12.827 -0.3455  0.1222  0.3338
   32DOPE   O13 4011   0.586   4.691  12.840  0.1724 -0.3981 -0.1153
   32DOPE   O14 4012   0.337   4.645  12.855  0.3945  0.4460  0.1332
   32DOPE   O11 4013   0.420   4.866  12.919  0.3416 -0.3789 -0.0048
   32DOPE   O12 4014   0.432   4.800  12.682 -0.3610 -0.2806 -0.4994
   32DOPE    C1 4015   0.517   4.968  12.931 -0.8026 -1.0148 -0.3336
   32DOPE    HA 4016   0.518   5.027  12.837 -2.2982 -0.8660 -0.2755
   32DOPE    HB 4017   0.619   4.923  12.934 -0.1685  0.2697 -1.5832
   32DOPE    C2 4018   0.501   5.053  13.058 -0.3755  0.3076  0.5195
   32DOPE    HS 4019   0.593   5.114  13.067 -0.7181  0.5855  2.4526
   32DOPE   O21 4020   0.484   4.960  13.165 -0.9333 -0.2515  0.6131
   32DOPE   C21 4021   0.600   4.909  13.207 -0.1152 -0.2990 -0.4343
   32DOPE   O22 4022   0.716   4.946  13.176  0.0908  0.1207 -0.2405
   32DOPE   C22 4023   0.571   4.785  13.281  0.0428  0.2378  0.1562
   32DOPE   H2R 4024   0.656   4.757  13.346 -0.2631  0.2400  0.5589
   32DOPE   H2S 4025   0.556   4.706  13.205  0.5592  0.0877  0.2122
   32DOPE    C3 4026   0.381   5.150  13.052  0.3225  0.9061 -0.2830
   32DOPE    HX 4027   0.289   5.092  13.025  1.1202 -0.6660  0.2798
   32DOPE    HY 4028   0.394   5.229  12.976 -1.0185  1.3790 -0.0534
   32DOPE   O31 4029   0.367   5.220  13.176  0.2762  1.0167 -0.5266
   32DOPE   C31 4030   0.282   5.164  13.264 -0.0852 -0.2788 -0.8745
   32DOPE   O32 4031   0.204   5.077  13.241 -0.1545  0.5008 -0.0786
   32DOPE   C32 4032   0.302   5.218  13.400 -0.6106  0.4066 -0.4751
   32DOPE   H2X 4033   0.402   5.191  13.440 -0.3709  3.0106  0.9307
   32DOPE   H2Y 4034   0.284   5.328  13.394 -0.4773  0.4803  0.3215
   32DOPE   C23 4035   0.436   4.784  13.355  0.0138 -0.1641 -0.7115
   32DOPE   H3R 4036   0.404   4.680  13.376  0.0133 -0.4469 -2.0265
   32DOPE   H3S 4037   0.358   4.824  13.286 -0.5534  1.9669  1.0413
   32DOPE   C24 4038   0.436   4.855  13.490 -0.2635 -0.3141 -0.2043
   32DOPE   H4R 4039   0.342   4.822  13.540  1.4119 -0.0403  3.4631
   32DOPE   H4S 4040   0.427   4.963  13.468  0.5332 -0.0743  0.6088
   32DOPE   C25 4041   0.559   4.813  13.583  0.1813 -0.2150  0.3041
   32DOPE   H5R 4042   0.657   4.830  13.534 -0.6609 -2.2961 -2.3455
   32DOPE   H5S 4043   0.562   4.702  13.596 -2.5705 -0.6502 -1.8485
   32DOPE   C26 4044   0.547   4.886  13.723  0.9022  0.5737  0.7840
   32DOPE   H6R 4045   0.476   4.826  13.784 -1.2290  0.6899 -1.4237
   32DOPE   H6S 4046   0.499   4.981  13.693  1.0834  0.0468 -1.4149
   32DOPE   C27 4047   0.680   4.899  13.798  0.0923  0.7063 -0.3991
   32DOPE   H7R 4048   0.748   4.967  13.742 -1.7257  3.1896  0.2158
   32DOPE   H7S 4049   0.720   4.796  13.790  2.0564  1.1919  2.1441
   32DOPE   C28 4050   0.665   4.950  13.945 -0.3101 -0.1845  0.4769
   32DOPE   H8R 4051   0.596   4.884  14.001 -2.2634  0.1424 -1.4042
   32DOPE   H8S 4052   0.612   5.046  13.924 -1.6075 -1.1837 -1.1126
   32DOPE   C29 4053   0.801   4.967  14.009 -0.0098  0.2860 -0.5488
   32DOPE   H9R 4054   0.882   5.005  13.946 -0.5288  0.5068 -1.0913
   32DOPE  C210 4055   0.831   4.953  14.141  0.0494 -0.9967  0.5500
   32DOPE  H10R 4056   0.935   4.975  14.168  0.1166 -0.4670 -0.1201
   32DOPE  C211 4057   0.726   4.931  14.247 -0.6382  0.1722  0.7043
   32DOPE  H11R 4058   0.752   4.839  14.303  2.1833  1.7550  2.2181
   32DOPE  H11S 4059   0.620   4.921  14.214 -1.3152 -0.7419  2.9525
   32DOPE  C212 4060   0.738   5.047  14.349 -0.1940 -0.1171  0.1649
   32DOPE  H12R 4061   0.690   5.143  14.318 -0.0826  0.7520  2.4965
   32DOPE  H12S 4062   0.847   5.060  14.369  0.2784  0.6639 -2.4948
   32DOPE  C213 4063   0.687   5.012  14.489 -0.7477  0.4910 -0.2250
   32DOPE  H13R 4064   0.699   5.097  14.560 -0.5257 -1.3123  2.0103
   32DOPE  H13S 4065   0.723   4.918  14.536 -2.7470 -0.0663  0.3207
   32DOPE  C214 4066   0.530   4.994  14.484 -0.9258 -0.3104 -0.1491
   32DOPE  H14R 4067   0.503   4.920  14.405  0.8474 -2.0332  0.7792
   32DOPE  H14S 4068   0.475   5.088  14.467 -0.4573 -0.0230 -0.0965
   32DOPE  C215 4069   0.470   4.964  14.629  0.4167  0.5094  0.1908
   32DOPE  H15R 4070   0.522   5.037  14.696  1.2466  0.9964 -0.9552
   32DOPE  H15S 4071   0.501   4.861  14.657 -1.1293 -0.3760 -1.2233
   32DOPE  C216 4072   0.326   4.980  14.631 -0.1277  0.3126  0.2430
   32DOPE  H16R 4073   0.278   4.914  14.555  0.9279  1.0599 -1.1203
   32DOPE  H16S 4074   0.297   5.087  14.618  2.1095  1.0587  0.9705
   32DOPE  C217 4075   0.268   4.934  14.762  0.1045 -0.0753 -0.9813
   32DOPE  H17R 4076   0.321   4.985  14.845 -1.1217 -0.6996  0.2297
   32DOPE  H17S 4077   0.288   4.827  14.783 -0.9643 -0.0922  0.0612
   32DOPE  C218 4078   0.118   4.966  14.771  0.7371  0.5073  0.4502
   32DOPE  H18R 4079   0.068   4.906  14.692 -0.6111  1.4880  0.5256
   32DOPE  H18S 4080   0.101   5.071  14.740  0.7372 -0.2741 -2.5266
   32DOPE  H18T 4081   0.075   4.936  14.869 -3.6620  2.3761 -0.6691
   32DOPE   C33 4082   0.188   5.164  13.501  0.1209  0.1428 -0.1363
   32DOPE   H3X 4083   0.171   5.055  13.490 -0.8011 -0.4728  4.8486
   32DOPE   H3Y 4084   0.092   5.214  13.476  0.7279  1.0638 -0.6736
   32DOPE   C34 4085   0.230   5.185  13.648  0.2451 -0.4212  0.0591
   32DOPE   H4X 4086   0.323   5.135  13.682  0.4784  0.2513  0.4105
   32DOPE   H4Y 4087   0.250   5.293  13.662  2.5797 -0.8656  0.6345
   32DOPE   C35 4088   0.115   5.141  13.744  0.4954 -0.1113  0.4493
   32DOPE   H5X 4089   0.091   5.033  13.730 -1.8600  0.4056  0.0791
   32DOPE   H5Y 4090   0.024   5.201  13.722  0.1827 -1.4859 -2.4949
   32DOPE   C36 4091   0.159   5.176  13.887 -0.1878  0.4879  0.2951
   32DOPE   H6X 4092   0.065   5.183  13.946  0.4418  0.0591  1.3830
   32DOPE   H6Y 4093   0.206   5.277  13.883 -0.3780  0.5873  0.5189
   32DOPE   C37 4094   0.258   5.070  13.943  0.1003  0.5546  0.1041
   32DOPE   H7X 4095   0.219   4.974  13.903  0.5966 -0.1492  1.2395
   32DOPE   H7Y 4096   0.360   5.068  13.899  0.2182 -1.1633  0.3814
   32DOPE   C38 4097   0.272   5.055  14.099 -0.2808  0.5393 -0.7582
   32DOPE   H8X 4098   0.327   4.964  14.131 -2.0420 -0.2772  0.1275
   32DOPE   H8Y 4099   0.172   5.050  14.147 -0.9421 -2.4842 -2.2549
   32DOPE   C39 4100   0.363   5.160  14.148  0.1853 -0.1701  0.3451
   32DOPE   H9X 4101   0.461   5.166  14.098  0.8338 -0.4465  1.5636
   32DOPE  C310 4102   0.329   5.270  14.220  0.7117  0.4227 -0.0760
   32DOPE  H10X 4103   0.412   5.336  14.249  1.1936  0.7822 -2.1623
   32DOPE  C311 4104   0.193   5.308  14.279 -0.4729  0.0740  0.0177
   32DOPE  H11X 4105   0.157   5.390  14.214 -1.3093 -0.9310 -0.8317
   32DOPE  H11Y 4106   0.113   5.230  14.282 -0.0372 -0.4030 -0.4922
   32DOPE  C312 4107   0.214   5.363  14.423 -0.0203 -0.0773  0.0188
   32DOPE  H12X 4108   0.277   5.454  14.411 -0.9621  0.3268 -2.4296
   32DOPE  H12Y 4109   0.257   5.281  14.484  0.3186  0.0462 -0.0482
   32DOPE  C313 4110   0.079   5.387  14.485  0.2836 -0.0969 -0.0029
   32DOPE  H13X 4111   0.015   5.439  14.410  2.4355  0.6866 -1.3597
   32DOPE  H13Y 4112   0.029   5.289  14.505  0.5695 -0.0900  0.7502
   32DOPE  C314 4113   0.090   5.448  14.626  0.0796 -0.2906 -0.4663
   32DOPE  H14X 4114   0.173   5.397  14.678  0.8178  0.2264 -1.1038
   32DOPE  H14Y 4115   0.002   5.430  14.691  0.8227  2.3156  1.4458
   32DOPE  C315 4116   0.116   5.596  14.625  0.2800  0.1857 -0.1688
   32DOPE  H15X 4117   0.039   5.646  14.563  0.0318  1.9074  1.4213
   32DOPE  H15Y 4118   0.214   5.618  14.576 -0.6323  0.6042 -1.8591
   32DOPE  C316 4119   0.086   5.646  14.766 -0.2017  0.1287  0.4802
   32DOPE  H16X 4120   0.000   5.588  14.803 -1.2652 -0.1950 -2.2489
   32DOPE  H16Y 4121   0.071   5.756  14.769  1.5746  0.5796 -2.3249
   32DOPE  C317 4122   0.193   5.617  14.875 -0.3357 -0.1884  0.4464
   32DOPE  H17X 4123   0.216   5.509  14.889  0.6226 -0.0304  0.1387
   32DOPE  H17Y 4124   0.291   5.647  14.833 -0.6765 -0.3795 -0.4959
   32DOPE  C318 4125   0.168   5.675  15.013 -0.0538 -0.2271 -0.4150
   32DOPE  H18X 4126   0.123   5.776  15.008 -0.9125 -0.6508 -1.7094
   32DOPE  H18Y 4127   0.100   5.610  15.071 -0.7365  0.9657  0.1646
   32DOPE  H18Z 4128   0.262   5.685  15.072 -0.0525 -0.2455 -0.4142
   33DOPE     N 4129   5.048   2.977  12.233  0.1188  0.2875 -0.1632
   33DOPE   HN1 4130   4.992   3.023  12.307  1.8836 -0.2093  1.5829
   33DOPE   HN2 4131   5.059   3.037  12.149  1.7381 -1.6368 -1.4301
   33DOPE   HN3 4132   5.008   2.883  12.217  0.1955  0.3994 -1.0715
   33DOPE   C12 4133   5.183   2.951  12.286 -0.0100 -0.3907 -0.2201
   33DOPE  H12A 4134   5.238   3.045  12.306 -0.5072  0.6361 -3.1607
   33DOPE  H12B 4135   5.238   2.911  12.197 -0.5622  1.2361 -1.3301
   33DOPE   C11 4136   5.172   2.858  12.400  0.8033  0.2353  0.2847
   33DOPE  H11A 4137   5.132   2.920  12.483  0.0086 -1.4490  1.2138
   33DOPE  H11B 4138   5.270   2.816  12.431 -0.0278 -0.1705  2.5310
   33DOPE     P 4139   5.113   2.595  12.419 -0.3702 -0.0940 -0.0564
   33DOPE   O13 4140   5.230   2.545  12.343 -0.3334 -0.5087  0.2268
   33DOPE   O14 4141   4.987   2.523  12.426  0.6258  0.2034 -0.1469
   33DOPE   O11 4142   5.164   2.606  12.562 -0.1309 -0.5999  0.3639
   33DOPE   O12 4143   5.085   2.749  12.376  0.2789  0.1619 -0.0435
   33DOPE    C1 4144   5.083   2.675  12.658 -0.6961  0.2801  0.1199
   33DOPE    HA 4145   5.011   2.599  12.695 -0.6087 -0.4974 -1.2395
   33DOPE    HB 4146   5.020   2.756  12.616  2.1591  2.5752 -0.0203
   33DOPE    C2 4147   5.168   2.734  12.780  0.0039 -0.6049  0.0542
   33DOPE    HS 4148   5.250   2.793  12.733  0.2228  0.3086  1.5111
   33DOPE   O21 4149   5.207   2.623  12.860  0.0805 -0.1056 -0.4344
   33DOPE   C21 4150   5.323   2.565  12.817  1.0913 -0.1815  1.2940
   33DOPE   O22 4151   5.392   2.607  12.726 -0.2405 -0.6145 -0.6647
   33DOPE   C22 4152   5.350   2.438  12.896 -0.1160  0.2087  0.0244
   33DOPE   H2R 4153   5.445   2.396  12.857  0.3379  0.2020  1.0892
   33DOPE   H2S 4154   5.272   2.365  12.867  0.9716 -1.4456  1.1143
   33DOPE    C3 4155   5.089   2.833  12.867 -0.0239  0.3252  0.2193
   33DOPE    HX 4156   5.012   2.772  12.919 -1.0603 -0.6018 -2.2386
   33DOPE    HY 4157   5.035   2.905  12.802 -0.5859  0.6745  1.0645
   33DOPE   O31 4158   5.178   2.906  12.956 -0.1753 -0.0145 -0.2376
   33DOPE   C31 4159   5.119   2.996  13.029  0.2386  0.0102  0.3814
   33DOPE   O32 4160   5.008   3.049  13.010 -0.3075 -0.1202  0.2074
   33DOPE   C32 4161   5.215   3.046  13.134 -0.1946  0.0446 -0.5229
   33DOPE   H2X 4162   5.298   2.975  13.153  0.7531  1.0576 -0.7824
   33DOPE   H2Y 4163   5.255   3.146  13.106 -1.1558  0.6300  0.1075
   33DOPE   C23 4164   5.352   2.455  13.048 -0.1783 -0.5920  0.1470
   33DOPE   H3R 4165   5.364   2.354  13.094  1.8918 -0.2996  0.3747
   33DOPE   H3S 4166   5.267   2.513  13.087  0.5154 -0.4405  1.4718
   33DOPE   C24 4167   5.481   2.543  13.085  0.9267  0.2568 -0.3150
   33DOPE   H4R 4168   5.494   2.632  13.020  2.1849  3.0258  3.3120
   33DOPE   H4S 4169   5.569   2.476  13.076  1.0200  0.1599  1.0543
   33DOPE   C25 4170   5.471   2.612  13.223  0.5299 -0.1482  0.2443
   33DOPE   H5R 4171   5.382   2.679  13.219  1.9117  1.8586  1.2477
   33DOPE   H5S 4172   5.560   2.679  13.218  0.0275  0.4527 -1.2305
   33DOPE   C26 4173   5.473   2.514  13.343 -0.1184 -0.5709 -0.1575
   33DOPE   H6R 4174   5.567   2.456  13.340  0.5534  0.4762  0.2795
   33DOPE   H6S 4175   5.381   2.453  13.329 -0.4207 -0.0862 -0.3522
   33DOPE   C27 4176   5.469   2.594  13.479 -0.4818 -0.7315 -0.3354
   33DOPE   H7R 4177   5.390   2.672  13.474  0.3693  0.2850  1.3252
   33DOPE   H7S 4178   5.560   2.657  13.477 -0.0850 -1.3030 -1.3579
   33DOPE   C28 4179   5.459   2.501  13.600 -0.4376  0.1908  0.6628
   33DOPE   H8R 4180   5.466   2.556  13.696 -3.2390 -1.7075  2.0892
   33DOPE   H8S 4181   5.543   2.429  13.594  0.5134  1.3672 -2.4498
   33DOPE   C29 4182   5.326   2.427  13.599 -0.1363 -0.1734  0.0152
   33DOPE   H9R 4183   5.309   2.378  13.502 -1.1266 -1.1264  0.6410
   33DOPE  C210 4184   5.239   2.404  13.704 -0.3319 -0.1214  0.6116
   33DOPE  H10R 4185   5.141   2.362  13.677 -0.2270 -0.8282  1.2781
   33DOPE  C211 4186   5.235   2.459  13.840 -0.0197  0.4309  0.4093
   33DOPE  H11R 4187   5.152   2.533  13.847  0.9565  1.4509  1.9500
   33DOPE  H11S 4188   5.328   2.510  13.873  0.6902 -0.0044 -0.8531
   33DOPE  C212 4189   5.200   2.355  13.938 -0.1140  0.2021  0.7159
   33DOPE  H12R 4190   5.282   2.282  13.927 -0.7993 -0.4920  0.1622
   33DOPE  H12S 4191   5.109   2.297  13.911  0.1830 -0.0855  0.3437
   33DOPE  C213 4192   5.197   2.406  14.076  0.2252 -0.2914  0.5064
   33DOPE  H13R 4193   5.118   2.484  14.076  0.3330 -0.1777  0.0104
   33DOPE  H13S 4194   5.293   2.451  14.107 -0.2817  0.2143  1.3753
   33DOPE  C214 4195   5.169   2.293  14.178 -0.2124 -1.4982  0.4097
   33DOPE  H14R 4196   5.063   2.260  14.171 -0.7372 -0.0245  0.9134
   33DOPE  H14S 4197   5.185   2.334  14.280 -0.9418  0.4359 -0.1982
   33DOPE  C215 4198   5.256   2.164  14.156 -0.7983 -0.0254  0.1012
   33DOPE  H15R 4199   5.360   2.203  14.149 -1.2199  1.0304 -0.5944
   33DOPE  H15S 4200   5.231   2.114  14.060 -0.6210  0.3968 -0.1680
   33DOPE  C216 4201   5.249   2.051  14.266 -0.6652 -0.0449  0.5235
   33DOPE  H16R 4202   5.298   1.961  14.222  1.5010  1.6206 -0.6869
   33DOPE  H16S 4203   5.140   2.041  14.283 -0.6492 -0.6408  0.2986
   33DOPE  C217 4204   5.328   2.099  14.383  0.1735  0.3172  0.7839
   33DOPE  H17R 4205   5.287   2.196  14.418 -0.3372 -0.8927  3.9296
   33DOPE  H17S 4206   5.429   2.116  14.341 -0.8148  0.8571 -1.5573
   33DOPE  C218 4207   5.324   2.012  14.505 -0.4138  0.3984 -0.3331
   33DOPE  H18R 4208   5.375   1.914  14.490 -1.7758 -0.4650  0.4828
   33DOPE  H18S 4209   5.215   2.002  14.525 -0.3462 -0.2329 -0.2630
   33DOPE  H18T 4210   5.386   2.065  14.580 -0.5458 -2.9190  2.3865
   33DOPE   C33 4211   5.154   3.056  13.280  0.5370 -0.4927  0.5538
   33DOPE   H3X 4212   5.058   3.112  13.272  0.8023 -0.2633 -1.7353
   33DOPE   H3Y 4213   5.227   3.117  13.337  1.7746 -0.3398 -1.1282
   33DOPE   C34 4214   5.125   2.917  13.330  0.4982 -0.0802 -0.1814
   33DOPE   H4X 4215   5.096   2.841  13.254  0.6063  1.5836 -1.9579
   33DOPE   H4Y 4216   5.221   2.876  13.369  1.6439  2.9635  0.4754
   33DOPE   C35 4217   5.030   2.941  13.450 -0.1699  0.2020  0.1511
   33DOPE   H5X 4218   4.978   2.848  13.480  1.8669 -0.6432  1.2201
   33DOPE   H5Y 4219   4.946   3.001  13.409 -0.5306 -0.1130  0.4292
   33DOPE   C36 4220   5.105   2.995  13.577 -0.7623  0.2232 -0.7077
   33DOPE   H6X 4221   5.168   3.084  13.557 -0.0442  0.3122  1.5866
   33DOPE   H6Y 4222   5.183   2.924  13.611 -0.6914  1.2823  1.5759
   33DOPE   C37 4223   5.019   3.007  13.705 -0.1896 -0.3908 -0.4307
   33DOPE   H7X 4224   5.093   3.033  13.785  0.6262 -1.3430 -0.8538
   33DOPE   H7Y 4225   4.954   3.096  13.692 -0.5038 -0.4722  0.4541
   33DOPE   C38 4226   4.943   2.881  13.755  0.1559  1.1281 -0.0940
   33DOPE   H8X 4227   5.016   2.799  13.774 -1.1864 -0.1406 -0.2950
   33DOPE   H8Y 4228   4.875   2.854  13.672  0.0835 -2.7406  1.0420
   33DOPE   C39 4229   4.855   2.920  13.869 -0.1847 -0.1621  0.1575
   33DOPE   H9X 4230   4.791   3.008  13.851 -2.5613 -1.5349  1.3867
   33DOPE  C310 4231   4.846   2.851  13.985  0.2742  0.1866 -0.2230
   33DOPE  H10X 4232   4.770   2.883  14.058 -0.4166 -1.1436 -0.3272
   33DOPE  C311 4233   4.921   2.727  14.026  0.1195 -0.0648  0.3501
   33DOPE  H11X 4234   4.893   2.632  13.975  3.0728 -1.4360  1.0437
   33DOPE  H11Y 4235   5.023   2.736  13.984 -1.1068 -0.9579 -3.1791
   33DOPE  C312 4236   4.913   2.690  14.172  0.3201  0.2683  0.0172
   33DOPE  H12X 4237   4.974   2.598  14.182  2.7202  1.9486  1.7968
   33DOPE  H12Y 4238   4.806   2.668  14.195  0.2498 -0.8606 -1.3013
   33DOPE  C313 4239   4.972   2.796  14.272  0.2564  0.3857  1.1458
   33DOPE  H13X 4240   4.910   2.888  14.269  1.7729  1.4583  1.6663
   33DOPE  H13Y 4241   4.973   2.750  14.373  3.3713 -1.4957  0.4093
   33DOPE  C314 4242   5.125   2.828  14.235  0.4097  0.2818 -0.1270
   33DOPE  H14X 4243   5.133   2.879  14.136  2.1373 -1.1446 -0.7825
   33DOPE  H14Y 4244   5.170   2.728  14.216  2.7224  1.4493 -1.3060
   33DOPE  C315 4245   5.204   2.903  14.346  0.1042 -0.5666 -0.1851
   33DOPE  H15X 4246   5.160   3.004  14.363  0.7758 -0.3455  0.2623
   33DOPE  H15Y 4247   5.306   2.932  14.314  0.4763 -1.3560  0.2598
   33DOPE  C316 4248   5.212   2.835  14.484 -0.6386  0.1646  0.3135
   33DOPE  H16X 4249   5.295   2.763  14.472  0.2385  1.4084 -1.4793
   33DOPE  H16Y 4250   5.125   2.768  14.502 -0.4308 -0.4170 -0.7170
   33DOPE  C317 4251   5.245   2.931  14.599  0.4566  0.8615  0.3236
   33DOPE  H17X 4252   5.329   2.995  14.564  0.1574 -0.1397 -2.4242
   33DOPE  H17Y 4253   5.161   3.004  14.605 -0.2780  0.1769 -1.1485
   33DOPE  C318 4254   5.280   2.858  14.733 -0.1309  0.1015 -0.2617
   33DOPE  H18X 4255   5.198   2.801  14.781  0.2890  0.5643  1.0653
   33DOPE  H18Y 4256   5.364   2.789  14.712  0.3028  0.9260 -1.3185
   33DOPE  H18Z 4257   5.313   2.935  14.807  0.8998  0.3987 -1.0117
   34DOPE     N 4258   3.947   4.962  12.934 -0.7460 -0.1734  0.4584
   34DOPE   HN1 4259   3.912   5.002  12.845  0.8863 -0.1202 -0.2039
   34DOPE   HN2 4260   3.919   4.862  12.942  0.0271 -0.7334 -2.6819
   34DOPE   HN3 4261   3.911   5.007  13.021 -0.5669  0.9656 -0.0442
   34DOPE   C12 4262   4.100   4.960  12.932 -0.1088  0.1404  0.2558
   34DOPE  H12A 4263   4.129   5.058  12.976 -1.8992  0.7403  0.1758
   34DOPE  H12B 4264   4.125   4.944  12.825 -0.4530 -1.5483  0.3950
   34DOPE   C11 4265   4.150   4.843  13.018  0.3305  0.4923  0.5966
   34DOPE  H11A 4266   4.106   4.863  13.117  0.9172  1.5966  0.6502
   34DOPE  H11B 4267   4.259   4.853  13.037  0.9472 -1.8080 -1.2277
   34DOPE     P 4268   3.976   4.641  13.003 -0.3640  0.0768 -0.5393
   34DOPE   O13 4269   3.994   4.496  12.993 -0.6704  0.5807  0.1554
   34DOPE   O14 4270   3.875   4.710  12.921  0.7199 -1.0343  0.2917
   34DOPE   O11 4271   3.946   4.675  13.156  0.6829 -0.0503  0.6091
   34DOPE   O12 4272   4.114   4.715  12.969 -0.0844  0.6356  0.3316
   34DOPE    C1 4273   4.055   4.648  13.251  0.7625  0.0120  0.1110
   34DOPE    HA 4274   4.080   4.737  13.313 -1.4664  0.1977  0.8194
   34DOPE    HB 4275   4.151   4.612  13.209 -0.0965 -2.2527 -0.0473
   34DOPE    C2 4276   4.018   4.532  13.346 -0.1624  0.8194 -0.7293
   34DOPE    HS 4277   4.025   4.438  13.286  1.0045 -0.4200  1.2007
   34DOPE   O21 4278   3.887   4.551  13.398  0.4542 -0.1352 -0.7939
   34DOPE   C21 4279   3.818   4.444  13.432  0.7595  0.2300  0.4927
   34DOPE   O22 4280   3.861   4.327  13.440 -0.0815  0.0166 -0.0274
   34DOPE   C22 4281   3.679   4.495  13.481 -0.0869 -0.2901 -0.3128
   34DOPE   H2R 4282   3.613   4.479  13.392  0.2051 -0.1869 -0.5466
   34DOPE   H2S 4283   3.692   4.600  13.513  4.0291 -1.1005  1.2644
   34DOPE    C3 4284   4.115   4.513  13.462 -0.3558 -0.3477 -0.0779
   34DOPE    HX 4285   4.217   4.513  13.417  0.1398  1.8790  0.9573
   34DOPE    HY 4286   4.095   4.413  13.507  3.0289 -1.5900 -1.0452
   34DOPE   O31 4287   4.109   4.615  13.567  0.1920  0.4956 -0.9044
   34DOPE   C31 4288   4.153   4.579  13.686  0.6173 -0.1081 -0.3904
   34DOPE   O32 4289   4.195   4.467  13.717 -0.3895  0.4810  0.4488
   34DOPE   C32 4290   4.136   4.702  13.782 -0.2265 -0.1124  0.8064
   34DOPE   H2X 4291   4.183   4.794  13.742  1.4436 -1.9256 -1.6416
   34DOPE   H2Y 4292   4.027   4.721  13.792  0.1840  2.7859  0.5695
   34DOPE   C23 4293   3.610   4.405  13.593  0.1243 -0.3181  0.7358
   34DOPE   H3R 4294   3.598   4.307  13.542 -2.7111  0.2931  0.0867
   34DOPE   H3S 4295   3.512   4.452  13.616 -0.5023 -1.6045  0.7623
   34DOPE   C24 4296   3.699   4.401  13.723  0.4361  0.3194 -0.0953
   34DOPE   H4R 4297   3.749   4.500  13.728 -2.0745  1.6736 -0.2154
   34DOPE   H4S 4298   3.784   4.331  13.712  1.1443  0.9336  1.2242
   34DOPE   C25 4299   3.634   4.391  13.868 -0.3175 -0.6393  0.0485
   34DOPE   H5R 4300   3.595   4.288  13.881 -1.0245 -0.2375  1.2223
   34DOPE   H5S 4301   3.537   4.443  13.864 -1.0118 -1.9621 -1.2120
   34DOPE   C26 4302   3.728   4.435  13.982  0.1418 -0.8662 -0.0049
   34DOPE   H6R 4303   3.734   4.546  13.987  2.1497 -0.9712  1.7859
   34DOPE   H6S 4304   3.833   4.407  13.959  0.1042  0.8348 -2.6772
   34DOPE   C27 4305   3.691   4.384  14.121  0.7838  0.1823  0.6917
   34DOPE   H7R 4306   3.631   4.291  14.119  0.0479  0.6489  0.8203
   34DOPE   H7S 4307   3.626   4.460  14.170  0.8145  0.8108 -0.2281
   34DOPE   C28 4308   3.810   4.372  14.216  0.0867 -1.0355 -0.4458
   34DOPE   H8R 4309   3.897   4.311  14.182  1.0850  0.2560 -0.2611
   34DOPE   H8S 4310   3.773   4.319  14.306  1.2337  0.4162  0.9292
   34DOPE   C29 4311   3.867   4.512  14.247  0.4923  0.6517  0.0605
   34DOPE   H9R 4312   3.855   4.573  14.156 -0.1556 -0.9214 -0.9541
   34DOPE  C210 4313   3.908   4.559  14.366  0.2171  0.4851  0.1016
   34DOPE  H10R 4314   3.932   4.666  14.370 -0.1830  0.6068 -0.5486
   34DOPE  C211 4315   3.917   4.481  14.487 -0.0224  0.4759  0.6233
   34DOPE  H11R 4316   3.821   4.427  14.500  0.1383 -0.6637 -2.2581
   34DOPE  H11S 4317   3.940   4.557  14.565  1.6241  2.3438 -1.5501
   34DOPE  C212 4318   4.032   4.371  14.473 -0.4189  0.4611  0.1266
   34DOPE  H12R 4319   4.128   4.408  14.429 -0.1910 -0.5559 -0.2758
   34DOPE  H12S 4320   4.000   4.291  14.402 -0.6016  0.8742 -0.2641
   34DOPE  C213 4321   4.075   4.315  14.607  0.3646  0.0460 -0.1955
   34DOPE  H13R 4322   4.090   4.402  14.674  1.4747 -2.0349  2.4458
   34DOPE  H13S 4323   4.170   4.259  14.594 -0.4789 -1.1081 -1.8547
   34DOPE  C214 4324   3.975   4.215  14.673  0.3259  0.2521  0.3891
   34DOPE  H14R 4325   3.964   4.126  14.607  1.1093  0.0102  0.5786
   34DOPE  H14S 4326   3.873   4.259  14.678  1.6504  3.8488 -0.9742
   34DOPE  C215 4327   4.023   4.157  14.805 -0.0977 -0.2294  0.0101
   34DOPE  H15R 4328   4.098   4.084  14.768 -1.1978 -1.8751  0.8837
   34DOPE  H15S 4329   3.943   4.095  14.850  0.2284 -0.9581 -0.3953
   34DOPE  C216 4330   4.072   4.247  14.916  0.2488  0.6051  0.1804
   34DOPE  H16R 4331   3.977   4.286  14.958 -0.7106  1.0386 -2.2300
   34DOPE  H16S 4332   4.145   4.326  14.889  2.3587 -0.6183  1.8980
   34DOPE  C217 4333   4.141   4.147  15.013  0.1101  0.8129  0.6481
   34DOPE  H17R 4334   4.209   4.082  14.955 -0.5146 -0.0298  0.8504
   34DOPE  H17S 4335   4.055   4.083  15.040  0.3960 -0.4848 -1.3853
   34DOPE  C218 4336   4.220   4.203  15.134 -0.4822 -0.2853  0.5135
   34DOPE  H18R 4337   4.302   4.268  15.099 -1.7242  1.1384  0.1260
   34DOPE  H18S 4338   4.256   4.118  15.196 -0.4429  0.4808  1.5567
   34DOPE  H18T 4339   4.157   4.264  15.203 -1.8385 -0.5458 -0.4399
   34DOPE   C33 4340   4.220   4.681  13.912  0.2973 -0.2038 -0.2000
   34DOPE   H3X 4341   4.239   4.782  13.953 -1.3317  0.3935 -0.8410
   34DOPE   H3Y 4342   4.323   4.641  13.902  0.3229  0.2809 -2.4277
   34DOPE   C34 4343   4.132   4.616  14.018 -0.3365  0.0992 -0.7973
   34DOPE   H4X 4344   4.056   4.679  14.069 -0.1573 -0.5150  0.2556
   34DOPE   H4Y 4345   4.077   4.535  13.965 -0.8365  0.7021 -1.2096
   34DOPE   C35 4346   4.221   4.562  14.132 -0.2921  0.5761 -0.1610
   34DOPE   H5X 4347   4.298   4.495  14.090 -2.0878 -1.5968 -0.1689
   34DOPE   H5Y 4348   4.174   4.488  14.199  1.5487 -1.1687 -0.7049
   34DOPE   C36 4349   4.263   4.673  14.227 -0.8904  0.4149  0.0965
   34DOPE   H6X 4350   4.176   4.722  14.277  0.4543  2.2250  0.8022
   34DOPE   H6Y 4351   4.315   4.752  14.170  0.1430 -0.4005 -0.1187
   34DOPE   C37 4352   4.364   4.619  14.323 -0.4207 -0.2156 -0.0929
   34DOPE   H7X 4353   4.327   4.528  14.374 -1.3773  0.7341  0.9722
   34DOPE   H7Y 4354   4.445   4.578  14.259 -1.6522 -1.7190 -0.7394
   34DOPE   C38 4355   4.420   4.727  14.413  0.1440  0.4309  0.2448
   34DOPE   H8X 4356   4.442   4.814  14.347  0.2091  0.2279  0.0004
   34DOPE   H8Y 4357   4.519   4.700  14.454 -0.4029  1.8326  2.6984
   34DOPE   C39 4358   4.318   4.776  14.511  0.0436 -0.4489 -0.0189
   34DOPE   H9X 4359   4.236   4.836  14.470  0.6702  0.6293  0.2575
   34DOPE  C310 4360   4.319   4.746  14.637 -0.1043  0.2808  0.4481
   34DOPE  H10X 4361   4.241   4.786  14.704  0.4031  1.7127  0.1979
   34DOPE  C311 4362   4.424   4.660  14.709  0.2220  0.0222 -0.3494
   34DOPE  H11X 4363   4.452   4.577  14.641 -0.8915 -0.0185 -0.7673
   34DOPE  H11Y 4364   4.519   4.717  14.725  0.7477 -0.4140 -1.8107
   34DOPE  C312 4365   4.387   4.592  14.850  0.3791  0.0378 -0.0430
   34DOPE  H12X 4366   4.346   4.490  14.832  1.0999  0.1598 -2.7205
   34DOPE  H12Y 4367   4.311   4.659  14.895  0.8797  1.1149 -0.7552
   34DOPE  C313 4368   4.511   4.572  14.937 -0.3933  0.6252  0.0829
   34DOPE  H13X 4369   4.566   4.481  14.905 -1.8786  0.1745 -1.3554
   34DOPE  H13Y 4370   4.585   4.652  14.917  0.5095 -0.5849 -1.7423
   34DOPE  C314 4371   4.474   4.563  15.085 -0.2403  0.1850 -0.6019
   34DOPE  H14X 4372   4.428   4.465  15.109 -1.8774  0.8935 -0.7732
   34DOPE  H14Y 4373   4.392   4.636  15.104 -1.1913 -0.5851 -1.6447
   34DOPE  C315 4374   4.599   4.588  15.174 -0.0850 -0.3495  0.3646
   34DOPE  H15X 4375   4.627   4.693  15.152 -1.1352 -0.0522  0.3831
   34DOPE  H15Y 4376   4.685   4.525  15.142 -0.3894 -0.8053  0.4412
   34DOPE  C316 4377   4.573   4.560  15.322 -0.3147 -0.3176 -0.1118
   34DOPE  H16X 4378   4.552   4.451  15.329 -0.1327 -0.5584 -2.6013
   34DOPE  H16Y 4379   4.482   4.620  15.345  0.0557  0.6326 -1.0459
   34DOPE  C317 4380   4.694   4.608  15.409  0.1172 -0.0695 -0.3125
   34DOPE  H17X 4381   4.725   4.708  15.373  2.0752 -0.4143  0.3147
   34DOPE  H17Y 4382   4.667   4.647  15.510 -2.0343  0.5313 -1.0552
   34DOPE  C318 4383   4.819   4.519  15.410  0.0636 -0.3879  0.5214
   34DOPE  H18X 4384   4.797   4.412  15.429  0.7174 -0.4333  1.0513
   34DOPE  H18Y 4385   4.873   4.535  15.314  1.9789  1.2036  1.7940
   34DOPE  H18Z 4386   4.887   4.554  15.490 -0.4909  0.3863  0.6731
   35DOPE     N 4387   0.056   4.868  13.154  0.0891 -0.2364  1.2466
   35DOPE   HN1 4388  -0.023   4.930  13.127 -1.2927 -1.9055  1.3131
   35DOPE   HN2 4389   0.014   4.799  13.220  1.4598 -1.0975  1.2650
   35DOPE   HN3 4390   0.122   4.937  13.197 -1.6725  2.7078 -0.4753
   35DOPE   C12 4391   0.114   4.799  13.031  0.1903 -0.9090  0.5295
   35DOPE  H12A 4392   0.213   4.762  13.065  0.5043  0.3257  1.0169
   35DOPE  H12B 4393   0.127   4.878  12.953  1.3840 -1.8810 -0.2868
   35DOPE   C11 4394   0.013   4.691  12.988  0.5581  0.6113  0.3557
   35DOPE  H11A 4395   0.009   4.606  13.059 -0.2375 -2.3806 -2.9791
   35DOPE  H11B 4396   0.051   4.641  12.896 -0.0947 -0.3981  0.6199
   35DOPE     P 4397  -0.217   4.698  12.851  0.2285  0.3222 -0.4102
   35DOPE   O13 4398  -0.146   4.619  12.752  0.7861  0.1440  0.1742
   35DOPE   O14 4399  -0.301   4.806  12.796  0.1772 -0.0610 -0.1181
   35DOPE   O11 4400  -0.301   4.587  12.927 -0.6263 -0.2281  0.6046
   35DOPE   O12 4401  -0.117   4.748  12.959 -0.2708  0.0304 -0.2363
   35DOPE    C1 4402  -0.367   4.626  13.045 -0.3215  0.8644  0.2537
   35DOPE    HA 4403  -0.470   4.585  13.053 -0.9916  1.5552 -3.2114
   35DOPE    HB 4404  -0.396   4.733  13.057 -1.4485  0.5984  0.0564
   35DOPE    C2 4405  -0.276   4.595  13.173  0.3990 -0.0807  0.4260
   35DOPE    HS 4406  -0.178   4.643  13.152 -0.7448  2.8254  1.2858
   35DOPE   O21 4407  -0.275   4.452  13.200 -0.0397 -0.0451 -0.2189
   35DOPE   C21 4408  -0.157   4.412  13.247 -0.8845  0.0155  0.1460
   35DOPE   O22 4409  -0.062   4.487  13.278  0.3034  0.1772 -0.1613
   35DOPE   C22 4410  -0.158   4.259  13.271  0.7558 -0.2831  0.2595
   35DOPE   H2R 4411  -0.178   4.228  13.166 -5.3507  1.0542  0.6490
   35DOPE   H2S 4412  -0.247   4.227  13.329  0.3595  2.3279  1.2502
   35DOPE    C3 4413  -0.331   4.667  13.300 -0.7502 -0.0543 -0.1539
   35DOPE    HX 4414  -0.433   4.628  13.317 -1.0341  0.8280  0.1895
   35DOPE    HY 4415  -0.339   4.777  13.288  0.8105  0.3247  1.7420
   35DOPE   O31 4416  -0.252   4.641  13.417 -0.1555 -0.3356 -0.2363
   35DOPE   C31 4417  -0.150   4.729  13.445 -0.0067  0.4658  0.2097
   35DOPE   O32 4418  -0.122   4.831  13.385  0.2947  0.1780  0.2599
   35DOPE   C32 4419  -0.083   4.672  13.569  0.3204  0.1785  0.0440
   35DOPE   H2X 4420  -0.155   4.614  13.630  0.4370  1.9901  1.9939
   35DOPE   H2Y 4421  -0.011   4.593  13.538 -0.2467 -1.5960  2.8544
   35DOPE   C23 4422  -0.016   4.213  13.329  0.3109  0.2919  0.1230
   35DOPE   H3R 4423   0.065   4.251  13.264  0.9292 -2.2092 -0.7092
   35DOPE   H3S 4424  -0.017   4.106  13.296  2.7156 -0.1413  1.2453
   35DOPE   C24 4425   0.004   4.236  13.479  0.1847 -0.0351 -0.6352
   35DOPE   H4R 4426   0.018   4.345  13.495  1.9699 -0.3665  0.4095
   35DOPE   H4S 4427   0.097   4.184  13.512  0.0231  0.5037  0.7374
   35DOPE   C25 4428  -0.111   4.196  13.573  0.1144 -0.0211 -0.3797
   35DOPE   H5R 4429  -0.140   4.090  13.553 -0.1965  0.0646 -0.3810
   35DOPE   H5S 4430  -0.205   4.250  13.552  0.8475  0.9965 -1.1408
   35DOPE   C26 4431  -0.084   4.210  13.722  0.0564 -0.0133 -0.4362
   35DOPE   H6R 4432   0.004   4.147  13.746  1.1213  0.5730 -2.5506
   35DOPE   H6S 4433  -0.163   4.166  13.787  0.5309  0.0078  0.1570
   35DOPE   C27 4434  -0.054   4.352  13.763 -0.0027  0.1678  0.2045
   35DOPE   H7R 4435  -0.140   4.415  13.729 -0.5521 -0.0600  1.1257
   35DOPE   H7S 4436   0.031   4.380  13.698 -0.1415  0.2317  0.0483
   35DOPE   C28 4437  -0.048   4.384  13.913 -0.1801  0.3617 -0.2749
   35DOPE   H8R 4438  -0.140   4.359  13.968  0.0474  1.9620  0.9136
   35DOPE   H8S 4439  -0.035   4.494  13.922  0.8509  0.1177  1.8494
   35DOPE   C29 4440   0.067   4.309  13.966 -0.1052  0.2093 -0.1547
   35DOPE   H9R 4441   0.150   4.289  13.898  0.4477 -1.8182  1.0428
   35DOPE  C210 4442   0.073   4.255  14.087  0.8411  0.4382 -0.1910
   35DOPE  H10R 4443   0.162   4.193  14.105  0.2937 -0.4859 -0.6419
   35DOPE  C211 4444  -0.024   4.289  14.197 -0.2805 -0.7799  0.0415
   35DOPE  H11R 4445  -0.124   4.311  14.152  0.5806 -1.0846 -2.1416
   35DOPE  H11S 4446   0.009   4.385  14.242 -2.1010 -0.3455  0.5369
   35DOPE  C212 4447  -0.013   4.176  14.293  0.0788  0.0737  0.4397
   35DOPE  H12R 4448   0.087   4.160  14.338  1.1041  0.2957 -1.6341
   35DOPE  H12S 4449  -0.050   4.080  14.253  0.1696 -0.3093  1.2603
   35DOPE  C213 4450  -0.109   4.189  14.416  0.3612 -0.4218  1.1495
   35DOPE  H13R 4451  -0.216   4.170  14.390  1.0890 -0.7944 -1.9374
   35DOPE  H13S 4452  -0.107   4.299  14.433 -2.4521 -0.1943  0.4758
   35DOPE  C214 4453  -0.079   4.106  14.537  0.3652  0.3286 -0.1072
   35DOPE  H14R 4454   0.007   4.148  14.593  1.0879  0.2815 -1.1437
   35DOPE  H14S 4455  -0.053   4.001  14.512 -1.0581  0.3771 -2.0282
   35DOPE  C215 4456  -0.193   4.112  14.645 -0.0446  0.5131 -0.3375
   35DOPE  H15R 4457  -0.295   4.093  14.606 -0.8457  2.7960  0.4924
   35DOPE  H15S 4458  -0.203   4.216  14.684  2.0307  0.6894 -0.1297
   35DOPE  C216 4459  -0.170   4.022  14.764 -0.3088  0.9296 -0.1896
   35DOPE  H16R 4460  -0.068   4.037  14.804  0.1235  0.6660 -1.1785
   35DOPE  H16S 4461  -0.183   3.919  14.722 -0.9806  1.5047 -1.4613
   35DOPE  C217 4462  -0.275   4.041  14.876 -0.1026  0.5174  0.2475
   35DOPE  H17R 4463  -0.358   4.093  14.824  0.7382  0.4103 -1.2718
   35DOPE  H17S 4464  -0.234   4.114  14.950  0.4046  0.3977  0.0918
   35DOPE  C218 4465  -0.330   3.915  14.942  0.1785 -0.6521 -0.5003
   35DOPE  H18R 4466  -0.391   3.846  14.879 -1.4302 -0.5436  0.8705
   35DOPE  H18S 4467  -0.392   3.942  15.030 -0.4520 -0.3626 -1.0222
   35DOPE  H18T 4468  -0.247   3.847  14.970  0.7523 -0.5738 -1.9086
   35DOPE   C33 4469   0.006   4.776  13.646 -0.3681  0.2123  0.4853
   35DOPE   H3X 4470  -0.045   4.875  13.643 -0.3240  0.2125 -0.8955
   35DOPE   H3Y 4471   0.101   4.776  13.588 -0.5384  0.3576  0.2006
   35DOPE   C34 4472   0.035   4.736  13.787 -0.0725 -0.2259 -0.5656
   35DOPE   H4X 4473   0.065   4.629  13.796  2.4068  0.1344 -3.2253
   35DOPE   H4Y 4474   0.128   4.783  13.825 -0.7911  0.6693  0.1187
   35DOPE   C35 4475  -0.070   4.782  13.887 -0.8331  0.0298 -0.1957
   35DOPE   H5X 4476  -0.168   4.729  13.882  0.0212 -1.6275  0.0834
   35DOPE   H5Y 4477  -0.084   4.889  13.861 -0.2343  0.8006  2.3184
   35DOPE   C36 4478  -0.017   4.777  14.034  0.0258 -1.2571  0.5493
   35DOPE   H6X 4479   0.082   4.827  14.040 -0.6560  0.2605 -0.2533
   35DOPE   H6Y 4480   0.005   4.673  14.065  1.2532 -0.6253  1.9296
   35DOPE   C37 4481  -0.107   4.857  14.141 -0.7706  0.7872 -0.3338
   35DOPE   H7X 4482  -0.106   4.967  14.126 -2.2519  0.8953  0.1524
   35DOPE   H7Y 4483  -0.208   4.820  14.112 -0.3198 -0.1159 -0.8134
   35DOPE   C38 4484  -0.065   4.834  14.291  0.5717  0.0969  0.4045
   35DOPE   H8X 4485  -0.135   4.895  14.352 -0.9348 -1.6220  0.4807
   35DOPE   H8Y 4486   0.036   4.878  14.301 -0.0051  1.2425  1.5170
   35DOPE   C39 4487  -0.083   4.684  14.313  0.0148  0.2590  0.4901
   35DOPE   H9X 4488  -0.086   4.624  14.221 -1.8008 -0.4463  0.9661
   35DOPE  C310 4489  -0.123   4.622  14.425  0.0415  0.7472 -0.2289
   35DOPE  H10X 4490  -0.150   4.515  14.425 -3.2441  1.4433  1.4167
   35DOPE  C311 4491  -0.132   4.689  14.555 -0.2270  0.1034 -0.7321
   35DOPE  H11X 4492  -0.065   4.650  14.634 -1.8319  1.4954  1.4394
   35DOPE  H11Y 4493  -0.095   4.793  14.537  0.4211 -0.3407 -2.0961
   35DOPE  C312 4494  -0.271   4.695  14.616 -0.6250 -0.0446  1.3588
   35DOPE  H12X 4495  -0.299   4.596  14.659  0.1371  0.0619  2.1322
   35DOPE  H12Y 4496  -0.343   4.710  14.533  0.6332  3.4667  0.7492
   35DOPE  C313 4497  -0.283   4.819  14.709  0.3008  0.3120 -0.1884
   35DOPE  H13X 4498  -0.242   4.911  14.664  2.8219 -1.9055 -2.8401
   35DOPE  H13Y 4499  -0.390   4.819  14.737 -0.1534  0.2940 -1.8501
   35DOPE  C314 4500  -0.221   4.786  14.851  0.1987 -0.1603  0.3670
   35DOPE  H14X 4501  -0.111   4.782  14.837 -0.0714 -1.7364 -1.7586
   35DOPE  H14Y 4502  -0.266   4.690  14.885  3.2492 -2.4647 -1.6136
   35DOPE  C315 4503  -0.257   4.897  14.942 -0.2005  0.0504 -0.1349
   35DOPE  H15X 4504  -0.363   4.926  14.925 -0.8068 -1.7450  0.3829
   35DOPE  H15Y 4505  -0.198   4.983  14.903  0.8574  0.1820  1.6490
   35DOPE  C316 4506  -0.218   4.873  15.082 -0.3291 -0.5390  0.3235
   35DOPE  H16X 4507  -0.120   4.821  15.077  0.1915  0.2998  1.3631
   35DOPE  H16Y 4508  -0.272   4.792  15.135 -0.6727  0.4793  1.5796
   35DOPE  C317 4509  -0.237   4.993  15.181 -0.3803  0.4198  0.6004
   35DOPE  H17X 4510  -0.192   5.087  15.144 -0.4766 -0.1216 -0.9644
   35DOPE  H17Y 4511  -0.346   5.017  15.174 -0.1108  1.6395  0.3979
   35DOPE  C318 4512  -0.199   4.968  15.318 -0.0457  0.4696 -0.3156
   35DOPE  H18X 4513  -0.090   4.970  15.336  0.0515  0.1753 -0.8568
   35DOPE  H18Y 4514  -0.252   5.025  15.398 -0.8476  0.3935 -0.7787
   35DOPE  H18Z 4515  -0.219   4.862  15.347 -1.9019  0.8353 -0.1504
   36DOPE     N 4516   0.652   5.936  12.315 -0.2450  0.2100  0.9296
   36DOPE   HN1 4517   0.560   5.933  12.364 -0.1476 -0.0515  1.0953
   36DOPE   HN2 4518   0.633   5.947  12.213  2.9094 -4.5809 -0.4882
   36DOPE   HN3 4519   0.693   5.841  12.321 -2.0573 -0.6352  0.8787
   36DOPE   C12 4520   0.740   6.042  12.371 -0.2060  0.4111 -0.1195
   36DOPE  H12A 4521   0.676   6.125  12.407  2.6236  2.4209  0.6222
   36DOPE  H12B 4522   0.813   6.072  12.292 -1.8320  1.4072 -1.3177
   36DOPE   C11 4523   0.815   5.991  12.498  0.2005  0.1290 -0.5796
   36DOPE  H11A 4524   0.743   5.983  12.582  0.6260 -0.9234 -0.3063
   36DOPE  H11B 4525   0.895   6.063  12.526 -1.0636  0.4263  2.7117
   36DOPE     P 4526   1.014   5.837  12.428 -0.1349 -0.4443 -0.2899
   36DOPE   O13 4527   1.026   5.913  12.298 -0.4985  0.5032 -0.2406
   36DOPE   O14 4528   1.041   5.694  12.423 -0.7511 -0.1921 -0.0799
   36DOPE   O11 4529   1.108   5.911  12.533 -0.5747  0.3495 -0.3921
   36DOPE   O12 4530   0.869   5.862  12.487  0.2399 -1.1033  0.5452
   36DOPE    C1 4531   1.172   5.821  12.627 -0.7034 -0.0685  0.5488
   36DOPE    HA 4532   1.249   5.878  12.682 -1.0444  0.8160  0.1353
   36DOPE    HB 4533   1.225   5.735  12.582  0.1199 -0.2093  1.7458
   36DOPE    C2 4534   1.072   5.771  12.745 -0.8072 -0.2412 -0.0917
   36DOPE    HS 4535   1.004   5.699  12.696 -0.5305  0.3130 -1.3336
   36DOPE   O21 4536   1.003   5.890  12.785  0.1185  0.0567 -0.4128
   36DOPE   C21 4537   0.887   5.870  12.844 -0.7340  0.8857  0.3823
   36DOPE   O22 4538   0.834   5.761  12.853 -0.6967 -0.5169  0.4017
   36DOPE   C22 4539   0.820   6.001  12.899 -0.2136 -0.5464  0.3720
   36DOPE   H2R 4540   0.749   5.970  12.978 -1.7086  0.1764 -0.6498
   36DOPE   H2S 4541   0.773   6.044  12.808  0.9658  1.5928  0.7053
   36DOPE    C3 4542   1.152   5.701  12.864 -0.5305  0.4337 -0.5410
   36DOPE    HX 4543   1.237   5.648  12.816  1.0531  1.9392  0.4886
   36DOPE    HY 4544   1.087   5.626  12.915 -0.7720  1.5026  0.7909
   36DOPE   O31 4545   1.197   5.796  12.966 -0.2777 -0.0954 -0.0697
   36DOPE   C31 4546   1.329   5.813  12.977  0.4782  0.6010 -0.3240
   36DOPE   O32 4547   1.414   5.751  12.915  0.1645 -0.7022 -0.3231
   36DOPE   C32 4548   1.352   5.903  13.106  0.4087  0.1304  0.7746
   36DOPE   H2X 4549   1.314   6.006  13.085  0.1122 -0.3522 -1.2553
   36DOPE   H2Y 4550   1.289   5.853  13.183  0.3441 -0.0831  0.5814
   36DOPE   C23 4551   0.923   6.091  12.965  0.2140 -0.5657 -0.4383
   36DOPE   H3R 4552   0.872   6.189  12.978  0.1020 -0.7078  0.2571
   36DOPE   H3S 4553   1.005   6.109  12.892 -0.4530  1.3113 -0.7827
   36DOPE   C24 4554   0.967   6.040  13.100  0.4419  0.2221  0.2159
   36DOPE   H4R 4555   1.048   6.105  13.139  1.7089 -2.2509  1.9552
   36DOPE   H4S 4556   1.006   5.936  13.104  1.3144  0.4099 -2.1677
   36DOPE   C25 4557   0.858   6.044  13.207 -0.2265  0.3039 -0.0981
   36DOPE   H5R 4558   0.782   5.976  13.163  0.3038  0.6731 -1.6524
   36DOPE   H5S 4559   0.811   6.144  13.215  1.2794  1.0002  0.2771
   36DOPE   C26 4560   0.898   6.003  13.346 -0.1546 -0.2228 -0.1796
   36DOPE   H6R 4561   0.970   5.918  13.342 -1.7154 -1.7551  1.6871
   36DOPE   H6S 4562   0.813   5.963  13.406 -0.6923 -0.7662 -1.2743
   36DOPE   C27 4563   0.971   6.112  13.428  0.4678 -0.8735  0.3735
   36DOPE   H7R 4564   0.914   6.207  13.433 -1.2123 -1.7406 -1.2917
   36DOPE   H7S 4565   1.066   6.141  13.379  0.8011 -1.1315  0.8536
   36DOPE   C28 4566   1.007   6.075  13.574  0.3519 -0.0470  0.0256
   36DOPE   H8R 4567   1.079   6.152  13.607 -0.0569 -0.6759  2.6128
   36DOPE   H8S 4568   1.051   5.974  13.590  0.3626 -0.1546 -0.6488
   36DOPE   C29 4569   0.880   6.091  13.658 -0.4507 -0.4691  0.4206
   36DOPE   H9R 4570   0.796   6.136  13.602 -0.7027 -1.3471  0.0722
   36DOPE  C210 4571   0.870   6.050  13.788  0.5336 -0.4659 -0.4486
   36DOPE  H10R 4572   0.772   6.051  13.839  0.1538 -1.1560 -1.1433
   36DOPE  C211 4573   0.981   5.989  13.863  0.1546 -0.1131 -0.6502
   36DOPE  H11R 4574   1.064   5.967  13.792  0.0922 -0.1690 -0.7063
   36DOPE  H11S 4575   0.948   5.890  13.900  0.5307 -1.1131 -2.8669
   36DOPE  C212 4576   1.044   6.086  13.962 -0.7008  0.6071 -0.0999
   36DOPE  H12R 4577   1.038   6.191  13.926 -1.1178  0.0982 -1.5482
   36DOPE  H12S 4578   1.149   6.054  13.979 -0.0244  2.1776 -1.1663
   36DOPE  C213 4579   0.974   6.078  14.101 -0.3540  0.2978  0.7721
   36DOPE  H13R 4580   0.865   6.086  14.083 -0.4766 -0.0858  1.3131
   36DOPE  H13S 4581   1.017   6.155  14.169 -2.4374  0.4791  1.9770
   36DOPE  C214 4582   0.992   5.941  14.168  0.6288  0.6860 -0.0252
   36DOPE  H14R 4583   1.094   5.904  14.143  0.2381  0.3680 -1.2327
   36DOPE  H14S 4584   0.918   5.862  14.141  0.3794 -0.1236  2.7432
   36DOPE  C215 4585   0.971   5.953  14.324 -0.3096  0.6352 -0.3854
   36DOPE  H15R 4586   1.058   6.005  14.370  0.8312 -1.8983  0.4997
   36DOPE  H15S 4587   0.958   5.846  14.351  0.2874  0.0463 -2.2955
   36DOPE  C216 4588   0.847   6.035  14.366  0.3909 -0.2129  0.6918
   36DOPE  H16R 4589   0.759   5.983  14.323 -0.9670  1.2039  1.6562
   36DOPE  H16S 4590   0.863   6.141  14.335  3.6202 -0.5772  0.7246
   36DOPE  C217 4591   0.839   6.028  14.520 -0.7506  0.1547  0.6748
   36DOPE  H17R 4592   0.831   5.922  14.554 -3.0281  0.4131  1.0604
   36DOPE  H17S 4593   0.745   6.080  14.546 -1.1599  0.7836 -1.7622
   36DOPE  C218 4594   0.956   6.102  14.586 -0.1415 -0.4090  0.2213
   36DOPE  H18R 4595   0.972   6.196  14.531 -0.0605 -0.6356 -0.1452
   36DOPE  H18S 4596   1.046   6.037  14.588  0.3579  0.0901 -2.3194
   36DOPE  H18T 4597   0.935   6.118  14.694 -2.6032  0.4524 -0.3197
   36DOPE   C33 4598   1.504   5.902  13.152 -0.3687  0.5258  0.2410
   36DOPE   H3X 4599   1.553   5.945  13.062 -0.9039 -1.9085 -1.2988
   36DOPE   H3Y 4600   1.541   5.798  13.159 -1.2551  0.2652  1.2740
   36DOPE   C34 4601   1.534   5.978  13.285 -0.0028 -0.2252 -0.5725
   36DOPE   H4X 4602   1.643   5.999  13.294  0.0158 -0.8257  0.8162
   36DOPE   H4Y 4603   1.476   6.072  13.288  0.9439  0.3399  1.3181
   36DOPE   C35 4604   1.491   5.888  13.402  0.0321  0.4178  0.6013
   36DOPE   H5X 4605   1.567   5.807  13.405 -0.6144 -0.1773  1.9010
   36DOPE   H5Y 4606   1.393   5.847  13.371  0.1632  1.5835 -1.5177
   36DOPE   C36 4607   1.478   5.954  13.539  0.4918  0.2219 -0.4676
   36DOPE   H6X 4608   1.422   6.046  13.513  0.2153 -0.3732 -2.0650
   36DOPE   H6Y 4609   1.575   5.997  13.573 -0.3986  0.6626  1.6825
   36DOPE   C37 4610   1.415   5.884  13.658  0.1690 -0.1451 -0.3203
   36DOPE   H7X 4611   1.320   5.843  13.620  0.6173 -2.4760  0.9214
   36DOPE   H7Y 4612   1.486   5.807  13.693 -0.0817 -0.0049  0.5155
   36DOPE   C38 4613   1.383   5.969  13.783  0.8185  0.6496  0.4306
   36DOPE   H8X 4614   1.297   6.035  13.761  0.2654 -0.6990 -1.6598
   36DOPE   H8Y 4615   1.467   6.038  13.806  3.3235 -1.0277 -2.8185
   36DOPE   C39 4616   1.355   5.874  13.904 -0.2596 -0.3469 -0.3464
   36DOPE   H9X 4617   1.274   5.801  13.889 -0.2250  0.2552 -4.5653
   36DOPE  C310 4618   1.423   5.877  14.023 -0.5964 -0.3928 -0.1566
   36DOPE  H10X 4619   1.390   5.817  14.109  1.5491  0.7599  1.5437
   36DOPE  C311 4620   1.532   5.973  14.060  0.9649  0.6303  1.1461
   36DOPE  H11X 4621   1.625   5.958  14.001  0.3311  1.6747 -0.1900
   36DOPE  H11Y 4622   1.502   6.079  14.041  1.0197  0.3708 -0.5287
   36DOPE  C312 4623   1.572   5.955  14.203 -0.1693  0.4729 -0.0150
   36DOPE  H12X 4624   1.661   6.018  14.225  0.7374 -1.1847  1.3924
   36DOPE  H12Y 4625   1.603   5.853  14.236 -0.7448  0.2984 -0.0047
   36DOPE  C313 4626   1.467   6.009  14.303  0.2731 -0.3724  0.0587
   36DOPE  H13X 4627   1.436   6.115  14.292  0.9034 -0.1171  0.6575
   36DOPE  H13Y 4628   1.373   5.955  14.279  0.5020 -1.3964  1.3305
   36DOPE  C314 4629   1.495   5.985  14.451  0.6182 -0.5623 -0.1366
   36DOPE  H14X 4630   1.410   6.025  14.511 -0.4095 -1.9171 -0.6541
   36DOPE  H14Y 4631   1.586   6.044  14.474 -0.5282  0.6793  1.5908
   36DOPE  C315 4632   1.530   5.842  14.489  0.3048 -0.5194 -0.1546
   36DOPE  H15X 4633   1.601   5.782  14.428  0.5756 -0.2215 -0.1351
   36DOPE  H15Y 4634   1.436   5.783  14.497  0.2308 -0.2964  0.6975
   36DOPE  C316 4635   1.584   5.842  14.638  0.0715  0.1925  0.4848
   36DOPE  H16X 4636   1.675   5.906  14.653  1.2367 -0.5459 -2.6455
   36DOPE  H16Y 4637   1.616   5.736  14.648 -1.9997 -0.2686  3.2023
   36DOPE  C317 4638   1.487   5.883  14.751 -0.1848 -0.1972 -0.9300
   36DOPE  H17X 4639   1.478   5.993  14.741 -1.7320 -0.3345 -1.3722
   36DOPE  H17Y 4640   1.390   5.835  14.727 -1.8603  0.3325  3.7070
   36DOPE  C318 4641   1.522   5.843  14.892 -0.2582  0.4517 -0.0348
   36DOPE  H18X 4642   1.455   5.868  14.978  1.3707 -1.5059  1.9081
   36DOPE  H18Y 4643   1.537   5.734  14.908  1.9524  0.8471  0.9404
   36DOPE  H18Z 4644   1.617   5.888  14.930  0.7693 -1.7502  0.1260
   37DOPE     N 4645   3.798   4.081  12.397  0.4265  0.7729  0.2341
   37DOPE   HN1 4646   3.756   4.063  12.491  0.4735 -1.5043 -0.1408
   37DOPE   HN2 4647   3.750   4.168  12.366  2.6380  1.7388 -0.7038
   37DOPE   HN3 4648   3.758   3.999  12.347 -1.1879  1.0406  0.9946
   37DOPE   C12 4649   3.949   4.082  12.385  0.2558  0.0349 -0.5277
   37DOPE  H12A 4650   3.979   4.189  12.387  0.1355  0.1428 -2.3672
   37DOPE  H12B 4651   3.977   4.032  12.289  0.0002 -0.7621 -0.1974
   37DOPE   C11 4652   4.018   4.004  12.504  1.0715 -0.3225  0.4633
   37DOPE  H11A 4653   4.124   4.038  12.511  0.9051 -0.0611  2.3585
   37DOPE  H11B 4654   4.032   3.895  12.487 -1.3446 -0.9121  1.8231
   37DOPE     P 4655   3.976   4.130  12.736 -0.1976 -0.4548 -0.2865
   37DOPE   O13 4656   3.917   4.090  12.861  0.1820  0.3207 -0.8318
   37DOPE   O14 4657   3.917   4.257  12.679  0.2022  0.5771 -0.2478
   37DOPE   O11 4658   4.128   4.150  12.754 -0.0400  0.0431 -0.1694
   37DOPE   O12 4659   3.950   4.016  12.633 -0.6483  0.2325  0.3023
   37DOPE    C1 4660   4.233   4.051  12.769  0.0752  0.3982  0.6251
   37DOPE    HA 4661   4.331   4.096  12.744  0.2144 -0.6168 -0.7839
   37DOPE    HB 4662   4.232   3.961  12.704  3.5307 -0.8516  2.0916
   37DOPE    C2 4663   4.250   3.995  12.910 -0.6796  0.2721  0.1514
   37DOPE    HS 4664   4.159   3.933  12.930  0.4946 -1.8893 -0.8793
   37DOPE   O21 4665   4.258   4.111  12.988 -0.6995  0.3959 -0.9756
   37DOPE   C21 4666   4.238   4.081  13.112 -0.0389  0.8114 -0.1545
   37DOPE   O22 4667   4.186   3.977  13.153  0.2098 -0.3756  0.7520
   37DOPE   C22 4668   4.279   4.194  13.211  0.1491 -0.2643  0.0369
   37DOPE   H2R 4669   4.187   4.255  13.222  0.7883  0.3151  3.3947
   37DOPE   H2S 4670   4.365   4.248  13.166  0.8050  1.3045  2.9442
   37DOPE    C3 4671   4.378   3.905  12.915  0.2304 -0.9018  0.5788
   37DOPE    HX 4672   4.468   3.963  12.883  1.0547 -0.9531  2.7000
   37DOPE    HY 4673   4.359   3.832  12.833  1.4835 -0.1646 -0.4022
   37DOPE   O31 4674   4.400   3.842  13.040 -0.6358  0.3565 -0.0013
   37DOPE   C31 4675   4.326   3.737  13.055  0.0756 -0.5007 -0.1549
   37DOPE   O32 4676   4.221   3.715  12.998 -0.4888  0.5626 -0.7603
   37DOPE   C32 4677   4.387   3.637  13.150  0.0615 -0.0026  1.0284
   37DOPE   H2X 4678   4.322   3.548  13.139 -1.1294  1.0432 -0.9638
   37DOPE   H2Y 4679   4.491   3.618  13.116 -0.0993 -1.4403  1.2555
   37DOPE   C23 4680   4.317   4.134  13.350  0.5191  0.0726  0.2465
   37DOPE   H3R 4681   4.414   4.080  13.339  0.7251  0.0105  2.0949
   37DOPE   H3S 4682   4.229   4.075  13.381  1.3290 -1.1663  0.2774
   37DOPE   C24 4683   4.333   4.242  13.468  0.4474 -0.3445  0.0491
   37DOPE   H4R 4684   4.232   4.271  13.503  0.3965  2.8780 -2.3314
   37DOPE   H4S 4685   4.380   4.331  13.421  0.4712 -0.8016 -0.8360
   37DOPE   C25 4686   4.428   4.194  13.579  0.5641 -0.3597 -0.5703
   37DOPE   H5R 4687   4.462   4.289  13.624 -0.9461  1.4649 -2.9907
   37DOPE   H5S 4688   4.520   4.151  13.535  0.4637  0.4472 -1.6250
   37DOPE   C26 4689   4.352   4.101  13.674  0.4323 -0.5190  0.4672
   37DOPE   H6R 4690   4.329   4.002  13.629  0.1001  0.7284 -2.3411
   37DOPE   H6S 4691   4.257   4.151  13.700  1.4714  0.3969  2.8494
   37DOPE   C27 4692   4.418   4.071  13.805 -0.2198  0.6298  0.3428
   37DOPE   H7R 4693   4.513   4.028  13.768 -0.6810 -0.3522  0.2904
   37DOPE   H7S 4694   4.366   3.988  13.857  0.5718 -0.2162 -0.1964
   37DOPE   C28 4695   4.447   4.186  13.903 -0.0722  0.1948  0.0317
   37DOPE   H8R 4696   4.489   4.272  13.847  0.3295 -0.0337 -0.0192
   37DOPE   H8S 4697   4.522   4.161  13.981 -1.6048  2.2117  2.3113
   37DOPE   C29 4698   4.312   4.228  13.963 -0.2838  0.4730  0.1523
   37DOPE   H9R 4699   4.242   4.274  13.891  0.2940 -3.3795 -3.2479
   37DOPE  C210 4700   4.285   4.212  14.095  0.3385  0.4584 -0.2348
   37DOPE  H10R 4701   4.193   4.257  14.134  0.3332  1.6520 -1.5169
   37DOPE  C211 4702   4.383   4.159  14.194 -0.6406 -0.5183  0.3598
   37DOPE  H11R 4703   4.489   4.184  14.172 -1.7729  3.6723 -1.1193
   37DOPE  H11S 4704   4.378   4.048  14.200 -0.3150 -0.5396  0.2359
   37DOPE  C212 4705   4.365   4.202  14.340 -0.2972  0.4641 -0.0504
   37DOPE  H12R 4706   4.278   4.144  14.378 -1.0357 -0.0362 -2.3887
   37DOPE  H12S 4707   4.343   4.311  14.343 -0.4694  0.4346 -0.2897
   37DOPE  C213 4708   4.488   4.176  14.430 -0.5772 -0.6313 -0.5820
   37DOPE  H13R 4709   4.580   4.216  14.383 -0.3901 -1.5549 -1.0189
   37DOPE  H13S 4710   4.503   4.067  14.449  2.3409 -0.2206 -0.1457
   37DOPE  C214 4711   4.472   4.244  14.575 -0.1898 -0.1914  0.9892
   37DOPE  H14R 4712   4.390   4.203  14.638 -1.6791  0.3111 -0.5481
   37DOPE  H14S 4713   4.445   4.343  14.534  2.8693 -0.6713 -2.6802
   37DOPE  C215 4714   4.605   4.264  14.644  0.1861 -0.3146 -0.5560
   37DOPE  H15R 4715   4.579   4.331  14.729 -3.0255 -0.4543 -1.2851
   37DOPE  H15S 4716   4.682   4.318  14.585  0.3101 -0.1600 -0.2568
   37DOPE  C216 4717   4.656   4.129  14.707 -0.6288  0.0122 -0.2714
   37DOPE  H16R 4718   4.659   4.052  14.627 -2.3851 -1.4579  0.9888
   37DOPE  H16S 4719   4.598   4.079  14.787  0.1737  0.6088  0.7012
   37DOPE  C217 4720   4.796   4.145  14.761 -0.0715  0.3685  0.6198
   37DOPE  H17R 4721   4.864   4.189  14.685  0.0658 -0.1699  0.4243
   37DOPE  H17S 4722   4.825   4.038  14.771  1.1772  0.6298 -0.0455
   37DOPE  C218 4723   4.800   4.229  14.890 -0.2324  0.0284 -0.4123
   37DOPE  H18R 4724   4.720   4.184  14.953  0.8082  0.3336  1.1741
   37DOPE  H18S 4725   4.789   4.339  14.879  1.2670  0.4448  1.5851
   37DOPE  H18T 4726   4.897   4.208  14.942  0.0294  0.8871 -0.5494
   37DOPE   C33 4727   4.390   3.671  13.294 -0.1239 -0.3695 -0.0746
   37DOPE   H3X 4728   4.447   3.764  13.316 -1.5530  0.1845  1.5318
   37DOPE   H3Y 4729   4.452   3.592  13.342  1.6664  0.8537 -0.2962
   37DOPE   C34 4730   4.246   3.660  13.355 -0.6158  0.6377  0.3546
   37DOPE   H4X 4731   4.172   3.700  13.283 -0.8528  2.0169  1.3449
   37DOPE   H4Y 4732   4.221   3.551  13.357 -2.5754  1.0465 -0.1397
   37DOPE   C35 4733   4.237   3.716  13.491 -0.4657 -0.7524 -0.1910
   37DOPE   H5X 4734   4.131   3.712  13.523 -0.6321  0.0277 -0.6265
   37DOPE   H5Y 4735   4.258   3.825  13.491 -0.9514 -0.6373 -1.4122
   37DOPE   C36 4736   4.334   3.647  13.596  0.1089  0.4469 -0.2011
   37DOPE   H6X 4737   4.436   3.689  13.577 -0.1695  1.6203  0.7735
   37DOPE   H6Y 4738   4.322   3.537  13.595 -2.0409  0.6529 -0.0326
   37DOPE   C37 4739   4.288   3.694  13.739  0.1907  0.1451 -0.1475
   37DOPE   H7X 4740   4.285   3.804  13.750  3.8245  0.4578 -0.9460
   37DOPE   H7Y 4741   4.183   3.659  13.748  0.1945  0.0854 -0.3179
   37DOPE   C38 4742   4.366   3.652  13.859 -0.6126 -0.4091  0.8940
   37DOPE   H8X 4743   4.335   3.547  13.877 -0.3952 -0.9309 -1.4670
   37DOPE   H8Y 4744   4.339   3.716  13.946 -0.7408  1.5458 -0.5041
   37DOPE   C39 4745   4.511   3.673  13.843 -0.4545  0.9451 -0.0093
   37DOPE   H9X 4746   4.536   3.780  13.838  0.0820  0.9815  2.3873
   37DOPE  C310 4747   4.606   3.572  13.824  0.5607 -0.9909 -0.1288
   37DOPE  H10X 4748   4.713   3.587  13.803  0.4619  2.5078  1.2044
   37DOPE  C311 4749   4.567   3.431  13.803 -0.4298  0.7145 -0.7783
   37DOPE  H11X 4750   4.458   3.419  13.789 -0.4896 -0.6955  0.6113
   37DOPE  H11Y 4751   4.617   3.399  13.709 -1.5944  0.0716 -1.1917
   37DOPE  C312 4752   4.598   3.334  13.918 -0.4430 -0.3284 -0.0257
   37DOPE  H12X 4753   4.708   3.324  13.906 -0.3465  0.8958 -0.3215
   37DOPE  H12Y 4754   4.564   3.232  13.892 -0.5875 -0.7527  1.7052
   37DOPE  C313 4755   4.559   3.375  14.061 -0.5710 -0.3735  0.0974
   37DOPE  H13X 4756   4.594   3.479  14.080 -1.0083 -0.5300  1.9076
   37DOPE  H13Y 4757   4.448   3.382  14.067 -0.5483  0.3448 -0.1746
   37DOPE  C314 4758   4.611   3.284  14.170  0.3046 -0.0287 -0.5196
   37DOPE  H14X 4759   4.563   3.186  14.152  0.4734  0.0609 -1.5275
   37DOPE  H14Y 4760   4.576   3.326  14.267  2.3070  2.8468 -0.9127
   37DOPE  C315 4761   4.764   3.284  14.200  0.2834  1.0047 -0.4040
   37DOPE  H15X 4762   4.806   3.387  14.198 -0.7354  1.4423  0.0295
   37DOPE  H15Y 4763   4.813   3.228  14.117 -0.6548  1.2884 -1.1601
   37DOPE  C316 4764   4.799   3.224  14.332 -0.3125  0.1249 -0.4007
   37DOPE  H16X 4765   4.756   3.122  14.334  0.4715 -0.2283 -0.9412
   37DOPE  H16Y 4766   4.763   3.282  14.419  2.5417 -0.6959  1.4810
   37DOPE  C317 4767   4.951   3.203  14.350  0.3605 -0.4583 -0.0470
   37DOPE  H17X 4768   4.965   3.159  14.451 -1.1924  1.1181  0.9231
   37DOPE  H17Y 4769   4.983   3.130  14.272  2.2379  1.8652 -1.5757
   37DOPE  C318 4770   5.041   3.331  14.346 -0.4679  0.3046  0.3411
   37DOPE  H18X 4771   5.009   3.407  14.421 -0.5460 -0.9904  1.6793
   37DOPE  H18Y 4772   5.141   3.295  14.380  0.1056 -0.1441 -1.7124
   37DOPE  H18Z 4773   5.041   3.385  14.249 -0.6585  0.2686  0.3210
   38DOPE     N 4774   0.625   5.513  12.511  0.4257  0.1486  0.0442
   38DOPE   HN1 4775   0.719   5.480  12.481 -0.1007 -0.3265 -1.1370
   38DOPE   HN2 4776   0.604   5.437  12.578 -0.4718  0.1974 -0.1714
   38DOPE   HN3 4777   0.561   5.505  12.429 -0.4595 -0.3479  0.7647
   38DOPE   C12 4778   0.602   5.653  12.575 -0.0725  0.8590 -0.5573
   38DOPE  H12A 4779   0.629   5.734  12.504  0.1126  1.8394  0.6206
   38DOPE  H12B 4780   0.669   5.668  12.662 -0.4668 -0.6896  0.0473
   38DOPE   C11 4781   0.458   5.671  12.631  0.7611  0.0949  0.6562
   38DOPE  H11A 4782   0.446   5.756  12.701  1.8641  2.0469 -1.3915
   38DOPE  H11B 4783   0.438   5.582  12.694  1.6352 -1.4801 -1.1665
   38DOPE     P 4784   0.320   5.813  12.459  0.6634  0.4347  0.2660
   38DOPE   O13 4785   0.237   5.792  12.342 -0.2437  0.0355  0.0648
   38DOPE   O14 4786   0.433   5.906  12.444 -0.0224  0.0841  0.0522
   38DOPE   O11 4787   0.217   5.859  12.569  0.0422 -0.0629  1.0390
   38DOPE   O12 4788   0.366   5.668  12.518 -0.2154  0.0263 -0.0735
   38DOPE    C1 4789   0.189   6.001  12.569 -0.9694  0.3468  0.5642
   38DOPE    HA 4790   0.133   6.018  12.474 -1.1061  0.2563  0.6277
   38DOPE    HB 4791   0.276   6.069  12.580 -0.8996  0.3361  0.1008
   38DOPE    C2 4792   0.089   6.047  12.679  0.2537  0.0128  0.3177
   38DOPE    HS 4793   0.114   6.154  12.699  2.3636 -0.0798 -1.5053
   38DOPE   O21 4794   0.106   5.958  12.789 -0.1073  0.5136 -0.9824
   38DOPE   C21 4795   0.227   5.974  12.853  0.9621  0.3215  0.3852
   38DOPE   O22 4796   0.296   6.070  12.842 -0.5336 -0.9514  0.3538
   38DOPE   C22 4797   0.247   5.838  12.919 -0.3193 -0.5674 -0.5270
   38DOPE   H2R 4798   0.249   5.763  12.836  1.9791 -0.0373 -1.0336
   38DOPE   H2S 4799   0.174   5.818  12.999  0.1210  0.0682  0.0418
   38DOPE    C3 4800  -0.061   6.030  12.633  0.3840 -0.1070 -0.2074
   38DOPE    HX 4801  -0.078   5.929  12.590 -1.8043 -0.3621  1.1042
   38DOPE    HY 4802  -0.074   6.100  12.547  1.6559  1.4911  0.8473
   38DOPE   O31 4803  -0.163   6.048  12.738  0.3788  0.0443  1.1807
   38DOPE   C31 4804  -0.185   6.176  12.772  0.0831 -0.2591  0.2331
   38DOPE   O32 4805  -0.139   6.272  12.710  0.1645 -0.2402 -0.1838
   38DOPE   C32 4806  -0.273   6.176  12.893  0.7023 -0.7122 -0.4256
   38DOPE   H2X 4807  -0.326   6.273  12.888  2.5031  0.2806 -1.7282
   38DOPE   H2Y 4808  -0.351   6.098  12.883  0.1798 -0.3886  0.9310
   38DOPE   C23 4809   0.392   5.827  12.979 -0.2185  0.3341  0.2870
   38DOPE   H3R 4810   0.464   5.893  12.926 -1.0595  0.7164 -0.4090
   38DOPE   H3S 4811   0.431   5.723  12.977 -1.9471 -0.3704  1.0662
   38DOPE   C24 4812   0.395   5.867  13.129 -0.2762 -0.0235 -0.1023
   38DOPE   H4R 4813   0.504   5.878  13.152 -0.0432  2.4232 -1.9993
   38DOPE   H4S 4814   0.346   5.782  13.181 -1.3174  2.0539  2.5518
   38DOPE   C25 4815   0.332   5.999  13.169 -0.2498  0.0420 -0.4734
   38DOPE   H5R 4816   0.224   6.015  13.153 -0.4517 -0.5510  0.2392
   38DOPE   H5S 4817   0.387   6.071  13.105  0.5044 -0.5563 -0.5167
   38DOPE   C26 4818   0.367   6.038  13.315 -0.1496  0.0563 -0.0519
   38DOPE   H6R 4819   0.355   6.147  13.336 -0.3314 -0.0526  0.4221
   38DOPE   H6S 4820   0.476   6.020  13.327 -0.1598  0.7192  1.2212
   38DOPE   C27 4821   0.303   5.965  13.432  0.3624  0.5029 -0.3756
   38DOPE   H7R 4822   0.299   5.854  13.420 -1.1645  0.5382 -0.3683
   38DOPE   H7S 4823   0.199   6.000  13.441 -0.8353 -3.1096  2.2293
   38DOPE   C28 4824   0.367   5.999  13.566  0.1969 -0.2243 -1.0049
   38DOPE   H8R 4825   0.362   6.106  13.597  2.3466 -0.9112  2.2749
   38DOPE   H8S 4826   0.476   5.982  13.548  0.2993 -0.9841  0.2074
   38DOPE   C29 4827   0.321   5.906  13.683 -0.3820 -0.8862  0.4025
   38DOPE   H9R 4828   0.298   5.802  13.658 -1.4462 -0.5445 -0.1008
   38DOPE  C210 4829   0.290   5.940  13.811 -0.4739 -0.3737 -0.3024
   38DOPE  H10R 4830   0.252   5.865  13.881  0.0335  1.1436  1.6812
   38DOPE  C211 4831   0.299   6.073  13.878  0.3739  0.4098 -0.0171
   38DOPE  H11R 4832   0.195   6.095  13.911 -0.5340 -1.6964 -1.2767
   38DOPE  H11S 4833   0.313   6.159  13.808 -1.5720  1.2411  0.5431
   38DOPE  C212 4834   0.392   6.091  13.999  0.1754 -0.0630 -0.0091
   38DOPE  H12R 4835   0.413   6.200  14.003 -1.9864  0.3868  0.0266
   38DOPE  H12S 4836   0.487   6.034  13.984  1.4621  0.7002  3.9707
   38DOPE  C213 4837   0.330   6.037  14.132  0.9145 -0.3019 -0.4554
   38DOPE  H13R 4838   0.315   5.928  14.118 -0.4950 -0.0451 -1.0957
   38DOPE  H13S 4839   0.233   6.090  14.145 -0.2120 -2.3636 -0.0357
   38DOPE  C214 4840   0.406   6.062  14.257 -0.0662 -1.3354 -0.5679
   38DOPE  H14R 4841   0.473   6.150  14.241 -1.7731 -0.1703 -1.7471
   38DOPE  H14S 4842   0.469   5.972  14.273  3.2638  0.8250 -0.3920
   38DOPE  C215 4843   0.330   6.094  14.391 -0.3820 -0.2448 -0.2674
   38DOPE  H15R 4844   0.264   6.012  14.427 -1.1208 -0.0647 -1.1743
   38DOPE  H15S 4845   0.255   6.172  14.367 -1.9017 -1.2059  1.1642
   38DOPE  C216 4846   0.416   6.162  14.501  0.1896 -1.4881 -0.5828
   38DOPE  H16R 4847   0.419   6.272  14.495 -0.3617 -1.5596 -3.4905
   38DOPE  H16S 4848   0.519   6.122  14.484 -0.0867 -2.2184 -0.5833
   38DOPE  C217 4849   0.376   6.114  14.643  0.1849 -0.8817  0.2466
   38DOPE  H17R 4850   0.270   6.132  14.671  0.2669 -2.1229  1.4799
   38DOPE  H17S 4851   0.441   6.174  14.710 -0.4657  0.7608 -0.5476
   38DOPE  C218 4852   0.404   5.966  14.683  0.1813 -0.3609 -0.4720
   38DOPE  H18R 4853   0.361   5.932  14.779 -0.0325  1.0025 -0.0717
   38DOPE  H18S 4854   0.514   5.949  14.684  0.1541 -0.6290 -1.3617
   38DOPE  H18T 4855   0.359   5.891  14.614 -0.4448 -1.1194  0.7228
   38DOPE   C33 4856  -0.216   6.164  13.030  0.1422 -0.2363 -0.3824
   38DOPE   H3X 4857  -0.296   6.191  13.102 -0.0840 -0.6439 -0.4763
   38DOPE   H3Y 4858  -0.129   6.232  13.047 -1.9583  2.3847  0.6010
   38DOPE   C34 4859  -0.164   6.023  13.054 -0.2952 -0.4667  0.2937
   38DOPE   H4X 4860  -0.254   5.959  13.041 -1.5877  1.5847 -1.6313
   38DOPE   H4Y 4861  -0.086   6.001  12.977 -0.9976 -1.7467 -0.0751
   38DOPE   C35 4862  -0.094   6.000  13.188  0.3378 -0.2601  0.4189
   38DOPE   H5X 4863   0.002   6.056  13.190  0.5216 -0.4004 -1.8777
   38DOPE   H5Y 4864  -0.073   5.890  13.194  1.0552 -0.1494  0.0721
   38DOPE   C36 4865  -0.175   6.031  13.309 -0.4194 -0.3723 -0.0931
   38DOPE   H6X 4866  -0.270   5.975  13.293 -0.6480 -0.1394  0.4430
   38DOPE   H6Y 4867  -0.200   6.138  13.322  0.2909 -0.4156  1.9787
   38DOPE   C37 4868  -0.105   5.974  13.442 -1.0425 -0.2051 -0.2816
   38DOPE   H7X 4869  -0.107   5.863  13.438  2.2842 -0.3506 -1.0879
   38DOPE   H7Y 4870   0.001   6.008  13.437 -0.2175 -2.6620 -1.4834
   38DOPE   C38 4871  -0.170   6.035  13.565 -0.0935 -0.1445 -0.2429
   38DOPE   H8X 4872  -0.275   6.000  13.572 -0.0937 -0.9088 -3.0208
   38DOPE   H8Y 4873  -0.168   6.146  13.559 -1.4150 -0.1806 -2.2705
   38DOPE   C39 4874  -0.096   5.984  13.692 -0.0665  0.1119  0.0070
   38DOPE   H9X 4875  -0.093   5.874  13.701 -2.0409  0.0989  1.1357
   38DOPE  C310 4876  -0.056   6.064  13.791  0.6082  0.9437  0.7004
   38DOPE  H10X 4877  -0.017   6.027  13.887 -0.9375  0.1368  1.0439
   38DOPE  C311 4878  -0.055   6.212  13.803 -0.1329  0.0220  1.2574
   38DOPE  H11X 4879   0.040   6.246  13.757 -1.3604  0.6969 -0.9189
   38DOPE  H11Y 4880  -0.136   6.252  13.738  0.5143  0.1517  0.5115
   38DOPE  C312 4881  -0.085   6.278  13.939 -0.0870  0.5581  0.7388
   38DOPE  H12X 4882  -0.179   6.237  13.982  0.4448 -0.4120  0.9852
   38DOPE  H12Y 4883  -0.093   6.389  13.930  0.2768  0.5277 -0.0465
   38DOPE  C313 4884   0.023   6.245  14.048  0.6517 -0.6916  0.6015
   38DOPE  H13X 4885   0.037   6.134  14.047 -0.5544 -0.8590  0.7280
   38DOPE  H13Y 4886   0.119   6.292  14.021  0.1122 -0.2579 -0.6183
   38DOPE  C314 4887  -0.012   6.296  14.192  0.4478  0.1819  0.3180
   38DOPE  H14X 4888   0.075   6.275  14.258 -0.7544 -2.0742  1.3030
   38DOPE  H14Y 4889  -0.108   6.251  14.226  0.3307  0.1046 -0.1158
   38DOPE  C315 4890  -0.031   6.448  14.198 -0.0566  0.8793  0.1031
   38DOPE  H15X 4891  -0.117   6.488  14.141 -0.7146  2.2213  1.9410
   38DOPE  H15Y 4892   0.060   6.496  14.156 -1.3504  1.5506 -2.0774
   38DOPE  C316 4893  -0.050   6.491  14.345  0.1646 -0.5065  0.6209
   38DOPE  H16X 4894   0.039   6.461  14.404  0.0165 -1.5327  0.3378
   38DOPE  H16Y 4895  -0.140   6.444  14.388 -1.1387  0.3627 -1.0418
   38DOPE  C317 4896  -0.069   6.645  14.357  0.1396 -0.3600  0.7079
   38DOPE  H17X 4897   0.021   6.694  14.312  0.4257 -0.9465  0.6312
   38DOPE  H17Y 4898  -0.143   6.686  14.285  2.5356  0.1344 -1.6577
   38DOPE  C318 4899  -0.102   6.697  14.498  0.7758 -0.3682  0.0071
   38DOPE  H18X 4900  -0.123   6.806  14.499 -3.8943 -1.0071  2.2855
   38DOPE  H18Y 4901  -0.200   6.647  14.513  0.4913 -0.2701 -1.3949
   38DOPE  H18Z 4902  -0.033   6.671  14.581 -1.8988 -0.9434  2.2031
   39DOPE     N 4903   3.747   4.444  12.622 -0.1811  0.7191  0.3991
   39DOPE   HN1 4904   3.818   4.372  12.646 -3.0333 -1.9325  1.5138
   39DOPE   HN2 4905   3.680   4.403  12.554  0.2211  1.3693 -0.4198
   39DOPE   HN3 4906   3.799   4.525  12.580 -1.2812  1.5586  0.6041
   39DOPE   C12 4907   3.691   4.457  12.762  0.8748 -0.4556 -0.0447
   39DOPE  H12A 4908   3.615   4.538  12.766 -0.1301 -1.3987  0.7301
   39DOPE  H12B 4909   3.778   4.463  12.832 -0.4740 -1.3838  1.7993
   39DOPE   C11 4910   3.611   4.318  12.784 -0.4149  0.2938 -1.2008
   39DOPE  H11A 4911   3.560   4.332  12.881  1.8772  0.9952 -0.0422
   39DOPE  H11B 4912   3.680   4.232  12.801 -0.7584  0.1715 -0.3883
   39DOPE     P 4913   3.396   4.361  12.648  0.1983 -0.0322 -0.1943
   39DOPE   O13 4914   3.317   4.295  12.545  0.2546  0.1916  0.1622
   39DOPE   O14 4915   3.427   4.504  12.626  0.7879  0.5518 -0.0420
   39DOPE   O11 4916   3.324   4.334  12.792 -0.1642 -0.0338  0.9492
   39DOPE   O12 4917   3.530   4.282  12.670  0.5612 -0.4544  0.0279
   39DOPE    C1 4918   3.304   4.198  12.837 -0.0517 -0.1787 -0.1274
   39DOPE    HA 4919   3.399   4.140  12.836  0.1852  0.1577  1.2407
   39DOPE    HB 4920   3.226   4.131  12.794 -0.5602 -0.8870  1.7938
   39DOPE    C2 4921   3.270   4.197  12.987  0.4118  0.7006 -0.9033
   39DOPE    HS 4922   3.164   4.222  13.011  0.8678 -0.5049  3.0031
   39DOPE   O21 4923   3.353   4.293  13.056  0.2255 -0.4853 -0.5613
   39DOPE   C21 4924   3.291   4.411  13.074  0.9362 -0.1139  0.3254
   39DOPE   O22 4925   3.175   4.434  13.050 -0.1143  0.1898 -0.1390
   39DOPE   C22 4926   3.394   4.505  13.131  0.1798  0.3440  0.7095
   39DOPE   H2R 4927   3.464   4.535  13.051 -1.8909  1.7498 -0.6814
   39DOPE   H2S 4928   3.459   4.452  13.204  0.5072  0.0172  0.1888
   39DOPE    C3 4929   3.287   4.050  13.039  0.0338 -0.3606 -0.2820
   39DOPE    HX 4930   3.393   4.026  13.014  0.1398 -0.3354  0.1330
   39DOPE    HY 4931   3.225   3.980  12.978  0.9600  1.6431 -3.8425
   39DOPE   O31 4932   3.253   4.038  13.178  0.4619 -0.1453  0.2767
   39DOPE   C31 4933   3.351   4.029  13.263 -1.0001  0.3308  0.2079
   39DOPE   O32 4934   3.469   3.997  13.240  0.3065  0.0118 -0.0201
   39DOPE   C32 4935   3.295   4.054  13.403 -0.9014 -0.4385 -0.1641
   39DOPE   H2X 4936   3.267   4.159  13.423 -0.7486 -0.6727  1.4503
   39DOPE   H2Y 4937   3.204   3.992  13.413 -2.4960  2.0977  3.3905
   39DOPE   C23 4938   3.343   4.634  13.186 -0.1578  0.5634  0.5144
   39DOPE   H3R 4939   3.275   4.670  13.105  2.0941  0.5572 -1.4669
   39DOPE   H3S 4940   3.425   4.708  13.195  0.9732 -0.6890  0.7574
   39DOPE   C24 4941   3.280   4.627  13.327 -0.0936 -0.7961 -0.2893
   39DOPE   H4R 4942   3.349   4.574  13.395  1.4613  0.2758 -0.9784
   39DOPE   H4S 4943   3.182   4.574  13.320 -0.6260  0.2234 -0.8818
   39DOPE   C25 4944   3.253   4.770  13.382 -0.1853  0.4974 -0.2773
   39DOPE   H5R 4945   3.184   4.835  13.323 -2.1167  0.1531  1.4968
   39DOPE   H5S 4946   3.355   4.815  13.390 -0.8108  1.8688  0.3996
   39DOPE   C26 4947   3.192   4.755  13.526  0.2118 -0.0787 -0.1861
   39DOPE   H6R 4948   3.253   4.678  13.578  2.1278  0.3131 -1.7311
   39DOPE   H6S 4949   3.089   4.712  13.521  0.9092 -1.9761  0.7543
   39DOPE   C27 4950   3.184   4.890  13.600 -0.7413 -0.0269  0.5880
   39DOPE   H7R 4951   3.115   4.959  13.546  1.4549  1.2431 -0.7247
   39DOPE   H7S 4952   3.286   4.931  13.590 -0.9202  0.3501  0.2771
   39DOPE   C28 4953   3.136   4.871  13.750  0.4432  1.0532  0.0183
   39DOPE   H8R 4954   3.204   4.797  13.796  0.5931  1.6317  0.7410
   39DOPE   H8S 4955   3.041   4.814  13.749  1.5302 -0.8322 -0.1571
   39DOPE   C29 4956   3.138   4.992  13.832 -0.3611  0.5732 -0.7981
   39DOPE   H9R 4957   3.146   5.081  13.769 -0.5210 -0.1823 -1.9151
   39DOPE  C210 4958   3.127   5.005  13.964 -0.6085 -1.0332  0.5069
   39DOPE  H10R 4959   3.155   5.108  13.993  0.7529 -0.8037 -1.4630
   39DOPE  C211 4960   3.125   4.898  14.072  0.0863 -0.2335  0.3996
   39DOPE  H11R 4961   3.221   4.842  14.071 -1.0504 -2.2316  0.3520
   39DOPE  H11S 4962   3.049   4.821  14.051  0.1210 -0.5631  1.4274
   39DOPE  C212 4963   3.090   4.955  14.218 -0.2474  0.1125  0.1974
   39DOPE  H12R 4964   3.154   5.045  14.223  2.3048 -1.6266  1.1478
   39DOPE  H12S 4965   3.141   4.889  14.291 -1.1408 -0.5030  0.2795
   39DOPE  C213 4966   2.941   4.959  14.252  0.6513 -0.0768 -0.1452
   39DOPE  H13R 4967   2.880   4.867  14.243  1.7833 -0.7999 -0.6835
   39DOPE  H13S 4968   2.900   5.043  14.193  1.3872  1.1608  1.0431
   39DOPE  C214 4969   2.915   5.007  14.404  0.0142  0.1856 -0.5774
   39DOPE  H14R 4970   2.820   5.065  14.404 -0.2054 -0.1182 -2.6197
   39DOPE  H14S 4971   2.995   5.073  14.443 -1.2598 -0.2081  3.1903
   39DOPE  C215 4972   2.921   4.891  14.505  0.0242 -0.2083 -0.6769
   39DOPE  H15R 4973   2.996   4.824  14.459  0.2553 -0.2924 -0.1844
   39DOPE  H15S 4974   2.831   4.825  14.505  0.1299 -0.3751  0.3892
   39DOPE  C216 4975   2.963   4.931  14.642 -0.4683 -0.4601 -0.0647
   39DOPE  H16R 4976   2.895   5.013  14.673  0.4397  0.9280 -1.5801
   39DOPE  H16S 4977   3.062   4.981  14.645 -1.3186  1.2468  1.5184
   39DOPE  C217 4978   2.968   4.815  14.749  0.2128  0.6319  0.8029
   39DOPE  H17R 4979   3.039   4.738  14.712 -1.7808 -1.0134  0.2110
   39DOPE  H17S 4980   2.872   4.761  14.760  0.6742 -0.1240  1.1222
   39DOPE  C218 4981   2.993   4.867  14.893 -0.0784  0.2715 -0.0063
   39DOPE  H18R 4982   3.001   4.788  14.971 -0.2134  2.3273  2.2061
   39DOPE  H18S 4983   2.911   4.940  14.911 -0.7572 -0.5205  0.1826
   39DOPE  H18T 4984   3.088   4.925  14.898  0.3591 -0.3181 -1.2168
   39DOPE   C33 4985   3.392   4.003  13.525 -0.0802 -0.2354  0.1546
   39DOPE   H3X 4986   3.490   4.050  13.500 -1.4514  1.6381 -2.2069
   39DOPE   H3Y 4987   3.401   3.893  13.509  1.8863  0.1322 -1.7741
   39DOPE   C34 4988   3.342   4.027  13.667  0.1283  0.4685  0.7644
   39DOPE   H4X 4989   3.343   4.138  13.673 -0.6846  0.5980 -1.0240
   39DOPE   H4Y 4990   3.240   3.984  13.664  0.2294  0.2468  0.5007
   39DOPE   C35 4991   3.428   3.969  13.779  0.0168 -0.3346  0.3991
   39DOPE   H5X 4992   3.525   4.022  13.789  0.2342 -0.9018  1.4832
   39DOPE   H5Y 4993   3.438   3.861  13.756 -2.1061 -0.5998  0.5345
   39DOPE   C36 4994   3.365   3.993  13.914  0.2362  0.1183  0.0914
   39DOPE   H6X 4995   3.266   3.942  13.923  0.3834 -0.6535 -2.0839
   39DOPE   H6Y 4996   3.346   4.102  13.925 -1.1781 -0.1027  0.0521
   39DOPE   C37 4997   3.452   3.968  14.036 -0.5159 -0.1643  0.4894
   39DOPE   H7X 4998   3.488   3.863  14.037  4.0901  1.2018  0.2161
   39DOPE   H7Y 4999   3.548   4.023  14.025 -1.0203  0.1648 -4.6618
   39DOPE   C38 5000   3.372   4.003  14.166  0.0427  0.1325 -0.1826
   39DOPE   H8X 5001   3.274   3.950  14.168  0.0952  0.0449  0.0052
   39DOPE   H8Y 5002   3.349   4.112  14.173 -1.3828 -0.0919 -0.8560
   39DOPE   C39 5003   3.453   3.954  14.289  0.0154 -0.3991 -0.4667
   39DOPE   H9X 5004   3.492   3.852  14.279  4.0307  0.9419 -0.1058
   39DOPE  C310 5005   3.487   4.032  14.392  0.1477 -0.3130 -0.6351
   39DOPE  H10X 5006   3.523   3.986  14.485 -0.2392  0.0967 -0.2789
   39DOPE  C311 5007   3.448   4.175  14.418 -0.7030 -0.0755 -0.3648
   39DOPE  H11X 5008   3.464   4.231  14.323  0.8647 -0.4155 -0.3358
   39DOPE  H11Y 5009   3.343   4.189  14.451 -0.5325 -0.7036  0.4809
   39DOPE  C312 5010   3.548   4.233  14.519 -0.7476  0.1665  0.7722
   39DOPE  H12X 5011   3.580   4.330  14.475 -1.0769 -0.6309 -1.3361
   39DOPE  H12Y 5012   3.636   4.168  14.536 -2.3612 -1.8389  1.8979
   39DOPE  C313 5013   3.485   4.235  14.657  0.1661  0.5747 -0.7387
   39DOPE  H13X 5014   3.410   4.316  14.667 -0.3054  0.2080 -1.2295
   39DOPE  H13Y 5015   3.420   4.147  14.675  1.6354  0.0547  2.6417
   39DOPE  C314 5016   3.591   4.253  14.770  0.3521  0.4162 -1.1177
   39DOPE  H14X 5017   3.631   4.357  14.769  0.5486  0.3398 -1.2879
   39DOPE  H14Y 5018   3.674   4.181  14.754 -0.3701 -0.9854  0.9293
   39DOPE  C315 5019   3.532   4.224  14.913  0.0138 -0.2022  0.1785
   39DOPE  H15X 5020   3.487   4.123  14.921 -1.9885  0.5444 -1.0113
   39DOPE  H15Y 5021   3.463   4.310  14.924  1.3436  1.1599 -1.3803
   39DOPE  C316 5022   3.640   4.253  15.024 -0.3727  0.3334  0.2496
   39DOPE  H16X 5023   3.711   4.319  14.970 -1.1074 -1.1024 -2.6944
   39DOPE  H16Y 5024   3.697   4.160  15.045  1.1989  0.5002 -2.7290
   39DOPE  C317 5025   3.590   4.313  15.156 -0.4498  0.6017  0.2688
   39DOPE  H17X 5026   3.677   4.346  15.217  0.9725 -0.1981 -1.2202
   39DOPE  H17Y 5027   3.535   4.405  15.128  2.6938  2.2544 -1.0342
   39DOPE  C318 5028   3.498   4.208  15.220 -0.3832 -0.1758  0.2921
   39DOPE  H18X 5029   3.569   4.142  15.275  3.3381  2.0731 -1.3720
   39DOPE  H18Y 5030   3.428   4.258  15.290 -2.0868 -1.5072 -0.3820
   39DOPE  H18Z 5031   3.446   4.162  15.134  0.7582  1.9088 -1.6359
   40DOPE     N 5032   5.134   5.516  12.348 -0.0309  0.2732 -0.0487
   40DOPE   HN1 5033   5.175   5.503  12.442 -0.1606  2.2603  0.3122
   40DOPE   HN2 5034   5.097   5.613  12.345 -1.2908 -0.1861 -2.5741
   40DOPE   HN3 5035   5.052   5.452  12.342  1.2303 -1.8787  3.0924
   40DOPE   C12 5036   5.238   5.495  12.249 -0.1790  0.4124  1.0329
   40DOPE  H12A 5037   5.189   5.489  12.149  1.3816  0.5285  0.2244
   40DOPE  H12B 5038   5.293   5.401  12.270  1.6629  0.3515 -3.0588
   40DOPE   C11 5039   5.337   5.609  12.257  0.4186  0.0531  0.1898
   40DOPE  H11A 5040   5.292   5.710  12.247 -1.3309 -0.7803 -0.7900
   40DOPE  H11B 5041   5.411   5.593  12.176 -0.7832  0.8397 -1.1123
   40DOPE     P 5042   5.548   5.675  12.398 -0.1643  0.2600  0.0613
   40DOPE   O13 5043   5.548   5.804  12.326 -0.1482 -0.2260  0.4003
   40DOPE   O14 5044   5.648   5.579  12.350  0.1286  0.7797  0.5181
   40DOPE   O11 5045   5.566   5.699  12.552 -0.3328 -0.7425  0.0490
   40DOPE   O12 5046   5.398   5.617  12.387 -0.5148 -0.0414 -0.0447
   40DOPE    C1 5047   5.586   5.835  12.608 -0.1156  0.5095 -0.0589
   40DOPE    HA 5048   5.487   5.884  12.622 -0.4035 -0.2688  0.7019
   40DOPE    HB 5049   5.645   5.895  12.535 -0.1205 -0.0039 -0.4988
   40DOPE    C2 5050   5.651   5.828  12.745 -0.7778  0.3877  0.2514
   40DOPE    HS 5051   5.672   5.932  12.777  1.5934  0.0974 -0.1554
   40DOPE   O21 5052   5.779   5.760  12.733 -0.0795  0.0932  0.2539
   40DOPE   C21 5053   5.869   5.800  12.818  0.2631 -0.3937  0.5198
   40DOPE   O22 5054   5.866   5.898  12.890 -0.3173 -0.1227 -0.3800
   40DOPE   C22 5055   5.990   5.711  12.801  0.2264 -0.1488  0.1622
   40DOPE   H2R 5056   6.033   5.714  12.699 -0.8721 -1.6244 -0.3827
   40DOPE   H2S 5057   5.967   5.604  12.825 -1.4355  0.1195 -0.1114
   40DOPE    C3 5058   5.558   5.761  12.844 -0.1704  0.7236  0.0753
   40DOPE    HX 5059   5.558   5.650  12.838  1.1293  0.3496  3.9981
   40DOPE    HY 5060   5.451   5.788  12.830 -1.1166 -2.5900 -0.0125
   40DOPE   O31 5061   5.588   5.802  12.976  0.2916 -0.1385 -0.4432
   40DOPE   C31 5062   5.640   5.708  13.053  0.4948 -0.3488 -0.3316
   40DOPE   O32 5063   5.663   5.596  13.022 -0.1483  0.4115 -0.0751
   40DOPE   C32 5064   5.645   5.769  13.190  0.2929  0.5566  0.2025
   40DOPE   H2X 5065   5.610   5.875  13.189  0.8968  0.7621  0.3453
   40DOPE   H2Y 5066   5.571   5.704  13.240 -0.4563  1.3961  0.2252
   40DOPE   C23 5067   6.103   5.748  12.900 -0.0804 -0.5495 -0.5046
   40DOPE   H3R 5068   6.098   5.855  12.927 -1.4192 -0.2281 -1.8901
   40DOPE   H3S 5069   6.196   5.744  12.838 -0.9687 -0.5205 -1.8798
   40DOPE   C24 5070   6.115   5.655  13.017 -0.3020  0.7284 -0.8347
   40DOPE   H4R 5071   6.147   5.557  12.976 -0.5550  0.5559 -0.6246
   40DOPE   H4S 5072   6.018   5.646  13.071 -0.4042  0.5642 -1.0465
   40DOPE   C25 5073   6.209   5.702  13.121  0.0796 -0.2746  0.7789
   40DOPE   H5R 5074   6.162   5.791  13.166 -0.6458  0.1916 -0.8183
   40DOPE   H5S 5075   6.308   5.726  13.076  0.6313 -0.3421  1.9283
   40DOPE   C26 5076   6.235   5.588  13.217  0.1407 -0.1006 -0.1315
   40DOPE   H6R 5077   6.266   5.500  13.156  0.1337 -1.0206  1.1439
   40DOPE   H6S 5078   6.146   5.557  13.275 -0.9494 -0.6340 -2.0032
   40DOPE   C27 5079   6.350   5.631  13.309 -0.2968 -0.0682  0.5994
   40DOPE   H7R 5080   6.427   5.686  13.251 -1.1122 -0.3955 -0.8507
   40DOPE   H7S 5081   6.408   5.552  13.361  1.5609  1.4847  0.9974
   40DOPE   C28 5082   6.312   5.730  13.425  0.6329 -0.7172 -0.2499
   40DOPE   H8R 5083   6.238   5.805  13.389 -1.3248 -1.8905  1.1313
   40DOPE   H8S 5084   6.403   5.787  13.454  0.0260  1.0045 -1.5476
   40DOPE   C29 5085   6.247   5.649  13.535 -0.6360  0.0082 -0.4802
   40DOPE   H9R 5086   6.171   5.578  13.500 -2.3844  0.6778  1.7001
   40DOPE  C210 5087   6.286   5.632  13.663 -0.1962  0.4561 -0.7497
   40DOPE  H10R 5088   6.232   5.561  13.727  1.1379  0.5843  0.5660
   40DOPE  C211 5089   6.407   5.697  13.729  0.0089  0.8306  0.0534
   40DOPE  H11R 5090   6.438   5.775  13.657  2.7898  0.0907  0.3150
   40DOPE  H11S 5091   6.492   5.630  13.756 -1.7182 -0.9400  1.3497
   40DOPE  C212 5092   6.380   5.769  13.857  0.2971  0.3763 -1.0569
   40DOPE  H12R 5093   6.303   5.849  13.849 -1.6408 -1.3630 -0.7073
   40DOPE  H12S 5094   6.475   5.811  13.897 -0.3229  0.8641 -0.0303
   40DOPE  C213 5095   6.324   5.675  13.972 -1.0046  0.7559 -0.5180
   40DOPE  H13R 5096   6.401   5.596  13.983 -1.0493  0.4725 -2.0602
   40DOPE  H13S 5097   6.233   5.612  13.961  0.2214 -1.1253 -0.3768
   40DOPE  C214 5098   6.303   5.753  14.098 -0.5759  0.3140 -0.1941
   40DOPE  H14R 5099   6.198   5.789  14.101 -0.0568  1.8578  0.4129
   40DOPE  H14S 5100   6.361   5.847  14.105  2.3534 -1.2267 -1.7971
   40DOPE  C215 5101   6.342   5.665  14.213  0.1034  0.4620  0.0344
   40DOPE  H15R 5102   6.450   5.639  14.216 -0.1181 -0.4073  1.7858
   40DOPE  H15S 5103   6.298   5.565  14.194  0.4217  0.4967 -0.9362
   40DOPE  C216 5104   6.314   5.724  14.353  0.7518  0.2405  0.0767
   40DOPE  H16R 5105   6.205   5.721  14.376  1.0702  1.0109  1.8262
   40DOPE  H16S 5106   6.337   5.832  14.349 -3.8338  1.4032 -1.9334
   40DOPE  C217 5107   6.374   5.639  14.460  0.0262  0.3534 -0.2409
   40DOPE  H17R 5108   6.484   5.627  14.444  1.0928  1.5955  4.5694
   40DOPE  H17S 5109   6.325   5.539  14.460  1.2089 -0.2560  0.8656
   40DOPE  C218 5110   6.358   5.691  14.601 -0.1833  0.2047  0.4383
   40DOPE  H18R 5111   6.422   5.630  14.669  1.8257  1.4951 -0.2040
   40DOPE  H18S 5112   6.255   5.688  14.642  0.3152 -0.5360  1.6962
   40DOPE  H18T 5113   6.387   5.798  14.596 -2.4089  0.8257 -0.2698
   40DOPE   C33 5114   5.781   5.754  13.258  0.0495  0.2900  0.0604
   40DOPE   H3X 5115   5.858   5.807  13.198 -1.3578  1.4044 -0.8547
   40DOPE   H3Y 5116   5.809   5.646  13.254  1.6056  0.6928 -0.3332
   40DOPE   C34 5117   5.784   5.807  13.399 -0.1714 -0.6536  0.2325
   40DOPE   H4X 5118   5.747   5.912  13.402 -1.8110 -1.1254 -1.2940
   40DOPE   H4Y 5119   5.722   5.742  13.465 -3.1069  0.6221 -1.0762
   40DOPE   C35 5120   5.932   5.806  13.450  0.1441  0.2685 -0.2044
   40DOPE   H5X 5121   5.989   5.875  13.384 -2.2478  0.8459 -1.7913
   40DOPE   H5Y 5122   5.976   5.705  13.438  3.3756  1.7586 -2.2786
   40DOPE   C36 5123   5.955   5.858  13.595 -0.2251  0.8635  0.1869
   40DOPE   H6X 5124   5.914   5.961  13.605 -0.4293  0.7123  0.9514
   40DOPE   H6Y 5125   6.065   5.850  13.601 -0.2528 -0.4864 -0.6045
   40DOPE   C37 5126   5.891   5.758  13.700  0.5342 -0.0208 -0.0181
   40DOPE   H7X 5127   5.783   5.783  13.696  0.7595  1.0124  0.1468
   40DOPE   H7Y 5128   5.891   5.652  13.667 -1.6147 -0.0457 -0.0626
   40DOPE   C38 5129   5.935   5.787  13.854 -0.4522  1.3022  0.0611
   40DOPE   H8X 5130   5.918   5.894  13.875  0.9606  1.0307  3.1015
   40DOPE   H8Y 5131   6.042   5.764  13.870 -0.7906 -0.7881 -0.3475
   40DOPE   C39 5132   5.872   5.693  13.953 -0.3546  0.3053  0.1027
   40DOPE   H9X 5133   5.879   5.584  13.936 -0.0118  0.3734 -0.1918
   40DOPE  C310 5134   5.812   5.732  14.061  0.6739  0.3650  0.6778
   40DOPE  H10X 5135   5.790   5.651  14.132  0.3934 -1.2225 -1.1432
   40DOPE  C311 5136   5.781   5.865  14.123 -0.1468  0.1806 -0.3777
   40DOPE  H11X 5137   5.781   5.952  14.054 -0.1414  0.3791 -0.1278
   40DOPE  H11Y 5138   5.680   5.859  14.168  0.3394 -0.9037  0.6113
   40DOPE  C312 5139   5.876   5.898  14.240  0.1444 -0.2920  0.2337
   40DOPE  H12X 5140   5.850   5.997  14.284  1.3409  0.4350 -0.6450
   40DOPE  H12Y 5141   5.983   5.895  14.209  0.5277 -1.2663  1.5715
   40DOPE  C313 5142   5.853   5.811  14.363  0.7204  0.3918 -0.5557
   40DOPE  H13X 5143   5.748   5.795  14.393  0.9375 -1.8561 -0.8396
   40DOPE  H13Y 5144   5.889   5.710  14.333  2.2014  0.9512 -0.7228
   40DOPE  C314 5145   5.918   5.858  14.489 -0.5117  0.0826  0.2800
   40DOPE  H14X 5146   6.022   5.871  14.451 -0.6616 -2.1426 -1.0865
   40DOPE  H14Y 5147   5.901   5.775  14.561 -1.7905 -0.8359 -1.0262
   40DOPE  C315 5148   5.866   5.984  14.557  0.5871  0.6583  0.3154
   40DOPE  H15X 5149   5.760   5.968  14.586  0.7533  0.6958  0.9480
   40DOPE  H15Y 5150   5.872   6.071  14.487 -1.3048  0.0651 -0.6601
   40DOPE  C316 5151   5.939   6.027  14.688  0.1217  0.7920  0.5260
   40DOPE  H16X 5152   5.938   6.137  14.702  0.0780  1.0762 -1.5270
   40DOPE  H16Y 5153   6.048   6.005  14.684  0.2506  1.5398 -0.2767
   40DOPE  C317 5154   5.895   5.957  14.812 -0.5562 -0.1933  0.0978
   40DOPE  H17X 5155   5.792   5.995  14.827 -0.3736  0.2214  0.2943
   40DOPE  H17Y 5156   5.884   5.847  14.799  1.5185 -0.4938  0.5199
   40DOPE  C318 5157   5.969   5.997  14.935  0.1180  0.0301 -0.4062
   40DOPE  H18X 5158   5.923   5.947  15.023  0.5060 -0.8968 -0.7242
   40DOPE  H18Y 5159   6.077   5.968  14.934  0.8640  2.5367  0.0754
   40DOPE  H18Z 5160   5.958   6.106  14.957  0.4424 -0.1232  0.5907
   41DOPE     N 5161   3.606   5.996  13.035  0.2362  0.0030  0.0497
   41DOPE   HN1 5162   3.547   5.987  12.951  0.3136 -1.4825  0.1257
   41DOPE   HN2 5163   3.557   6.039  13.116  0.1879 -0.8749  0.4998
   41DOPE   HN3 5164   3.690   6.054  13.014 -1.3477  2.6553  0.5858
   41DOPE   C12 5165   3.645   5.863  13.094 -0.3111 -0.5211  0.0350
   41DOPE  H12A 5166   3.725   5.881  13.169  1.9348 -0.6443 -2.2093
   41DOPE  H12B 5167   3.693   5.806  13.012 -0.9395  1.4151 -1.7886
   41DOPE   C11 5168   3.532   5.771  13.149 -0.0568  0.0562  0.1656
   41DOPE  H11A 5169   3.455   5.827  13.206 -0.4777 -1.0168  0.6799
   41DOPE  H11B 5170   3.577   5.689  13.209 -0.8072 -1.3432 -1.1325
   41DOPE     P 5171   3.470   5.552  13.004 -0.1136  0.1005  0.4369
   41DOPE   O13 5172   3.577   5.479  13.074  0.1703 -0.0974  1.0450
   41DOPE   O14 5173   3.488   5.541  12.859  0.3977 -0.1503  0.2171
   41DOPE   O11 5174   3.331   5.489  13.038  0.2101 -0.1492  0.0178
   41DOPE   O12 5175   3.466   5.704  13.046 -0.4169  0.0850  1.1539
   41DOPE    C1 5176   3.225   5.565  13.100  0.9241 -0.8946 -0.6727
   41DOPE    HA 5177   3.129   5.509  13.099 -0.8671  1.9850 -0.4174
   41DOPE    HB 5178   3.212   5.658  13.042  3.0658 -0.5804 -0.7255
   41DOPE    C2 5179   3.248   5.589  13.254  0.1679 -0.2201  0.6563
   41DOPE    HS 5180   3.345   5.643  13.258  0.3355 -0.5840  1.5858
   41DOPE   O21 5181   3.260   5.461  13.329 -0.4579 -0.0533 -0.2605
   41DOPE   C21 5182   3.374   5.450  13.386 -0.5734  0.1339 -0.3674
   41DOPE   O22 5183   3.460   5.536  13.404  0.2229  0.1061  0.2512
   41DOPE   C22 5184   3.379   5.297  13.430  0.1881 -0.1681  0.0300
   41DOPE   H2R 5185   3.397   5.236  13.339  0.7236 -1.0877  0.7357
   41DOPE   H2S 5186   3.279   5.270  13.469 -0.9914  2.5792 -0.8571
   41DOPE    C3 5187   3.142   5.690  13.309 -0.2030 -0.0441 -0.0097
   41DOPE    HX 5188   3.038   5.651  13.313  0.0818 -1.4979 -3.2547
   41DOPE    HY 5189   3.134   5.779  13.244 -0.6434  0.0561  0.1788
   41DOPE   O31 5190   3.208   5.746  13.421  0.3497  0.0790  0.7234
   41DOPE   C31 5191   3.161   5.702  13.545 -0.0803 -0.2719  0.7403
   41DOPE   O32 5192   3.052   5.650  13.564 -0.5498  0.2458 -0.0814
   41DOPE   C32 5193   3.270   5.729  13.650  0.6882 -0.6181 -0.0149
   41DOPE   H2X 5194   3.367   5.692  13.611  0.4769  1.4139 -2.7630
   41DOPE   H2Y 5195   3.282   5.837  13.669 -2.2204 -0.6526  3.0973
   41DOPE   C23 5196   3.511   5.260  13.515  0.7952  0.0064 -0.3463
   41DOPE   H3R 5197   3.605   5.304  13.476  2.2655 -0.1441  2.7017
   41DOPE   H3S 5198   3.511   5.150  13.501 -1.6610  0.1590 -2.1975
   41DOPE   C24 5199   3.498   5.301  13.666 -0.3951 -0.2222  0.2486
   41DOPE   H4R 5200   3.496   5.412  13.663 -0.6279 -0.2542 -1.7537
   41DOPE   H4S 5201   3.590   5.264  13.715 -0.3416 -0.1992  0.1658
   41DOPE   C25 5202   3.383   5.242  13.740 -0.7999  0.2026 -0.7398
   41DOPE   H5R 5203   3.399   5.132  13.745  0.8068  0.4518  0.0311
   41DOPE   H5S 5204   3.285   5.256  13.689 -0.6272  1.6216 -0.7258
   41DOPE   C26 5205   3.371   5.294  13.887  0.3888 -0.0240  0.5190
   41DOPE   H6R 5206   3.278   5.254  13.934  1.0132 -1.6488  0.4367
   41DOPE   H6S 5207   3.366   5.405  13.891  1.3311  0.0128  3.7943
   41DOPE   C27 5208   3.481   5.242  13.979 -0.1208  0.1056 -0.7593
   41DOPE   H7R 5209   3.577   5.286  13.946  1.2013  0.2528  2.8866
   41DOPE   H7S 5210   3.498   5.134  13.961 -3.5927 -0.5245 -0.9062
   41DOPE   C28 5211   3.457   5.262  14.128  0.6762 -0.1391 -0.7918
   41DOPE   H8R 5212   3.358   5.311  14.138  0.8566  0.9724 -3.6582
   41DOPE   H8S 5213   3.535   5.336  14.157  0.0350  0.2547 -0.0275
   41DOPE   C29 5214   3.458   5.137  14.217 -0.4435  0.2281  1.3318
   41DOPE   H9R 5215   3.439   5.042  14.164 -0.9248  0.4458  1.1090
   41DOPE  C210 5216   3.507   5.128  14.343 -0.1303 -0.0456  0.1735
   41DOPE  H10R 5217   3.516   5.025  14.381 -0.3274 -0.4725 -0.8798
   41DOPE  C211 5218   3.558   5.240  14.432 -0.2944 -0.0974 -0.0112
   41DOPE  H11R 5219   3.588   5.321  14.362 -3.6454  1.1771 -0.1797
   41DOPE  H11S 5220   3.644   5.216  14.499 -0.0863 -1.4791 -0.7251
   41DOPE  C212 5221   3.436   5.300  14.516 -0.3374 -0.0322  0.3164
   41DOPE  H12R 5222   3.355   5.321  14.443  1.6337  0.8225 -1.7442
   41DOPE  H12S 5223   3.470   5.397  14.559  0.1522  0.0186 -0.1754
   41DOPE  C213 5224   3.382   5.213  14.630  1.2146 -0.3036  0.5162
   41DOPE  H13R 5225   3.344   5.110  14.614 -0.2283  0.3444 -0.5193
   41DOPE  H13S 5226   3.301   5.273  14.676  0.1916 -0.0690 -1.4673
   41DOPE  C214 5227   3.476   5.198  14.749 -0.5628 -0.2354 -0.0532
   41DOPE  H14R 5228   3.527   5.292  14.780 -1.4057 -0.3943  1.9978
   41DOPE  H14S 5229   3.556   5.130  14.713 -0.1849 -0.1871  0.6831
   41DOPE  C215 5230   3.410   5.128  14.867  0.0711  0.0329  0.7541
   41DOPE  H15R 5231   3.489   5.067  14.915 -0.0068 -1.2128 -0.6390
   41DOPE  H15S 5232   3.340   5.054  14.823  2.4694 -0.2224 -3.0725
   41DOPE  C216 5233   3.323   5.217  14.963 -0.4236 -0.2182  0.2681
   41DOPE  H16R 5234   3.250   5.271  14.899  0.5854  1.3228  0.3500
   41DOPE  H16S 5235   3.381   5.291  15.022 -0.6148 -0.8266  1.2345
   41DOPE  C217 5236   3.226   5.148  15.063  0.4563 -0.1151  0.2661
   41DOPE  H17R 5237   3.149   5.087  15.012  2.1101 -1.1285 -1.1251
   41DOPE  H17S 5238   3.163   5.218  15.121  1.9807  0.6182  1.1055
   41DOPE  C218 5239   3.297   5.057  15.165  0.0331 -0.4752  0.8757
   41DOPE  H18R 5240   3.356   4.971  15.128  1.0018 -0.4531  2.3025
   41DOPE  H18S 5241   3.226   5.015  15.239  1.4662 -0.6060  2.2361
   41DOPE  H18T 5242   3.371   5.123  15.214 -1.2367 -0.4415  2.8696
   41DOPE   C33 5243   3.236   5.668  13.787 -0.3914  0.7719 -0.6335
   41DOPE   H3X 5244   3.223   5.558  13.774 -0.7172  0.8037 -0.5727
   41DOPE   H3Y 5245   3.151   5.712  13.842 -0.1079  0.5211  0.0245
   41DOPE   C34 5246   3.347   5.694  13.885 -0.3479 -1.1821 -0.0590
   41DOPE   H4X 5247   3.442   5.663  13.836  2.0180  1.4737  2.4500
   41DOPE   H4Y 5248   3.364   5.802  13.902  1.8950 -1.8538  2.6570
   41DOPE   C35 5249   3.320   5.643  14.027 -0.6449  0.4250 -0.2916
   41DOPE   H5X 5250   3.272   5.543  14.023 -1.2473  0.6073  1.4570
   41DOPE   H5Y 5251   3.239   5.708  14.065 -0.3151  0.8565 -0.3151
   41DOPE   C36 5252   3.439   5.649  14.133 -0.4673 -0.0629  0.2927
   41DOPE   H6X 5253   3.478   5.754  14.134  0.7396 -0.4518 -1.5466
   41DOPE   H6Y 5254   3.524   5.587  14.096 -0.5326  1.3763 -2.5271
   41DOPE   C37 5255   3.394   5.607  14.273  0.1831  0.6696 -0.3036
   41DOPE   H7X 5256   3.292   5.650  14.281 -0.1141  0.0248 -0.5501
   41DOPE   H7Y 5257   3.384   5.496  14.267 -1.6103  0.8495 -1.0753
   41DOPE   C38 5258   3.485   5.656  14.389 -0.8217  0.7526 -0.2947
   41DOPE   H8X 5259   3.588   5.638  14.351  0.2419 -0.2251  2.7803
   41DOPE   H8Y 5260   3.490   5.589  14.477  0.9700  0.5903 -0.4886
   41DOPE   C39 5261   3.461   5.795  14.427  0.2073 -0.3605  0.1063
   41DOPE   H9X 5262   3.536   5.866  14.389  1.0263 -2.0435 -1.6320
   41DOPE  C310 5263   3.361   5.846  14.500  0.2066  0.7435  0.2866
   41DOPE  H10X 5264   3.356   5.955  14.514  1.4320  1.2014 -2.1821
   41DOPE  C311 5265   3.242   5.780  14.559  0.4210  0.0280  0.2856
   41DOPE  H11X 5266   3.167   5.763  14.479  0.1136  3.1954 -0.2074
   41DOPE  H11Y 5267   3.263   5.680  14.602 -0.8268  0.1649  1.2453
   41DOPE  C312 5268   3.172   5.856  14.672 -0.5963 -0.3083  0.0896
   41DOPE  H12X 5269   3.077   5.806  14.701 -0.5018  0.3788  1.6925
   41DOPE  H12Y 5270   3.138   5.953  14.631 -0.0374  0.2570  0.9303
   41DOPE  C313 5271   3.259   5.892  14.795 -0.1337  0.4782 -0.0406
   41DOPE  H13X 5272   3.310   5.797  14.821  0.2554  0.1530 -1.8258
   41DOPE  H13Y 5273   3.336   5.962  14.756  1.0594 -0.5866  0.3686
   41DOPE  C314 5274   3.182   5.949  14.913 -0.1067 -0.4495  0.5639
   41DOPE  H14X 5275   3.122   5.864  14.954 -1.1342 -0.5438 -1.0351
   41DOPE  H14Y 5276   3.113   6.027  14.874  0.2660 -0.6024 -0.4185
   41DOPE  C315 5277   3.272   6.009  15.030 -0.0098  0.1647 -0.3285
   41DOPE  H15X 5278   3.342   6.087  14.993 -0.9502  0.0902 -2.4111
   41DOPE  H15Y 5279   3.324   5.920  15.072  0.7912  1.4178  1.4860
   41DOPE  C316 5280   3.186   6.081  15.139  0.1504  0.5262  0.6027
   41DOPE  H16X 5281   3.115   6.014  15.192  1.1163  0.3869  1.7502
   41DOPE  H16Y 5282   3.129   6.169  15.100  1.0077  1.4168  1.3051
   41DOPE  C317 5283   3.280   6.142  15.246  0.5416  0.2912  0.0866
   41DOPE  H17X 5284   3.223   6.187  15.331 -0.9846  0.5236 -1.0124
   41DOPE  H17Y 5285   3.332   6.052  15.285 -0.6611  0.1362  1.4226
   41DOPE  C318 5286   3.386   6.244  15.200 -0.4706 -0.3465 -0.6472
   41DOPE  H18X 5287   3.454   6.209  15.120  1.6170 -0.6203  1.1315
   41DOPE  H18Y 5288   3.344   6.339  15.161  0.6113  0.4345  0.0204
   41DOPE  H18Z 5289   3.457   6.251  15.286  1.1942  1.5911 -2.0634
   42DOPE     N 5290   3.797   5.358  13.150 -0.1279 -0.1358  0.0745
   42DOPE   HN1 5291   3.775   5.256  13.156 -0.7497  0.0686  3.1782
   42DOPE   HN2 5292   3.713   5.408  13.116  0.1327 -0.5422 -1.2042
   42DOPE   HN3 5293   3.880   5.368  13.088  0.9530 -0.5590  1.3836
   42DOPE   C12 5294   3.820   5.408  13.291  0.4353  0.8624  0.0206
   42DOPE  H12A 5295   3.718   5.441  13.321 -0.5687 -2.2528  0.3775
   42DOPE  H12B 5296   3.894   5.490  13.296 -0.5935  1.7880  0.6232
   42DOPE   C11 5297   3.863   5.298  13.391 -0.3709  0.0143 -0.2835
   42DOPE  H11A 5298   3.784   5.220  13.389 -1.5686  1.2040 -0.9248
   42DOPE  H11B 5299   3.881   5.341  13.492 -0.1682 -1.0770  0.1514
   42DOPE     P 5300   4.007   5.096  13.281  0.3257 -0.2734 -0.0474
   42DOPE   O13 5301   4.145   5.070  13.252 -0.0844 -0.2513  0.0945
   42DOPE   O14 5302   3.912   5.088  13.165 -0.0777  0.6552  0.3315
   42DOPE   O11 5303   3.967   4.994  13.397 -0.3707 -0.4511 -0.1631
   42DOPE   O12 5304   3.986   5.240  13.350 -0.3483  0.1851 -0.2106
   42DOPE    C1 5305   4.022   5.005  13.523  0.1155  0.1274 -0.5617
   42DOPE    HA 5306   4.065   5.105  13.546  1.2713  0.0874 -2.3407
   42DOPE    HB 5307   4.110   4.938  13.537  0.7164  0.7132 -1.4075
   42DOPE    C2 5308   3.909   4.976  13.620  0.2255  0.2011  0.1022
   42DOPE    HS 5309   3.839   5.061  13.601  2.0183  1.6072 -0.5355
   42DOPE   O21 5310   3.977   4.971  13.746 -0.2777 -0.0796 -0.1887
   42DOPE   C21 5311   3.916   5.029  13.845  0.5540  0.5589  0.6910
   42DOPE   O22 5312   3.808   5.087  13.838  0.1076  0.3815 -0.2831
   42DOPE   C22 5313   3.994   5.013  13.976 -0.0868 -0.9267  0.3142
   42DOPE   H2R 5314   4.041   5.113  13.986 -0.9149 -0.1582 -2.4077
   42DOPE   H2S 5315   4.076   4.938  13.963 -2.0764 -3.1319 -0.1182
   42DOPE    C3 5316   3.827   4.843  13.586  0.7017  0.8715 -0.5086
   42DOPE    HX 5317   3.908   4.768  13.571  2.0112  1.7127  1.8567
   42DOPE    HY 5318   3.770   4.858  13.492 -0.3313 -0.4116 -0.1314
   42DOPE   O31 5319   3.746   4.797  13.699  0.5216  0.2376  0.2617
   42DOPE   C31 5320   3.616   4.828  13.690  0.0366 -0.5761  0.3917
   42DOPE   O32 5321   3.570   4.902  13.607 -0.1970  0.4967  0.3394
   42DOPE   C32 5322   3.530   4.762  13.799 -0.3473 -0.7958 -0.1569
   42DOPE   H2X 5323   3.423   4.789  13.787 -0.0880  0.4929  0.2467
   42DOPE   H2Y 5324   3.539   4.652  13.787  0.2152 -0.7486 -0.1876
   42DOPE   C23 5325   3.907   4.989  14.103 -0.6242 -0.1759  0.5061
   42DOPE   H3R 5326   3.846   4.897  14.091 -0.4517 -0.1275 -0.9671
   42DOPE   H3S 5327   3.839   5.076  14.110  0.2005  0.4757  0.5868
   42DOPE   C24 5328   3.982   4.972  14.240  0.3254  0.1948 -0.1045
   42DOPE   H4R 5329   4.029   5.069  14.267  0.4997  0.8826 -2.5821
   42DOPE   H4S 5330   4.062   4.896  14.229  0.5842  0.3390  0.7317
   42DOPE   C25 5331   3.873   4.945  14.346 -0.6336 -0.3458 -0.6260
   42DOPE   H5R 5332   3.808   4.860  14.317 -1.9260  0.7470 -1.0062
   42DOPE   H5S 5333   3.803   5.031  14.353 -0.1350  0.1567 -1.5742
   42DOPE   C26 5334   3.942   4.920  14.478  0.4874  0.8652 -0.6731
   42DOPE   H6R 5335   4.013   5.005  14.494 -1.5400  2.4152  0.5956
   42DOPE   H6S 5336   4.001   4.826  14.476  1.2954  1.3344  0.3445
   42DOPE   C27 5337   3.840   4.903  14.594 -0.4477  0.0510 -0.3427
   42DOPE   H7R 5338   3.782   4.809  14.576  0.9794 -1.1096  0.8815
   42DOPE   H7S 5339   3.761   4.981  14.585 -1.6227 -1.0635 -0.1353
   42DOPE   C28 5340   3.885   4.916  14.744 -0.7704  0.6072 -0.2997
   42DOPE   H8R 5341   3.902   5.024  14.764  0.8150  0.2122  0.6638
   42DOPE   H8S 5342   3.990   4.880  14.752 -1.5912 -1.6403  1.4690
   42DOPE   C29 5343   3.794   4.849  14.845  0.3883  0.0509 -0.3948
   42DOPE   H9R 5344   3.693   4.892  14.842  0.1469 -0.3813  0.9080
   42DOPE  C210 5345   3.819   4.730  14.913 -0.0237 -0.7072  0.6691
   42DOPE  H10R 5346   3.747   4.688  14.984 -0.2032 -1.1539  0.2332
   42DOPE  C211 5347   3.939   4.643  14.891 -0.2601 -0.0912  0.4515
   42DOPE  H11R 5348   4.009   4.678  14.812 -2.3205 -0.4918 -1.6438
   42DOPE  H11S 5349   3.912   4.544  14.848  1.3181  1.3299 -4.3741
   42DOPE  C212 5350   4.028   4.625  15.015 -0.1173  0.5664  0.3962
   42DOPE  H12R 5351   4.122   4.575  14.986 -0.3578 -0.1062  0.7657
   42DOPE  H12S 5352   3.977   4.558  15.087  1.0037 -1.0650 -0.2844
   42DOPE  C213 5353   4.054   4.760  15.082 -0.0253  0.3166 -0.3665
   42DOPE  H13R 5354   3.960   4.785  15.136  0.7575 -0.2536  1.3532
   42DOPE  H13S 5355   4.079   4.832  15.001 -0.2924 -1.1680 -1.8026
   42DOPE  C214 5356   4.156   4.756  15.197  0.7078  0.1943  1.0810
   42DOPE  H14R 5357   4.253   4.783  15.150 -1.1639  1.8552 -2.1619
   42DOPE  H14S 5358   4.163   4.654  15.239 -1.7917  0.6610  2.8768
   42DOPE  C215 5359   4.135   4.850  15.318  0.0589 -0.1986  0.3142
   42DOPE  H15R 5360   4.037   4.826  15.364 -0.6949  1.1308 -0.5362
   42DOPE  H15S 5361   4.118   4.947  15.267 -2.3737 -1.6459 -1.8708
   42DOPE  C216 5362   4.253   4.848  15.412  0.4425 -0.3530 -0.5481
   42DOPE  H16R 5363   4.337   4.878  15.345 -0.6719  1.1661 -1.3397
   42DOPE  H16S 5364   4.279   4.743  15.435  1.8263 -0.4831 -2.4552
   42DOPE  C217 5365   4.238   4.937  15.534 -0.6196  0.3780 -0.6270
   42DOPE  H17R 5366   4.142   4.906  15.578  0.7526 -3.6349 -0.0280
   42DOPE  H17S 5367   4.235   5.041  15.495  1.0919 -0.2768 -2.7517
   42DOPE  C218 5368   4.355   4.918  15.626 -0.5756 -0.2754 -0.4972
   42DOPE  H18R 5369   4.450   4.954  15.581 -0.7686  0.9848  0.0721
   42DOPE  H18S 5370   4.362   4.809  15.649  0.4407 -0.5771 -2.0578
   42DOPE  H18T 5371   4.333   4.973  15.720  0.9936 -0.8170  0.2287
   42DOPE   C33 5372   3.593   4.807  13.934 -0.0008  0.6142 -0.3249
   42DOPE   H3X 5373   3.577   4.916  13.952  0.0803  0.5014  0.4500
   42DOPE   H3Y 5374   3.702   4.785  13.943 -0.3746 -0.8093  1.1888
   42DOPE   C34 5375   3.526   4.729  14.038 -0.3439 -0.1168 -0.2047
   42DOPE   H4X 5376   3.416   4.743  14.032 -0.0658  2.0079 -1.3007
   42DOPE   H4Y 5377   3.541   4.620  14.023  0.6693 -0.4604  2.5626
   42DOPE   C35 5378   3.575   4.751  14.185 -1.1411 -0.2166  0.2329
   42DOPE   H5X 5379   3.594   4.857  14.215 -0.5580  0.4558 -2.2774
   42DOPE   H5Y 5380   3.674   4.702  14.197 -1.3936 -1.3155 -1.7450
   42DOPE   C36 5381   3.475   4.697  14.289  0.0922 -0.3255  0.6490
   42DOPE   H6X 5382   3.438   4.597  14.256  0.9281 -0.4579  0.0876
   42DOPE   H6Y 5383   3.395   4.773  14.275 -0.4655 -1.0238 -0.1195
   42DOPE   C37 5384   3.524   4.670  14.432 -0.7471 -0.2146  0.2245
   42DOPE   H7X 5385   3.604   4.593  14.426  1.1355  1.6475 -0.0594
   42DOPE   H7Y 5386   3.569   4.760  14.479  1.1923 -0.9893 -0.0294
   42DOPE   C38 5387   3.420   4.616  14.528  0.4581  0.8020 -0.1153
   42DOPE   H8X 5388   3.470   4.560  14.610  0.2385 -1.1059 -1.2449
   42DOPE   H8Y 5389   3.360   4.543  14.469 -1.3591  1.2471  1.0879
   42DOPE   C39 5390   3.330   4.724  14.572  0.5422  0.4183  0.4379
   42DOPE   H9X 5391   3.262   4.765  14.496  1.0741  0.7705  0.1460
   42DOPE  C310 5392   3.339   4.785  14.687  0.2011 -0.4195 -0.2507
   42DOPE  H10X 5393   3.256   4.855  14.703 -1.3765 -2.0933 -0.6859
   42DOPE  C311 5394   3.418   4.755  14.805 -0.1915  0.4235 -0.1566
   42DOPE  H11X 5395   3.493   4.677  14.781  0.8173  1.5366 -0.7108
   42DOPE  H11Y 5396   3.476   4.847  14.826 -2.0686  1.6312 -0.0336
   42DOPE  C312 5397   3.338   4.703  14.925 -0.9433  0.0053  0.5888
   42DOPE  H12X 5398   3.280   4.614  14.893  1.0364 -1.7880  1.7599
   42DOPE  H12Y 5399   3.267   4.781  14.960 -1.8226 -1.2004  1.5509
   42DOPE  C313 5400   3.427   4.677  15.042  0.2547  0.4108 -0.7095
   42DOPE  H13X 5401   3.486   4.592  15.001 -1.0615 -0.2882 -1.2012
   42DOPE  H13Y 5402   3.486   4.772  15.045  2.4730 -0.9262  0.5026
   42DOPE  C314 5403   3.360   4.643  15.177  0.2480 -0.6243  0.1593
   42DOPE  H14X 5404   3.340   4.534  15.183 -0.5899 -0.4240  1.5471
   42DOPE  H14Y 5405   3.263   4.698  15.180  1.5644  1.8490 -0.3258
   42DOPE  C315 5406   3.450   4.686  15.294 -0.3273 -0.3923 -0.2290
   42DOPE  H15X 5407   3.481   4.792  15.283  1.8321 -0.7351  1.7382
   42DOPE  H15Y 5408   3.540   4.621  15.286  1.2900  1.5297  1.2322
   42DOPE  C316 5409   3.391   4.663  15.427  0.4060 -0.3845 -0.3236
   42DOPE  H16X 5410   3.320   4.747  15.441 -0.6579 -1.2890 -0.1766
   42DOPE  H16Y 5411   3.471   4.688  15.499 -0.9130  0.7291  0.8125
   42DOPE  C317 5412   3.326   4.526  15.462 -0.1482  0.0354  0.1686
   42DOPE  H17X 5413   3.223   4.538  15.421  0.3495  0.2835 -1.0572
   42DOPE  H17Y 5414   3.361   4.436  15.407  0.4368  1.0800 -1.2404
   42DOPE  C318 5415   3.327   4.487  15.613  0.3550 -0.9552  0.1701
   42DOPE  H18X 5416   3.278   4.390  15.636  1.8495 -1.5277  1.0523
   42DOPE  H18Y 5417   3.430   4.487  15.653 -0.0984 -1.2948  1.3692
   42DOPE  H18Z 5418   3.275   4.575  15.655  2.2764  0.1911  0.2449
   43DOPE     N 5419   2.033   4.246  13.074 -0.2772  0.6650  0.1291
   43DOPE   HN1 5420   2.025   4.228  13.176 -2.1473  0.4651 -0.0058
   43DOPE   HN2 5421   2.048   4.347  13.058  1.0386  0.5436  0.5363
   43DOPE   HN3 5422   1.944   4.217  13.027 -0.4451  1.3681 -0.0003
   43DOPE   C12 5423   2.153   4.165  13.016  0.2823 -0.6987 -0.2219
   43DOPE  H12A 5424   2.246   4.202  13.065  0.5108 -0.6826 -0.6715
   43DOPE  H12B 5425   2.160   4.204  12.912 -0.4597  3.0516  0.9470
   43DOPE   C11 5426   2.152   4.019  13.038 -0.5101 -0.0699 -0.1247
   43DOPE  H11A 5427   2.243   3.978  12.990 -1.1025 -2.1739  0.4517
   43DOPE  H11B 5428   2.068   3.961  12.995 -0.7958 -0.2125  0.6188
   43DOPE     P 5429   2.125   3.849  13.240  0.0514  0.1995  0.1719
   43DOPE   O13 5430   2.181   3.743  13.153 -0.2071 -0.8196 -0.0659
   43DOPE   O14 5431   1.981   3.836  13.265 -0.3698 -0.0558  0.5057
   43DOPE   O11 5432   2.195   3.848  13.383 -0.0581 -0.5207  0.0502
   43DOPE   O12 5433   2.153   3.997  13.181  0.5379  0.2348  0.0426
   43DOPE    C1 5434   2.270   3.950  13.449  0.4489  0.0269 -0.6971
   43DOPE    HA 5435   2.346   3.996  13.382  2.2836  0.4956  1.5982
   43DOPE    HB 5436   2.322   3.905  13.536 -1.5790 -0.1361  0.4949
   43DOPE    C2 5437   2.191   4.055  13.525  0.3152 -0.3375 -0.3197
   43DOPE    HS 5438   2.268   4.104  13.588 -0.2431  0.5065 -0.2813
   43DOPE   O21 5439   2.086   3.985  13.593 -1.0336  0.5133 -0.0530
   43DOPE   C21 5440   2.121   3.939  13.712  0.0024  0.1127 -0.0349
   43DOPE   O22 5441   2.234   3.950  13.762  0.4183 -0.6420 -0.0476
   43DOPE   C22 5442   1.992   3.886  13.784 -0.6255  0.0547 -0.2429
   43DOPE   H2R 5443   1.970   3.792  13.729 -0.6304  0.5957 -1.1754
   43DOPE   H2S 5444   1.909   3.960  13.777 -2.2687 -1.8200 -2.4962
   43DOPE    C3 5445   2.133   4.172  13.438 -0.0257  0.0665  0.4274
   43DOPE    HX 5446   2.058   4.120  13.374 -0.0745 -1.0883  1.3859
   43DOPE    HY 5447   2.215   4.197  13.366 -0.5545 -0.4934 -0.3914
   43DOPE   O31 5448   2.085   4.282  13.511 -0.3162 -0.5293  0.2719
   43DOPE   C31 5449   2.009   4.366  13.440 -0.3620 -0.0019 -0.0577
   43DOPE   O32 5450   2.015   4.372  13.322 -0.1003 -0.3731  0.5542
   43DOPE   C32 5451   1.910   4.442  13.526  0.0401 -0.6382 -0.0350
   43DOPE   H2X 5452   1.951   4.530  13.578  0.2861 -0.4560 -0.5285
   43DOPE   H2Y 5453   1.832   4.474  13.453 -0.2481  0.5192  0.7512
   43DOPE   C23 5454   2.021   3.838  13.931  0.3621  0.1065 -0.1216
   43DOPE   H3R 5455   2.104   3.895  13.979 -0.6131  0.5578  1.0700
   43DOPE   H3S 5456   2.057   3.733  13.922 -1.4653 -0.4528 -1.5655
   43DOPE   C24 5457   1.894   3.836  14.020 -0.6133  0.1885 -0.5769
   43DOPE   H4R 5458   1.807   3.790  13.969 -0.0998  0.2700 -1.5364
   43DOPE   H4S 5459   1.865   3.943  14.035 -0.1479 -0.1165  3.8193
   43DOPE   C25 5460   1.909   3.764  14.153  0.0668 -1.1005 -0.2012
   43DOPE   H5R 5461   2.001   3.792  14.208 -2.5389 -0.0630  4.1488
   43DOPE   H5S 5462   1.908   3.655  14.130  0.7625 -1.0722 -0.3609
   43DOPE   C26 5463   1.789   3.789  14.245 -0.3633 -0.0802  0.0135
   43DOPE   H6R 5464   1.703   3.734  14.200 -0.6886 -0.5976  1.2227
   43DOPE   H6S 5465   1.761   3.896  14.251  1.5086  0.4330  0.2841
   43DOPE   C27 5466   1.826   3.743  14.387  0.3875  0.5401 -0.6835
   43DOPE   H7R 5467   1.919   3.791  14.425 -0.0109 -0.8171  2.3550
   43DOPE   H7S 5468   1.857   3.639  14.365 -0.5440 -0.5056  2.3514
   43DOPE   C28 5469   1.711   3.762  14.494  0.5562  0.1905  1.0043
   43DOPE   H8R 5470   1.704   3.873  14.505 -1.3829  0.4184 -1.7715
   43DOPE   H8S 5471   1.744   3.717  14.590 -1.1289 -2.7501  0.3052
   43DOPE   C29 5472   1.581   3.692  14.445 -0.4027 -1.0271 -0.5723
   43DOPE   H9R 5473   1.545   3.751  14.359  2.2789  0.5925 -0.7122
   43DOPE  C210 5474   1.509   3.598  14.505  0.2016  0.2792 -0.0424
   43DOPE  H10R 5475   1.404   3.580  14.478 -0.2516 -0.2585  1.9077
   43DOPE  C211 5476   1.535   3.524  14.630 -0.3306 -0.6250 -0.0268
   43DOPE  H11R 5477   1.639   3.547  14.659 -0.8476  0.4015  1.0967
   43DOPE  H11S 5478   1.544   3.415  14.608  2.4824 -1.0290  2.5274
   43DOPE  C212 5479   1.441   3.558  14.746  0.0092 -0.2847 -0.4934
   43DOPE  H12R 5480   1.355   3.488  14.748  0.4330 -0.8015  1.2418
   43DOPE  H12S 5481   1.407   3.663  14.740 -1.7838 -0.7564  0.6876
   43DOPE  C213 5482   1.510   3.530  14.882  0.6983  0.0557 -0.4683
   43DOPE  H13R 5483   1.580   3.613  14.905 -1.5549  2.2951 -1.1663
   43DOPE  H13S 5484   1.563   3.433  14.890  1.3555  0.3586 -1.0406
   43DOPE  C214 5485   1.409   3.531  14.998  0.1226  0.3145 -0.2344
   43DOPE  H14R 5486   1.346   3.439  15.001 -0.1252  0.4757 -0.4358
   43DOPE  H14S 5487   1.333   3.612  14.996 -0.0329  0.3201  2.7757
   43DOPE  C215 5488   1.487   3.539  15.122  0.2025  0.8516 -0.4000
   43DOPE  H15R 5489   1.580   3.479  15.120 -0.5190 -0.5033  2.2601
   43DOPE  H15S 5490   1.419   3.490  15.195  1.8571 -0.9967 -0.0206
   43DOPE  C216 5491   1.514   3.685  15.168 -0.0686  0.0732 -0.7115
   43DOPE  H16R 5492   1.427   3.719  15.229  0.1699 -1.6354  0.6546
   43DOPE  H16S 5493   1.521   3.750  15.078 -1.8461  0.8533 -0.3494
   43DOPE  C217 5494   1.640   3.688  15.257 -0.3053  0.4242  0.2370
   43DOPE  H17R 5495   1.718   3.653  15.186 -1.0349  0.3776 -0.5630
   43DOPE  H17S 5496   1.633   3.607  15.333  2.1209  2.4009  2.7606
   43DOPE  C218 5497   1.678   3.826  15.317  0.0492  0.1576 -1.0222
   43DOPE  H18R 5498   1.779   3.810  15.360 -1.1692 -1.5357  1.4531
   43DOPE  H18S 5499   1.610   3.853  15.401 -1.5808  1.4101 -2.6586
   43DOPE  H18T 5500   1.675   3.905  15.240 -3.2378  0.4815 -0.7029
   43DOPE   C33 5501   1.828   4.356  13.629  0.1392 -0.2387 -0.8543
   43DOPE   H3X 5502   1.809   4.255  13.587 -2.3898 -0.1082 -0.1546
   43DOPE   H3Y 5503   1.726   4.399  13.639  0.5088  0.3788  0.5673
   43DOPE   C34 5504   1.885   4.365  13.772  0.4650  0.2306 -0.4345
   43DOPE   H4X 5505   1.987   4.322  13.765  1.3490  2.2109 -0.2273
   43DOPE   H4Y 5506   1.895   4.473  13.797  0.5546  0.6678 -2.1946
   43DOPE   C35 5507   1.800   4.298  13.884 -0.1184 -0.3529  0.1573
   43DOPE   H5X 5508   1.787   4.190  13.862  1.5174 -0.9072  1.6867
   43DOPE   H5Y 5509   1.694   4.325  13.863 -1.0778 -3.7028  0.2296
   43DOPE   C36 5510   1.847   4.328  14.026  0.1945  0.0903  0.0415
   43DOPE   H6X 5511   1.888   4.428  14.054 -0.4665  0.6043 -0.7931
   43DOPE   H6Y 5512   1.940   4.268  14.026  0.4319  0.4492  0.7574
   43DOPE   C37 5513   1.750   4.262  14.125 -0.1976  0.0396 -0.6701
   43DOPE   H7X 5514   1.647   4.252  14.083 -1.6851 -2.1140  2.9759
   43DOPE   H7Y 5515   1.791   4.161  14.146  4.2383  2.1029  2.1307
   43DOPE   C38 5516   1.741   4.336  14.263  0.3947 -0.8612 -0.3519
   43DOPE   H8X 5517   1.709   4.440  14.242 -0.1796 -0.6345  1.4545
   43DOPE   H8Y 5518   1.845   4.355  14.294  0.5201  1.3820 -1.9122
   43DOPE   C39 5519   1.643   4.277  14.367 -0.7671  0.7418 -0.2600
   43DOPE   H9X 5520   1.566   4.213  14.322 -0.2658 -0.7875  0.9631
   43DOPE  C310 5521   1.654   4.282  14.499 -0.4022 -0.4327 -0.5481
   43DOPE  H10X 5522   1.579   4.229  14.561 -1.7616  1.7364 -0.2474
   43DOPE  C311 5523   1.759   4.363  14.580  0.4073  0.3226  0.9249
   43DOPE  H11X 5524   1.843   4.296  14.610  0.1507  0.6010  2.3258
   43DOPE  H11Y 5525   1.801   4.443  14.515 -2.3921 -0.1679 -1.7138
   43DOPE  C312 5526   1.689   4.429  14.698 -0.1858  0.7142 -0.3739
   43DOPE  H12X 5527   1.608   4.500  14.671 -0.1188  1.0613  0.3231
   43DOPE  H12Y 5528   1.760   4.486  14.761  0.9142  0.3152 -1.2069
   43DOPE  C313 5529   1.646   4.324  14.805  0.0494 -0.6985 -0.5374
   43DOPE  H13X 5530   1.559   4.263  14.774  1.0051 -3.0620  1.1297
   43DOPE  H13Y 5531   1.720   4.243  14.823 -0.3955 -0.9716  0.0748
   43DOPE  C314 5532   1.601   4.384  14.941 -0.0602  0.3708 -0.1481
   43DOPE  H14X 5533   1.516   4.455  14.935 -0.3241  0.0683 -0.0300
   43DOPE  H14Y 5534   1.685   4.441  14.987  1.3696 -1.7228 -0.0017
   43DOPE  C315 5535   1.563   4.278  15.046  0.1335 -0.6621 -0.0223
   43DOPE  H15X 5536   1.644   4.205  15.064  1.1790  0.4675 -0.0514
   43DOPE  H15Y 5537   1.474   4.218  15.018  0.4033 -0.0603 -2.4055
   43DOPE  C316 5538   1.541   4.340  15.188  0.2092  0.4601 -0.6226
   43DOPE  H16X 5539   1.455   4.410  15.193 -0.6171 -0.6092  1.1100
   43DOPE  H16Y 5540   1.634   4.393  15.220  1.1139 -1.2110 -0.3525
   43DOPE  C317 5541   1.520   4.232  15.294  0.6697  0.9604  0.0420
   43DOPE  H17X 5542   1.420   4.190  15.269  1.5324 -0.2256 -1.6381
   43DOPE  H17Y 5543   1.593   4.149  15.282 -0.4373 -0.1419  0.7054
   43DOPE  C318 5544   1.529   4.264  15.445 -0.5501  0.6645 -0.2271
   43DOPE  H18X 5545   1.512   4.161  15.485 -0.4152  0.4783 -0.6468
   43DOPE  H18Y 5546   1.631   4.299  15.473  0.2115 -1.1306 -0.5571
   43DOPE  H18Z 5547   1.439   4.324  15.471 -0.3337  1.3399 -1.0130
   44DOPE     N 5548   5.268   2.277  12.231 -0.1644 -0.0182 -0.2294
   44DOPE   HN1 5549   5.247   2.355  12.297  1.7605  0.5272 -0.2162
   44DOPE   HN2 5550   5.321   2.314  12.149  2.0216 -0.7773  0.7730
   44DOPE   HN3 5551   5.179   2.238  12.194  0.6294 -1.2835 -0.8597
   44DOPE   C12 5552   5.338   2.168  12.309  0.5869 -0.2955  0.1065
   44DOPE  H12A 5553   5.335   2.085  12.236  2.4099 -0.8350  0.5963
   44DOPE  H12B 5554   5.282   2.150  12.403  0.0183 -1.8187 -0.4931
   44DOPE   C11 5555   5.485   2.215  12.331  0.2008  0.2721  0.5842
   44DOPE  H11A 5556   5.515   2.128  12.393 -2.3678 -1.2034 -0.1337
   44DOPE  H11B 5557   5.489   2.307  12.394 -0.4177 -0.0463  1.0899
   44DOPE     P 5558   5.701   2.248  12.191 -0.3309 -0.2839  0.3783
   44DOPE   O13 5559   5.750   2.380  12.241  0.5299  0.0171  0.3455
   44DOPE   O14 5560   5.736   2.219  12.049  0.1389 -0.2512 -0.8441
   44DOPE   O11 5561   5.755   2.132  12.291  0.2330  0.2891 -0.3581
   44DOPE   O12 5562   5.549   2.234  12.207  0.1860  0.2006  0.1920
   44DOPE    C1 5563   5.876   2.148  12.359 -0.6908 -0.0676 -0.2749
   44DOPE    HA 5564   5.940   2.233  12.326  0.3366 -0.9184 -0.5162
   44DOPE    HB 5565   5.936   2.055  12.354 -0.3502  0.1690 -0.6029
   44DOPE    C2 5566   5.845   2.166  12.509 -0.2734  0.5296 -1.2802
   44DOPE    HS 5567   5.751   2.109  12.523  0.3020 -0.4980 -1.4837
   44DOPE   O21 5568   5.837   2.308  12.545 -0.5778  0.4922 -0.4968
   44DOPE   C21 5569   5.732   2.339  12.628  0.0211 -0.3199 -0.2054
   44DOPE   O22 5570   5.639   2.266  12.659  0.0843 -0.0753 -0.0426
   44DOPE   C22 5571   5.758   2.469  12.700 -0.7666  0.0118  0.1627
   44DOPE   H2R 5572   5.661   2.524  12.697 -0.8862 -0.2155 -0.1382
   44DOPE   H2S 5573   5.831   2.528  12.641  1.1033  0.8098  3.0347
   44DOPE    C3 5574   5.951   2.097  12.600  0.0003  0.5718 -0.0007
   44DOPE    HX 5575   6.047   2.148  12.577 -1.3623  1.9633 -3.1607
   44DOPE    HY 5576   5.955   1.989  12.575 -1.9768 -0.0240  1.9310
   44DOPE   O31 5577   5.918   2.115  12.739 -0.2191  0.2668  0.0139
   44DOPE   C31 5578   5.828   2.028  12.782 -0.6431  0.7799 -0.6351
   44DOPE   O32 5579   5.747   1.959  12.721 -0.0338 -0.5746  0.1421
   44DOPE   C32 5580   5.826   2.048  12.932  0.2748  0.1017 -0.1023
   44DOPE   H2X 5581   5.919   2.015  12.982  0.1843 -2.6903 -1.5755
   44DOPE   H2Y 5582   5.813   2.157  12.950 -2.5673 -0.0742 -0.6250
   44DOPE   C23 5583   5.801   2.457  12.845  0.6074 -0.5590  0.2277
   44DOPE   H3R 5584   5.907   2.427  12.849  0.6873 -0.1519  2.7913
   44DOPE   H3S 5585   5.737   2.381  12.894 -0.5537  1.3732  1.8488
   44DOPE   C24 5586   5.788   2.590  12.920  0.0090  0.7329  0.1345
   44DOPE   H4R 5587   5.796   2.564  13.028  3.0663 -1.5829 -0.5290
   44DOPE   H4S 5588   5.688   2.637  12.906 -0.5031 -0.6905 -1.2217
   44DOPE   C25 5589   5.901   2.693  12.884  0.7267 -0.3639 -0.3862
   44DOPE   H5R 5590   5.871   2.711  12.778  1.6674 -2.1785 -1.0047
   44DOPE   H5S 5591   6.003   2.649  12.888  0.6222 -0.5397  1.9156
   44DOPE   C26 5592   5.899   2.815  12.974  0.0927 -0.1398 -0.6038
   44DOPE   H6R 5593   5.816   2.881  12.943 -1.2419 -0.3606  2.2271
   44DOPE   H6S 5594   5.993   2.871  12.953 -0.6153  1.1016 -0.5407
   44DOPE   C27 5595   5.894   2.794  13.121  0.3900 -0.1870 -0.5343
   44DOPE   H7R 5596   5.985   2.745  13.160  0.3857  0.9631  0.9893
   44DOPE   H7S 5597   5.800   2.737  13.137  0.6190 -0.2665  0.5613
   44DOPE   C28 5598   5.880   2.933  13.200  0.0122 -0.1864  0.3439
   44DOPE   H8R 5599   5.967   2.999  13.182 -0.5185  1.0730  2.1334
   44DOPE   H8S 5600   5.894   2.899  13.306  0.4815  1.4082  0.8156
   44DOPE   C29 5601   5.751   3.008  13.176  0.7077  0.2248 -0.3257
   44DOPE   H9R 5602   5.739   3.046  13.074 -0.2259 -1.5798 -0.9319
   44DOPE  C210 5603   5.657   3.022  13.272 -0.3433  0.2418  0.6635
   44DOPE  H10R 5604   5.557   3.056  13.242  0.5197  0.1402 -2.7419
   44DOPE  C211 5605   5.681   2.980  13.414 -0.2872  0.0660 -0.1267
   44DOPE  H11R 5606   5.776   3.027  13.449  1.2923 -2.3949 -0.8399
   44DOPE  H11S 5607   5.699   2.871  13.416 -0.4712 -0.0304 -2.0251
   44DOPE  C212 5608   5.569   3.020  13.516  0.5899  0.0463  0.6477
   44DOPE  H12R 5609   5.465   3.003  13.481  0.7035  0.6304  0.0094
   44DOPE  H12S 5610   5.561   3.131  13.522  0.9765  0.0891  0.4082
   44DOPE  C213 5611   5.605   2.958  13.655  0.2545 -0.5324  0.1905
   44DOPE  H13R 5612   5.716   2.955  13.666  0.2050  0.8496  1.3426
   44DOPE  H13S 5613   5.570   2.853  13.660  1.7861 -1.1174 -0.7539
   44DOPE  C214 5614   5.556   3.033  13.772 -0.1440 -0.0706 -0.3479
   44DOPE  H14R 5615   5.597   3.137  13.777  0.9280 -0.4231 -1.2847
   44DOPE  H14S 5616   5.587   2.982  13.865  0.1382  2.0524  0.7780
   44DOPE  C215 5617   5.408   3.047  13.779  0.1469 -1.0656 -0.3562
   44DOPE  H15R 5618   5.367   2.945  13.792 -1.0669 -0.4968  0.5444
   44DOPE  H15S 5619   5.367   3.090  13.685  1.6987  1.3411 -0.0255
   44DOPE  C216 5620   5.360   3.139  13.899  0.0088 -0.0041  0.1958
   44DOPE  H16R 5621   5.250   3.144  13.914  0.2952  0.1201  2.5997
   44DOPE  H16S 5622   5.387   3.247  13.892 -0.3214  0.0049 -1.1101
   44DOPE  C217 5623   5.441   3.107  14.029 -0.2885 -0.3993 -0.4390
   44DOPE  H17R 5624   5.541   3.153  14.022 -1.0241  1.4006  0.2776
   44DOPE  H17S 5625   5.449   2.996  14.041  0.9343 -0.3791 -0.9309
   44DOPE  C218 5626   5.366   3.172  14.152  0.3199 -0.4376 -0.6455
   44DOPE  H18R 5627   5.337   3.277  14.133 -0.4851 -0.3051  1.1262
   44DOPE  H18S 5628   5.416   3.158  14.250 -0.4695 -2.5711 -0.4863
   44DOPE  H18T 5629   5.268   3.123  14.167  0.8306 -2.1636 -2.4844
   44DOPE   C33 5630   5.701   1.969  12.996 -0.2681 -0.8183  0.0613
   44DOPE   H3X 5631   5.708   1.860  12.977 -1.5830 -0.8947 -0.0947
   44DOPE   H3Y 5632   5.610   2.015  12.952  0.4904  0.6751 -0.0253
   44DOPE   C34 5633   5.695   1.998  13.147 -0.0898 -0.0657 -0.3055
   44DOPE   H4X 5634   5.737   2.100  13.163  2.3621 -1.3590  2.3000
   44DOPE   H4Y 5635   5.592   1.992  13.188  0.6109 -0.6904  1.4891
   44DOPE   C35 5636   5.770   1.897  13.228 -0.6152 -0.5994 -0.3448
   44DOPE   H5X 5637   5.869   1.878  13.180  0.3707  0.5988  1.1234
   44DOPE   H5Y 5638   5.720   1.798  13.221 -1.8877 -0.1067  1.3352
   44DOPE   C36 5639   5.787   1.932  13.378  0.0433  0.7645 -0.2166
   44DOPE   H6X 5640   5.865   2.006  13.403  2.6708 -2.4178  1.9550
   44DOPE   H6Y 5641   5.834   1.846  13.431  0.3555  0.9914 -0.1238
   44DOPE   C37 5642   5.652   1.954  13.451  0.8776  0.5943 -0.0949
   44DOPE   H7X 5643   5.612   2.046  13.402 -1.3949  1.0192  2.3159
   44DOPE   H7Y 5644   5.578   1.877  13.420 -0.0641  1.3330  0.2744
   44DOPE   C38 5645   5.670   1.972  13.595  0.6458  0.6804  0.1669
   44DOPE   H8X 5646   5.743   2.046  13.634 -0.4723  0.8535  2.0352
   44DOPE   H8Y 5647   5.702   1.873  13.634 -2.9527 -2.0613 -3.1244
   44DOPE   C39 5648   5.534   2.012  13.655  0.0732 -0.2519 -0.7795
   44DOPE   H9X 5649   5.454   1.936  13.650  1.1325 -1.5492  0.7786
   44DOPE  C310 5650   5.518   2.106  13.749  0.6208 -0.2738  0.4364
   44DOPE  H10X 5651   5.416   2.132  13.781  0.7754  0.5863  0.2647
   44DOPE  C311 5652   5.622   2.201  13.794 -0.0193 -0.4210 -0.1432
   44DOPE  H11X 5653   5.682   2.224  13.704 -0.6425 -0.1640 -0.5009
   44DOPE  H11Y 5654   5.583   2.299  13.828  0.9057  0.3233 -1.1508
   44DOPE  C312 5655   5.735   2.161  13.893 -0.6578 -0.4215 -0.3451
   44DOPE  H12X 5656   5.805   2.247  13.897  0.3212 -1.2013  2.8138
   44DOPE  H12Y 5657   5.802   2.078  13.861 -1.3852  0.0351 -3.2583
   44DOPE  C313 5658   5.683   2.147  14.038 -0.9700  0.0001 -0.4397
   44DOPE  H13X 5659   5.601   2.215  14.070  1.5189  2.1088  1.9709
   44DOPE  H13Y 5660   5.633   2.048  14.038 -0.9046 -0.0445 -1.1833
   44DOPE  C314 5661   5.802   2.140  14.140  0.7048 -0.5440  0.2075
   44DOPE  H14X 5662   5.845   2.241  14.156 -0.2082  0.0059 -0.6889
   44DOPE  H14Y 5663   5.878   2.066  14.105  0.7428 -0.4486  0.0882
   44DOPE  C315 5664   5.746   2.092  14.281  0.0283  0.3058 -0.0089
   44DOPE  H15X 5665   5.698   1.994  14.261  0.0682  0.5512 -1.3683
   44DOPE  H15Y 5666   5.674   2.165  14.322 -1.1167 -0.3879 -0.7542
   44DOPE  C316 5667   5.856   2.062  14.386  0.1082 -0.6692  0.0105
   44DOPE  H16X 5668   5.912   2.156  14.404  0.4185 -0.6220 -1.1016
   44DOPE  H16Y 5669   5.920   1.985  14.339 -1.4292 -1.6107 -0.6237
   44DOPE  C317 5670   5.791   2.009  14.519 -0.1150  0.7107  0.0592
   44DOPE  H17X 5671   5.709   2.077  14.552 -0.0770 -0.3294  2.4191
   44DOPE  H17Y 5672   5.765   1.906  14.488  1.3370  0.2640  0.2786
   44DOPE  C318 5673   5.893   1.983  14.631 -0.1177  0.1077 -0.2967
   44DOPE  H18X 5674   5.847   1.913  14.704  0.8585 -1.4957 -1.1770
   44DOPE  H18Y 5675   5.988   1.945  14.590 -0.7296  0.7773 -2.4919
   44DOPE  H18Z 5676   5.919   2.078  14.684  1.3027 -0.1574 -0.5084
   45DOPE     N 5677   0.563   2.382  12.067  0.3370 -0.3746 -0.2507
   45DOPE   HN1 5678   0.596   2.352  11.973 -0.6602  0.0302 -0.7431
   45DOPE   HN2 5679   0.565   2.485  12.079 -1.0377 -0.3197 -0.3077
   45DOPE   HN3 5680   0.615   2.336  12.145  3.3649  2.2358 -0.4970
   45DOPE   C12 5681   0.418   2.345  12.087  0.4921 -1.0270  1.0015
   45DOPE  H12A 5682   0.372   2.318  11.990 -0.2564 -1.0454  1.3553
   45DOPE  H12B 5683   0.367   2.435  12.126  1.3626  0.3151 -0.7952
   45DOPE   C11 5684   0.415   2.218  12.176  0.6035  0.0471 -0.9772
   45DOPE  H11A 5685   0.309   2.185  12.169 -0.1771  2.2031 -0.0790
   45DOPE  H11B 5686   0.422   2.256  12.280 -2.2043  0.5306 -0.8983
   45DOPE     P 5687   0.493   1.966  12.168 -0.0194 -0.1204  0.2488
   45DOPE   O13 5688   0.626   1.900  12.160  0.0258  0.0939  0.6079
   45DOPE   O14 5689   0.389   1.910  12.079 -0.4146  1.4043  0.0244
   45DOPE   O11 5690   0.448   1.958  12.319  0.2526 -0.0872  0.0970
   45DOPE   O12 5691   0.510   2.116  12.142  0.3183  0.2923 -0.2708
   45DOPE    C1 5692   0.528   2.024  12.420  0.0198  0.3762  0.6905
   45DOPE    HA 5693   0.469   2.032  12.514  1.7982 -1.9347  2.0976
   45DOPE    HB 5694   0.562   2.125  12.386 -1.5088  0.2192 -1.5997
   45DOPE    C2 5695   0.649   1.935  12.462 -0.3305  0.3706 -0.5375
   45DOPE    HS 5696   0.716   1.938  12.374  0.5559  3.9796  0.0713
   45DOPE   O21 5697   0.583   1.813  12.493  0.3176 -0.2138  0.7773
   45DOPE   C21 5698   0.662   1.723  12.515 -0.5056 -0.0035  0.0735
   45DOPE   O22 5699   0.783   1.720  12.478  0.2080 -0.2656 -0.5091
   45DOPE   C22 5700   0.601   1.616  12.604  0.3087 -1.2663 -0.2836
   45DOPE   H2R 5701   0.546   1.538  12.546  0.8871 -1.6305 -0.3582
   45DOPE   H2S 5702   0.541   1.672  12.678  0.7034 -1.3794  0.1219
   45DOPE    C3 5703   0.722   1.996  12.584  0.0957 -0.7492 -0.3365
   45DOPE    HX 5704   0.764   2.095  12.556  1.0337 -1.0368 -0.0133
   45DOPE    HY 5705   0.811   1.932  12.602  0.5969 -0.0636 -0.3172
   45DOPE   O31 5706   0.634   2.001  12.698  1.4728 -0.0401  0.2416
   45DOPE   C31 5707   0.687   2.040  12.815  0.3022 -0.3898 -0.0155
   45DOPE   O32 5708   0.797   2.090  12.829  0.2352  0.1723  0.2685
   45DOPE   C32 5709   0.589   2.007  12.932  0.3149 -0.0157  0.7545
   45DOPE   H2X 5710   0.494   2.054  12.899  1.2351  2.6772  1.7159
   45DOPE   H2Y 5711   0.591   1.896  12.932  0.4155 -0.0535 -0.9112
   45DOPE   C23 5712   0.715   1.550  12.692 -0.2060 -0.4214 -1.1119
   45DOPE   H3R 5713   0.779   1.631  12.734 -0.1107  0.1122 -2.2582
   45DOPE   H3S 5714   0.791   1.488  12.639  1.1720 -1.5165  1.8830
   45DOPE   C24 5715   0.659   1.450  12.789  0.1324  0.4184 -0.0973
   45DOPE   H4R 5716   0.676   1.346  12.752  1.5124 -0.4083  2.5411
   45DOPE   H4S 5717   0.549   1.450  12.803  0.0871 -0.3430 -0.4047
   45DOPE   C25 5718   0.715   1.458  12.939  0.0943  0.4974  0.7752
   45DOPE   H5R 5719   0.700   1.565  12.965  1.8148  0.7717  0.7709
   45DOPE   H5S 5720   0.823   1.433  12.944  0.1466  0.9239  2.1395
   45DOPE   C26 5721   0.640   1.355  13.028 -0.3443  0.6364 -0.0598
   45DOPE   H6R 5722   0.672   1.259  12.981 -2.6180  0.9758 -2.5541
   45DOPE   H6S 5723   0.531   1.374  13.024 -0.3853  0.2434 -1.0602
   45DOPE   C27 5724   0.677   1.368  13.178 -0.2151  0.2458  0.1067
   45DOPE   H7R 5725   0.678   1.473  13.215 -0.2442  0.0504  0.6833
   45DOPE   H7S 5726   0.784   1.341  13.189  0.3135  2.7555  2.1448
   45DOPE   C28 5727   0.585   1.291  13.269  0.1757  0.0518  0.6951
   45DOPE   H8R 5728   0.597   1.184  13.244  0.2771  0.0919  0.5733
   45DOPE   H8S 5729   0.482   1.311  13.234 -0.4805 -0.4401  2.2312
   45DOPE   C29 5730   0.595   1.319  13.420 -0.8663  0.0662  0.1112
   45DOPE   H9R 5731   0.571   1.423  13.443 -0.2918  0.3388 -0.4894
   45DOPE  C210 5732   0.667   1.249  13.508 -0.5205  0.0706 -0.3131
   45DOPE  H10R 5733   0.665   1.290  13.610 -1.3342 -0.3459 -0.1547
   45DOPE  C211 5734   0.738   1.119  13.495  0.5414 -0.0029 -0.0297
   45DOPE  H11R 5735   0.847   1.125  13.517  0.4605  2.4526  0.0240
   45DOPE  H11S 5736   0.733   1.081  13.391  1.7000 -1.2867  0.3608
   45DOPE  C212 5737   0.665   1.022  13.582 -0.6319 -0.2771  0.7127
   45DOPE  H12R 5738   0.692   0.919  13.549 -0.3118  0.1745 -0.5051
   45DOPE  H12S 5739   0.556   1.015  13.560 -0.7282 -1.2304  1.4052
   45DOPE  C213 5740   0.697   1.048  13.729  0.2881 -0.9513 -0.1536
   45DOPE  H13R 5741   0.650   1.141  13.765 -0.3591 -1.6004  0.7290
   45DOPE  H13S 5742   0.807   1.042  13.747 -0.1990 -2.2160  3.1414
   45DOPE  C214 5743   0.652   0.939  13.826  0.1570  0.0668  0.8830
   45DOPE  H14R 5744   0.664   0.837  13.785 -0.1854 -0.9289  3.1316
   45DOPE  H14S 5745   0.544   0.955  13.848  0.1220 -0.2612  0.9457
   45DOPE  C215 5746   0.728   0.948  13.952 -0.1872  0.3633  0.1051
   45DOPE  H15R 5747   0.737   1.057  13.972 -0.0442  0.6453 -1.3585
   45DOPE  H15S 5748   0.828   0.904  13.935 -0.6467  0.1530 -2.5291
   45DOPE  C216 5749   0.665   0.883  14.069  0.6424 -0.2152 -0.1847
   45DOPE  H16R 5750   0.688   0.775  14.058 -2.8310 -1.0213 -0.4902
   45DOPE  H16S 5751   0.556   0.905  14.067  0.7599  0.4609  0.2272
   45DOPE  C217 5752   0.722   0.945  14.200  0.1098  0.2813 -0.4867
   45DOPE  H17R 5753   0.652   0.898  14.272 -0.3451 -1.3700 -1.9362
   45DOPE  H17S 5754   0.722   1.056  14.200  2.3039  0.3267 -0.7455
   45DOPE  C218 5755   0.866   0.904  14.240 -0.0478  0.5265  0.6326
   45DOPE  H18R 5756   0.941   0.903  14.158 -0.1226 -2.4796  0.5096
   45DOPE  H18S 5757   0.882   0.803  14.283  3.2437 -0.0349 -1.5076
   45DOPE  H18T 5758   0.908   0.979  14.311  1.5271  0.7196 -0.4494
   45DOPE   C33 5759   0.628   2.053  13.069 -0.2945  0.1227  0.0339
   45DOPE   H3X 5760   0.674   2.154  13.061  1.7630 -0.8116 -0.7181
   45DOPE   H3Y 5761   0.707   1.999  13.126 -0.5723  0.3510  0.6445
   45DOPE   C34 5762   0.501   2.065  13.161 -0.2910  0.0862  0.3301
   45DOPE   H4X 5763   0.432   2.140  13.119  1.0935  2.0325  1.3827
   45DOPE   H4Y 5764   0.452   1.965  13.164 -0.5095  0.1563 -0.5965
   45DOPE   C35 5765   0.539   2.108  13.304  0.5289 -0.0902 -0.3428
   45DOPE   H5X 5766   0.579   2.212  13.299  0.6808 -0.1469 -0.3292
   45DOPE   H5Y 5767   0.624   2.049  13.345  0.8755  1.5977  1.5646
   45DOPE   C36 5768   0.422   2.114  13.400  0.7313 -0.2786 -0.2942
   45DOPE   H6X 5769   0.363   2.020  13.393 -0.7283  0.6435 -0.9086
   45DOPE   H6Y 5770   0.345   2.191  13.377 -1.1024 -1.8532  0.1969
   45DOPE   C37 5771   0.452   2.139  13.551  0.5368  0.1440 -0.1056
   45DOPE   H7X 5772   0.362   2.139  13.617 -0.9871 -2.1466 -2.0333
   45DOPE   H7Y 5773   0.504   2.049  13.590 -0.8744 -1.5487 -1.8913
   45DOPE   C38 5774   0.540   2.267  13.577 -0.6090 -0.8843  0.2935
   45DOPE   H8X 5775   0.626   2.270  13.506 -1.3155  1.4444 -0.5593
   45DOPE   H8Y 5776   0.571   2.260  13.684 -0.2295 -1.9580  0.1322
   45DOPE   C39 5777   0.453   2.390  13.563 -0.1357  0.1164  0.0387
   45DOPE   H9X 5778   0.427   2.413  13.459  1.2447  1.9097  0.0582
   45DOPE  C310 5779   0.405   2.464  13.665  0.0034 -0.4187 -0.1788
   45DOPE  H10X 5780   0.335   2.547  13.646 -1.6911 -1.5437  0.8115
   45DOPE  C311 5781   0.423   2.445  13.813  0.5791 -0.5535 -0.0598
   45DOPE  H11X 5782   0.458   2.341  13.832  0.3278 -0.1840  2.9671
   45DOPE  H11Y 5783   0.498   2.518  13.851  1.6265 -0.4929 -2.1313
   45DOPE  C312 5784   0.288   2.456  13.895 -0.1320 -0.1093  0.1431
   45DOPE  H12X 5785   0.205   2.416  13.833 -2.1610  2.1162  1.2551
   45DOPE  H12Y 5786   0.282   2.565  13.915  0.3063 -0.2431  1.0393
   45DOPE  C313 5787   0.283   2.376  14.030  0.2471 -0.0875  0.0283
   45DOPE  H13X 5788   0.176   2.370  14.061  0.2121 -0.7686 -0.2269
   45DOPE  H13Y 5789   0.314   2.272  14.007 -0.4969 -0.5796  1.1619
   45DOPE  C314 5790   0.361   2.451  14.133  0.3191 -0.5926  0.3097
   45DOPE  H14X 5791   0.322   2.553  14.151  0.4897 -0.4028 -0.3727
   45DOPE  H14Y 5792   0.464   2.459  14.092 -0.3464 -0.3069 -1.3399
   45DOPE  C315 5793   0.376   2.375  14.264  0.3168 -0.1274  0.6794
   45DOPE  H15X 5794   0.453   2.438  14.315 -0.8525  0.2162  2.1055
   45DOPE  H15Y 5795   0.435   2.283  14.249  1.0113  0.5698 -1.1056
   45DOPE  C316 5796   0.252   2.377  14.347 -0.3932  0.9403 -0.3947
   45DOPE  H16X 5797   0.184   2.295  14.316  0.0037  0.5791 -0.3154
   45DOPE  H16Y 5798   0.201   2.475  14.340 -2.3567  0.1713  1.7441
   45DOPE  C317 5799   0.296   2.357  14.494 -0.3775  0.2458  0.3876
   45DOPE  H17X 5800   0.208   2.310  14.543  0.1984 -2.1287 -0.7141
   45DOPE  H17Y 5801   0.368   2.272  14.494 -1.2898 -0.6183 -2.1178
   45DOPE  C318 5802   0.345   2.474  14.573  0.2122  0.4790 -0.1728
   45DOPE  H18X 5803   0.389   2.435  14.668  2.9914 -0.6502 -1.7850
   45DOPE  H18Y 5804   0.442   2.521  14.547  1.0881  0.8355  3.2209
   45DOPE  H18Z 5805   0.274   2.558  14.586  2.8084  2.8332 -0.2558
   46DOPE     N 5806   6.059   6.450  12.217  0.2530  0.1218  0.2224
   46DOPE   HN1 5807   6.154   6.475  12.182  0.5792 -0.1702  0.8767
   46DOPE   HN2 5808   6.041   6.521  12.291  1.5426  2.1567 -1.2871
   46DOPE   HN3 5809   6.065   6.353  12.254 -0.2909 -0.4805 -1.2056
   46DOPE   C12 5810   5.958   6.462  12.103 -0.3575  0.4218 -0.4969
   46DOPE  H12A 5811   5.991   6.398  12.018  0.6970 -1.6662  1.3513
   46DOPE  H12B 5812   5.967   6.562  12.057 -1.5955  0.8951  0.2602
   46DOPE   C11 5813   5.816   6.451  12.153  0.8839 -0.0441  0.2991
   46DOPE  H11A 5814   5.807   6.347  12.191  1.0037 -1.2425 -2.6211
   46DOPE  H11B 5815   5.745   6.475  12.071  0.5095  2.7108  1.3474
   46DOPE     P 5816   5.716   6.689  12.216 -0.0811  0.3244 -0.1663
   46DOPE   O13 5817   5.576   6.664  12.190 -0.0851  0.0398  0.5421
   46DOPE   O14 5818   5.796   6.751  12.111 -0.3357  0.0747  0.1685
   46DOPE   O11 5819   5.725   6.771  12.350 -0.4987 -0.0439 -0.3677
   46DOPE   O12 5820   5.785   6.549  12.250 -0.0113  0.5273 -0.0658
   46DOPE    C1 5821   5.685   6.705  12.468  0.3188  0.4769 -1.2666
   46DOPE    HA 5822   5.769   6.636  12.491 -0.2332  0.3294  0.5127
   46DOPE    HB 5823   5.594   6.643  12.459 -0.3273  0.9089  1.3926
   46DOPE    C2 5824   5.655   6.808  12.580 -0.2844  0.3812  0.5094
   46DOPE    HS 5825   5.576   6.876  12.542  0.3994  0.5924 -0.5738
   46DOPE   O21 5826   5.773   6.891  12.595  0.0354 -0.2922 -0.3556
   46DOPE   C21 5827   5.761   7.001  12.670 -0.6924  0.1835  0.1585
   46DOPE   O22 5828   5.663   7.046  12.723  0.5963 -0.0680 -0.5424
   46DOPE   C22 5829   5.897   7.083  12.657  0.0922  0.2422 -0.3324
   46DOPE   H2R 5830   5.871   7.151  12.572 -0.0233  0.6499  0.0248
   46DOPE   H2S 5831   5.981   7.015  12.633  0.9185  1.1007  0.0538
   46DOPE    C3 5832   5.604   6.751  12.720  0.3836 -0.7559  0.0217
   46DOPE    HX 5833   5.542   6.660  12.701 -1.2592  0.3825 -0.3293
   46DOPE    HY 5834   5.530   6.824  12.761  0.9049  0.2711 -0.8460
   46DOPE   O31 5835   5.714   6.733  12.815 -0.1997  0.1775 -0.0755
   46DOPE   C31 5836   5.688   6.643  12.906  0.4409 -0.5181 -0.9455
   46DOPE   O32 5837   5.586   6.578  12.917  0.4444  0.0535  0.0265
   46DOPE   C32 5838   5.800   6.640  13.008  0.5314 -0.4220  0.4424
   46DOPE   H2X 5839   5.893   6.635  12.948  0.6275 -0.4037  0.5900
   46DOPE   H2Y 5840   5.800   6.743  13.050  1.5041 -0.4497  0.5330
   46DOPE   C23 5841   5.929   7.159  12.783  0.4517  0.1693 -0.4520
   46DOPE   H3R 5842   5.830   7.179  12.830 -1.1961 -1.9155 -2.7533
   46DOPE   H3S 5843   5.981   7.256  12.767 -0.1530  0.3762 -1.2123
   46DOPE   C24 5844   6.024   7.088  12.880 -0.2401 -0.1559  0.5015
   46DOPE   H4R 5845   6.086   7.161  12.937  0.7527  0.4438 -1.2778
   46DOPE   H4S 5846   6.096   7.043  12.809 -0.4251 -0.0743  0.2582
   46DOPE   C25 5847   5.959   6.976  12.967 -0.2410 -0.7291 -0.1579
   46DOPE   H5R 5848   5.884   6.926  12.902 -1.2413 -0.6287  0.8888
   46DOPE   H5S 5849   5.897   7.027  13.043  0.0015  0.4107 -0.7014
   46DOPE   C26 5850   6.064   6.880  13.012 -0.2256 -0.3770 -0.0468
   46DOPE   H6R 5851   6.127   6.843  12.929  0.2557  0.0949  0.0999
   46DOPE   H6S 5852   6.022   6.790  13.060 -2.6567 -0.2183 -1.6964
   46DOPE   C27 5853   6.169   6.943  13.108 -0.2455  0.1914  0.5452
   46DOPE   H7R 5854   6.210   7.030  13.052  0.2408 -0.1719  0.3299
   46DOPE   H7S 5855   6.254   6.873  13.127 -1.1912 -2.2765 -3.2167
   46DOPE   C28 5856   6.110   7.001  13.242 -0.0003 -0.3408 -0.5173
   46DOPE   H8R 5857   6.072   6.921  13.308 -1.5902  0.4546 -0.4272
   46DOPE   H8S 5858   6.019   7.061  13.221  0.8386  1.3493  0.4389
   46DOPE   C29 5859   6.217   7.082  13.310  0.0396 -0.4600 -0.2435
   46DOPE   H9R 5860   6.245   7.168  13.247 -2.7121  0.6239 -0.1455
   46DOPE  C210 5861   6.285   7.052  13.422  0.1389  0.1202 -0.5728
   46DOPE  H10R 5862   6.365   7.119  13.455 -0.0446  0.1226 -0.1203
   46DOPE  C211 5863   6.273   6.928  13.504 -0.5497 -0.5718 -0.3971
   46DOPE  H11R 5864   6.372   6.892  13.539 -0.3855 -1.7588 -1.9450
   46DOPE  H11S 5865   6.241   6.845  13.437  1.1122 -2.5082  1.0902
   46DOPE  C212 5866   6.163   6.910  13.615 -0.4738 -0.1015  0.1904
   46DOPE  H12R 5867   6.191   6.808  13.649 -0.2280  0.5210  1.9791
   46DOPE  H12S 5868   6.066   6.914  13.561  0.5736  1.8029 -1.6950
   46DOPE  C213 5869   6.181   7.010  13.727 -0.3808 -0.1766  0.2038
   46DOPE  H13R 5870   6.154   7.113  13.699  1.2360  0.0875 -0.5115
   46DOPE  H13S 5871   6.290   7.015  13.750 -0.3951  0.7900  0.0798
   46DOPE  C214 5872   6.125   6.962  13.859 -0.4934  0.3037 -0.5191
   46DOPE  H14R 5873   6.160   6.859  13.879  0.9089  0.8765  0.0866
   46DOPE  H14S 5874   6.014   6.957  13.851 -0.7952  2.2039  1.4958
   46DOPE  C215 5875   6.167   7.047  13.982  0.7951 -0.1947 -0.2831
   46DOPE  H15R 5876   6.128   7.148  13.959 -0.0964 -1.0820 -2.9822
   46DOPE  H15S 5877   6.276   7.071  13.984  0.9244 -0.7915  0.5069
   46DOPE  C216 5878   6.126   6.995  14.117  0.6133  0.3132  0.5809
   46DOPE  H16R 5879   6.125   7.081  14.187 -0.8103  1.2884 -0.5841
   46DOPE  H16S 5880   6.195   6.912  14.143 -0.0855 -0.2043  0.7842
   46DOPE  C217 5881   5.989   6.929  14.117  0.1077 -0.5684 -0.0567
   46DOPE  H17R 5882   5.990   6.829  14.069 -0.9826 -0.5141 -0.2227
   46DOPE  H17S 5883   5.912   6.988  14.061  0.1084 -1.3917 -0.9469
   46DOPE  C218 5884   5.951   6.897  14.262 -0.4912  0.6672 -0.8661
   46DOPE  H18R 5885   5.861   6.831  14.263  1.7247 -2.5809 -0.9625
   46DOPE  H18S 5886   5.939   6.990  14.321  1.2948  1.7541 -2.1328
   46DOPE  H18T 5887   6.044   6.846  14.295  0.3120  1.2258 -2.2020
   46DOPE   C33 5888   5.786   6.543  13.121 -0.1643  0.4337  0.9341
   46DOPE   H3X 5889   5.802   6.441  13.078 -0.2765 -0.1450  2.2052
   46DOPE   H3Y 5890   5.681   6.537  13.156 -0.4117  0.6039  0.2424
   46DOPE   C34 5891   5.873   6.559  13.247 -0.5861 -0.0729 -0.0522
   46DOPE   H4X 5892   5.874   6.463  13.302  1.4249 -0.0863 -0.0535
   46DOPE   H4Y 5893   5.975   6.583  13.210 -1.6062  1.6922 -1.9346
   46DOPE   C35 5894   5.809   6.659  13.344  0.5102  0.3002 -0.0856
   46DOPE   H5X 5895   5.706   6.622  13.358  0.9930 -1.9723 -1.8953
   46DOPE   H5Y 5896   5.814   6.761  13.301 -1.7125  0.3177 -0.3752
   46DOPE   C36 5897   5.872   6.674  13.486  0.5060  0.5450  0.0911
   46DOPE   H6X 5898   5.817   6.756  13.536  0.2539 -0.7246  2.0264
   46DOPE   H6Y 5899   5.979   6.701  13.472  0.8651 -1.2337 -0.8336
   46DOPE   C37 5900   5.865   6.540  13.564  0.4689  0.1113 -0.6907
   46DOPE   H7X 5901   5.760   6.510  13.580  0.4921 -0.1511 -1.0060
   46DOPE   H7Y 5902   5.924   6.465  13.506  0.6562 -1.5029  1.4575
   46DOPE   C38 5903   5.943   6.551  13.699  0.0209  0.1414  0.1447
   46DOPE   H8X 5904   5.919   6.651  13.741  0.5744  0.3653 -0.0741
   46DOPE   H8Y 5905   6.051   6.556  13.674  0.0134  1.0860  0.2504
   46DOPE   C39 5906   5.896   6.441  13.795 -0.0546 -0.7043  0.3402
   46DOPE   H9X 5907   5.935   6.342  13.766  0.9623 -0.2530  0.0963
   46DOPE  C310 5908   5.828   6.463  13.908 -0.0167  0.4011 -0.8894
   46DOPE  H10X 5909   5.812   6.386  13.985  0.8177  1.8847  0.8346
   46DOPE  C311 5910   5.774   6.597  13.952 -1.3819  0.3947  0.4532
   46DOPE  H11X 5911   5.848   6.677  13.932 -2.0251  0.3076 -2.7071
   46DOPE  H11Y 5912   5.680   6.624  13.898 -2.9493 -0.9732  2.3210
   46DOPE  C312 5913   5.749   6.595  14.104 -0.3012 -0.3139 -0.1721
   46DOPE  H12X 5914   5.738   6.698  14.145  0.9195 -0.9298  1.8379
   46DOPE  H12Y 5915   5.836   6.545  14.152 -0.0147  1.0456  0.7837
   46DOPE  C313 5916   5.622   6.523  14.143 -0.2165  0.1163  0.1277
   46DOPE  H13X 5917   5.537   6.574  14.092  0.5781  3.2224  1.7097
   46DOPE  H13Y 5918   5.623   6.418  14.106  1.2805  0.0263  0.3683
   46DOPE  C314 5919   5.620   6.503  14.291  0.6610 -0.2962 -0.1322
   46DOPE  H14X 5920   5.522   6.463  14.327  1.1622 -0.0648  1.6073
   46DOPE  H14Y 5921   5.655   6.597  14.340  1.2986  0.0764 -1.2734
   46DOPE  C315 5922   5.719   6.392  14.335  0.2865 -0.2647  0.2128
   46DOPE  H15X 5923   5.821   6.397  14.292 -0.3181  3.0230 -1.1265
   46DOPE  H15Y 5924   5.688   6.294  14.293 -3.0842  1.5882 -2.0932
   46DOPE  C316 5925   5.737   6.385  14.486 -0.1358 -0.3003  0.1304
   46DOPE  H16X 5926   5.789   6.288  14.504  1.0731  0.5994  1.7498
   46DOPE  H16Y 5927   5.641   6.385  14.542  0.0044  1.3624  0.4095
   46DOPE  C317 5928   5.803   6.507  14.552  0.1223 -0.0334  0.3142
   46DOPE  H17X 5929   5.888   6.543  14.490  0.1725 -0.1064  0.3421
   46DOPE  H17Y 5930   5.730   6.591  14.551  1.1737  0.8972 -0.2178
   46DOPE  C318 5931   5.859   6.474  14.696 -0.1658 -0.0616  0.6204
   46DOPE  H18X 5932   5.789   6.500  14.778  1.7206  2.0638  1.6324
   46DOPE  H18Y 5933   5.901   6.371  14.696 -0.4349 -0.2106 -1.0284
   46DOPE  H18Z 5934   5.945   6.542  14.709 -0.5435  0.6036 -0.2532
   47DOPE     N 5935   4.201   6.292  12.763  0.6817 -0.1736 -0.3702
   47DOPE   HN1 5936   4.136   6.224  12.808 -0.0845  1.6881  1.5127
   47DOPE   HN2 5937   4.205   6.277  12.660 -1.4325 -0.9869 -0.3774
   47DOPE   HN3 5938   4.296   6.288  12.805  0.7943 -1.3518 -0.7070
   47DOPE   C12 5939   4.118   6.417  12.779  0.0919 -0.5531 -0.3057
   47DOPE  H12A 5940   4.025   6.412  12.717 -1.6719  4.0863  1.5812
   47DOPE  H12B 5941   4.176   6.505  12.745 -1.0811  0.9087  1.3511
   47DOPE   C11 5942   4.058   6.431  12.922  1.0376 -0.1950  0.6688
   47DOPE  H11A 5943   4.006   6.529  12.926 -1.2263 -1.3498  1.3283
   47DOPE  H11B 5944   4.146   6.432  12.991  0.6924 -2.0562  1.2043
   47DOPE     P 5945   3.827   6.318  12.985  0.1673 -0.2222  0.5402
   47DOPE   O13 5946   3.776   6.182  12.956  0.1225  0.2320 -0.1062
   47DOPE   O14 5947   3.768   6.423  12.899  0.5595 -0.1089  0.2867
   47DOPE   O11 5948   3.803   6.351  13.136 -0.0086  0.3766 -0.1168
   47DOPE   O12 5949   3.978   6.317  12.958  0.5284 -0.3553 -0.1427
   47DOPE    C1 5950   3.901   6.364  13.235 -0.5842 -0.0012  0.0641
   47DOPE    HA 5951   3.867   6.441  13.307  0.2538 -0.7778  1.3109
   47DOPE    HB 5952   3.998   6.393  13.188  0.5134 -2.4235  0.7173
   47DOPE    C2 5953   3.913   6.233  13.323 -0.4850  0.2758 -0.0362
   47DOPE    HS 5954   3.936   6.146  13.258 -2.5064  0.5071 -1.1578
   47DOPE   O21 5955   3.795   6.219  13.406  0.0301 -0.0602 -0.6022
   47DOPE   C21 5956   3.770   6.089  13.433 -0.6726 -0.5318  0.9015
   47DOPE   O22 5957   3.834   5.993  13.394  0.1076  0.2892 -0.1879
   47DOPE   C22 5958   3.638   6.084  13.504  0.0578 -0.0989  0.6256
   47DOPE   H2R 5959   3.602   5.979  13.506 -1.8216  0.2796 -3.1530
   47DOPE   H2S 5960   3.574   6.143  13.435  0.5412  0.2300  0.4539
   47DOPE    C3 5961   4.035   6.259  13.420  0.5910  0.4469 -0.0148
   47DOPE    HX 5962   4.113   6.293  13.349  0.4000  4.3998  1.4089
   47DOPE    HY 5963   4.069   6.168  13.474  1.5192  0.4573 -0.5567
   47DOPE   O31 5964   4.006   6.375  13.501 -0.1017 -0.3338 -0.6430
   47DOPE   C31 5965   3.994   6.356  13.633  0.0403 -0.2269 -0.1354
   47DOPE   O32 5966   3.994   6.245  13.683 -0.0909 -0.2280  0.7235
   47DOPE   C32 5967   4.017   6.491  13.706  0.2339  0.6388 -0.7320
   47DOPE   H2X 5968   4.124   6.501  13.732  0.0048 -0.8358  1.0032
   47DOPE   H2Y 5969   3.982   6.566  13.632 -3.0944 -0.5224 -0.5269
   47DOPE   C23 5970   3.654   6.154  13.638 -0.4493 -0.4574  0.5389
   47DOPE   H3R 5971   3.700   6.254  13.621  0.6448 -0.9872  0.3439
   47DOPE   H3S 5972   3.735   6.109  13.699 -0.2088  1.0337  1.3607
   47DOPE   C24 5973   3.533   6.171  13.715  0.0471  0.3471 -0.3936
   47DOPE   H4R 5974   3.497   6.070  13.745  2.9379 -0.6169  0.1324
   47DOPE   H4S 5975   3.465   6.233  13.653  1.2190  1.3595 -0.6821
   47DOPE   C25 5976   3.552   6.254  13.845  0.0165  0.1412 -0.0830
   47DOPE   H5R 5977   3.453   6.263  13.894 -0.3691 -1.9047 -0.3972
   47DOPE   H5S 5978   3.586   6.356  13.818 -1.6820  0.1878 -2.2612
   47DOPE   C26 5979   3.635   6.198  13.958 -0.0191  0.1004  0.7368
   47DOPE   H6R 5980   3.736   6.177  13.919 -1.5991 -1.6370 -2.9343
   47DOPE   H6S 5981   3.584   6.109  14.003  1.2179 -0.8369  0.3364
   47DOPE   C27 5982   3.650   6.305  14.070 -0.3830  0.2584  0.4709
   47DOPE   H7R 5983   3.557   6.361  14.094  0.1003  1.8249 -1.0834
   47DOPE   H7S 5984   3.717   6.377  14.017 -0.8503 -1.8735 -3.2903
   47DOPE   C28 5985   3.721   6.249  14.190  0.4916 -0.0554  0.4126
   47DOPE   H8R 5986   3.753   6.339  14.247 -0.4923  1.8944 -1.9430
   47DOPE   H8S 5987   3.807   6.196  14.146 -0.8158 -0.5853 -1.6792
   47DOPE   C29 5988   3.635   6.155  14.266 -0.0732  0.1955  0.2160
   47DOPE   H9R 5989   3.569   6.085  14.212  3.1305 -2.5915 -0.4316
   47DOPE  C210 5990   3.639   6.144  14.398  0.2545 -0.3774  0.6688
   47DOPE  H10R 5991   3.561   6.079  14.440 -1.1795  1.3054  0.7476
   47DOPE  C211 5992   3.722   6.217  14.501  0.8435 -0.0187 -0.3208
   47DOPE  H11R 5993   3.650   6.283  14.554 -1.4030 -0.6273 -2.4311
   47DOPE  H11S 5994   3.792   6.284  14.446  0.6067  0.4653 -0.0373
   47DOPE  C212 5995   3.794   6.121  14.596  0.5175 -0.1830 -0.1172
   47DOPE  H12R 5996   3.862   6.183  14.657 -0.7098  0.8085  0.2851
   47DOPE  H12S 5997   3.853   6.053  14.531  1.0278 -0.4614  0.6252
   47DOPE  C213 5998   3.698   6.053  14.687 -0.0764 -0.1893 -0.2632
   47DOPE  H13R 5999   3.639   5.976  14.633  1.3706 -0.4412 -1.5623
   47DOPE  H13S 6000   3.621   6.126  14.719  1.2704  1.0211  0.2842
   47DOPE  C214 6001   3.760   6.004  14.816  0.3400  0.1050 -0.0679
   47DOPE  H14R 6002   3.807   6.097  14.855 -1.3887  1.8449 -1.9089
   47DOPE  H14S 6003   3.838   5.926  14.799 -1.7144 -2.5968  1.8933
   47DOPE  C215 6004   3.664   5.936  14.916  0.7286  1.1055 -0.2909
   47DOPE  H15R 6005   3.577   6.005  14.916 -0.6522 -0.5484 -1.4951
   47DOPE  H15S 6006   3.714   5.922  15.014 -2.2358 -0.6523  1.1208
   47DOPE  C216 6007   3.617   5.800  14.868  0.6046 -0.4364  0.4668
   47DOPE  H16R 6008   3.690   5.730  14.823 -0.1910 -0.7870 -0.3115
   47DOPE  H16S 6009   3.546   5.799  14.782  1.1280  1.0441 -0.0145
   47DOPE  C217 6010   3.543   5.724  14.979 -0.4972 -0.2313  0.6845
   47DOPE  H17R 6011   3.458   5.791  15.004 -1.7031 -2.1223  1.9316
   47DOPE  H17S 6012   3.609   5.724  15.068  1.1343  4.5434 -0.2443
   47DOPE  C218 6013   3.481   5.591  14.947 -0.2278 -0.0680 -0.0381
   47DOPE  H18R 6014   3.453   5.528  15.034  0.5709 -1.2106 -0.5823
   47DOPE  H18S 6015   3.539   5.520  14.885 -1.5631 -2.0533  0.8950
   47DOPE  H18T 6016   3.390   5.611  14.887 -0.0994 -0.6324 -0.4276
   47DOPE   C33 6017   3.950   6.491  13.849  0.6776  0.3006 -0.4139
   47DOPE   H3X 6018   3.936   6.386  13.882  0.3142  0.3603 -0.3776
   47DOPE   H3Y 6019   3.849   6.534  13.832  0.8474  0.8547 -0.0388
   47DOPE   C34 6020   4.018   6.559  13.969  0.1576  0.5846 -0.2181
   47DOPE   H4X 6021   4.118   6.512  13.974  0.3014  0.9867  3.5973
   47DOPE   H4Y 6022   4.023   6.669  13.955 -0.3006  0.2903 -3.5268
   47DOPE   C35 6023   3.948   6.536  14.104 -0.0998  0.2074  0.3686
   47DOPE   H5X 6024   3.958   6.427  14.120  0.9754 -0.2824 -3.0149
   47DOPE   H5Y 6025   3.844   6.573  14.088 -0.5817 -2.0222 -2.3728
   47DOPE   C36 6026   4.009   6.610  14.222  0.4365  0.0698 -0.0302
   47DOPE   H6X 6027   4.042   6.711  14.189  1.5479 -0.6763 -1.3502
   47DOPE   H6Y 6028   4.099   6.558  14.261  0.7503 -0.0520 -0.8841
   47DOPE   C37 6029   3.912   6.614  14.344 -0.3599  0.7518  0.2928
   47DOPE   H7X 6030   3.837   6.694  14.323 -1.5696 -0.1424  1.0768
   47DOPE   H7Y 6031   3.859   6.516  14.351  0.4344  0.3465  0.7787
   47DOPE   C38 6032   3.975   6.632  14.485  0.4588 -0.3955 -0.6028
   47DOPE   H8X 6033   4.043   6.548  14.511 -0.8915 -1.4407 -0.3602
   47DOPE   H8Y 6034   3.888   6.630  14.554 -1.3152  1.6107 -2.6169
   47DOPE   C39 6035   4.027   6.778  14.496 -0.2248  0.1469 -0.4556
   47DOPE   H9X 6036   4.129   6.782  14.455 -0.5747 -0.0667 -1.3673
   47DOPE  C310 6037   3.974   6.887  14.544  0.0888 -0.1139 -0.2215
   47DOPE  H10X 6038   4.042   6.973  14.556  0.7169 -0.9399  3.1516
   47DOPE  C311 6039   3.839   6.898  14.603 -0.3398  0.6850 -0.2693
   47DOPE  H11X 6040   3.794   6.802  14.637  0.8013 -0.1591 -1.0536
   47DOPE  H11Y 6041   3.842   6.955  14.698 -0.4077 -0.3806  0.3822
   47DOPE  C312 6042   3.756   6.998  14.516  0.4523 -0.2386  0.5817
   47DOPE  H12X 6043   3.740   6.951  14.417  2.1312 -0.7334  0.5108
   47DOPE  H12Y 6044   3.812   7.091  14.490  0.7924 -1.2356 -2.7690
   47DOPE  C313 6045   3.621   7.028  14.582  0.1285 -0.3394  0.0553
   47DOPE  H13X 6046   3.645   7.086  14.673  1.1820  1.7514 -1.4777
   47DOPE  H13Y 6047   3.558   7.089  14.514  0.4364  2.6746  2.2776
   47DOPE  C314 6048   3.536   6.911  14.620 -0.4380  0.1944 -0.0946
   47DOPE  H14X 6049   3.592   6.859  14.700  2.2058  0.9209 -1.3732
   47DOPE  H14Y 6050   3.524   6.841  14.535 -0.1128 -0.5917  0.4922
   47DOPE  C315 6051   3.408   6.957  14.692  0.1276 -0.6098  0.2251
   47DOPE  H15X 6052   3.349   7.003  14.610  1.6828  1.3749  0.1727
   47DOPE  H15Y 6053   3.421   7.041  14.763 -2.2465 -2.6550  3.4139
   47DOPE  C316 6054   3.328   6.844  14.743  0.6585 -0.6071  0.2437
   47DOPE  H16X 6055   3.374   6.804  14.836  0.6778 -1.6700 -0.2133
   47DOPE  H16Y 6056   3.320   6.765  14.666  0.3038  0.7568 -1.1808
   47DOPE  C317 6057   3.180   6.879  14.778 -0.1483  0.1193  0.5265
   47DOPE  H17X 6058   3.143   6.796  14.842 -1.6451  0.0730 -0.3503
   47DOPE  H17Y 6059   3.186   6.980  14.824  0.5704  0.5886 -0.5408
   47DOPE  C318 6060   3.085   6.887  14.659  0.4016 -0.4572 -0.5605
   47DOPE  H18X 6061   2.986   6.911  14.702 -0.8863  0.1022 -3.5637
   47DOPE  H18Y 6062   3.108   6.971  14.590  0.2873 -1.4864 -1.8951
   47DOPE  H18Z 6063   3.064   6.794  14.601  1.1117 -0.7867 -0.2973
   48DOPE     N 6064   1.507   3.228  12.543 -0.0492  0.3799 -0.0146
   48DOPE   HN1 6065   1.567   3.308  12.570 -0.2664  0.0210  1.6716
   48DOPE   HN2 6066   1.541   3.174  12.461 -0.8091 -0.0261 -0.0689
   48DOPE   HN3 6067   1.413   3.264  12.515 -0.8230 -1.3197  0.2675
   48DOPE   C12 6068   1.489   3.136  12.661 -0.2597 -0.2008  0.3834
   48DOPE  H12A 6069   1.384   3.139  12.696 -0.5524  0.3093 -0.4980
   48DOPE  H12B 6070   1.563   3.153  12.742  0.9823 -0.8308 -0.5788
   48DOPE   C11 6071   1.529   3.002  12.612  0.2268  0.2954 -0.3721
   48DOPE  H11A 6072   1.529   2.938  12.702  0.9015 -0.1112 -0.6585
   48DOPE  H11B 6073   1.635   3.003  12.579  0.5681 -0.5030  0.6541
   48DOPE     P 6074   1.428   2.802  12.484 -0.0229  0.0422  0.6765
   48DOPE   O13 6075   1.551   2.735  12.529 -0.2156  0.6910 -0.0959
   48DOPE   O14 6076   1.383   2.778  12.342 -0.1780 -0.3408  0.1368
   48DOPE   O11 6077   1.302   2.771  12.583  0.1540 -0.2168 -0.0703
   48DOPE   O12 6078   1.449   2.956  12.509 -0.2595  0.3416  0.1296
   48DOPE    C1 6079   1.165   2.820  12.561  0.2023  0.3859  0.1817
   48DOPE    HA 6080   1.101   2.730  12.577 -1.0805  1.1334 -0.5760
   48DOPE    HB 6081   1.145   2.855  12.457  2.6008  0.5059 -0.2789
   48DOPE    C2 6082   1.125   2.921  12.670 -0.3555 -0.2372 -0.0665
   48DOPE    HS 6083   1.191   3.010  12.660 -0.5979 -0.2042 -1.5551
   48DOPE   O21 6084   1.143   2.869  12.800  0.0842  0.4882  0.0364
   48DOPE   C21 6085   1.144   2.951  12.901 -0.1936  0.2998 -0.0994
   48DOPE   O22 6086   1.136   3.076  12.885 -0.3427 -0.3697 -1.0298
   48DOPE   C22 6087   1.160   2.873  13.032  0.1799  0.2010  0.0640
   48DOPE   H2R 6088   1.259   2.903  13.075 -0.9350  0.4451  2.6411
   48DOPE   H2S 6089   1.152   2.766  13.006 -2.8338  0.6194 -1.0486
   48DOPE    C3 6090   0.978   2.973  12.639 -0.4996  0.1262  0.2684
   48DOPE    HX 6091   0.989   3.026  12.542  2.6194  0.2810  0.6025
   48DOPE    HY 6092   0.944   3.048  12.714  2.1187  1.2750  0.4153
   48DOPE   O31 6093   0.891   2.852  12.631 -1.0420 -1.2827  0.2749
   48DOPE   C31 6094   0.861   2.796  12.747 -0.2249 -0.6639  0.3868
   48DOPE   O32 6095   0.869   2.843  12.858 -0.4486 -0.2591 -0.7498
   48DOPE   C32 6096   0.797   2.660  12.722 -0.0014 -0.5702  0.1203
   48DOPE   H2X 6097   0.690   2.672  12.748  0.1347 -2.2389  1.6539
   48DOPE   H2Y 6098   0.810   2.631  12.616  2.8854  0.1782  0.1741
   48DOPE   C23 6099   1.050   2.913  13.133  0.2815  0.4457  0.7404
   48DOPE   H3R 6100   0.957   2.866  13.095  1.4313 -3.2456  1.9629
   48DOPE   H3S 6101   1.047   3.024  13.136  2.7144  0.6728 -1.4389
   48DOPE   C24 6102   1.069   2.855  13.272  0.1449  0.1007 -0.1124
   48DOPE   H4R 6103   1.164   2.889  13.319  0.7155 -1.1863 -0.2588
   48DOPE   H4S 6104   1.068   2.746  13.247 -2.3251 -0.0588  0.4098
   48DOPE   C25 6105   0.961   2.894  13.366  0.4044 -0.2603 -0.0565
   48DOPE   H5R 6106   0.865   2.892  13.310 -0.5004 -1.7762  1.4541
   48DOPE   H5S 6107   0.975   2.992  13.417  0.4874  0.9913 -2.3737
   48DOPE   C26 6108   0.950   2.790  13.474 -0.0260  0.0525 -0.9865
   48DOPE   H6R 6109   1.022   2.813  13.555 -0.0806  0.2406 -0.9896
   48DOPE   H6S 6110   0.992   2.692  13.444  0.6105 -0.5536  1.6449
   48DOPE   C27 6111   0.817   2.770  13.538  0.6930 -0.0168  0.6369
   48DOPE   H7R 6112   0.756   2.713  13.465 -0.7259  2.2098 -0.0127
   48DOPE   H7S 6113   0.774   2.869  13.560 -0.3583 -0.2162 -0.4599
   48DOPE   C28 6114   0.840   2.680  13.663 -0.4415  0.6276 -0.0492
   48DOPE   H8R 6115   0.898   2.594  13.624 -0.9849 -1.1473  2.7624
   48DOPE   H8S 6116   0.735   2.649  13.684 -0.1868 -0.9112 -0.9600
   48DOPE   C29 6117   0.904   2.753  13.779 -0.1869  0.4075 -0.3295
   48DOPE   H9R 6118   0.954   2.850  13.768  1.7776 -0.3987  0.8270
   48DOPE  C210 6119   0.898   2.707  13.905 -0.7141  0.4663 -0.3344
   48DOPE  H10R 6120   0.919   2.774  13.990  0.0845  0.0867 -0.2279
   48DOPE  C211 6121   0.851   2.568  13.950 -0.4049  0.3749  0.3008
   48DOPE  H11R 6122   0.940   2.505  13.970  0.3889  1.2015 -0.5472
   48DOPE  H11S 6123   0.797   2.515  13.868 -1.6925  2.8257 -0.5421
   48DOPE  C212 6124   0.765   2.585  14.074 -0.1516 -0.2923 -0.2582
   48DOPE  H12R 6125   0.701   2.494  14.084  0.0770 -0.7445 -2.4219
   48DOPE  H12S 6126   0.683   2.658  14.055  0.1518  0.6532  1.8090
   48DOPE  C213 6127   0.834   2.609  14.209  0.3005 -0.1186  0.6668
   48DOPE  H13R 6128   0.909   2.688  14.189  0.2789 -0.1839  0.3179
   48DOPE  H13S 6129   0.891   2.516  14.230  0.8684 -0.0505 -0.5033
   48DOPE  C214 6130   0.740   2.648  14.324  0.5607  0.3738 -0.4807
   48DOPE  H14R 6131   0.656   2.576  14.337  1.4356 -0.8606 -1.4581
   48DOPE  H14S 6132   0.684   2.742  14.302 -1.8306 -0.2360  2.2966
   48DOPE  C215 6133   0.811   2.648  14.464 -0.4357  0.5108  0.4801
   48DOPE  H15R 6134   0.877   2.737  14.473  1.3232 -0.6795 -0.1739
   48DOPE  H15S 6135   0.879   2.560  14.462 -3.6014 -2.1057 -0.8665
   48DOPE  C216 6136   0.711   2.640  14.578 -0.6293  0.5316 -0.3452
   48DOPE  H16R 6137   0.635   2.561  14.560 -0.9031  0.5546  0.6171
   48DOPE  H16S 6138   0.649   2.731  14.596 -1.2766  0.1414 -0.5728
   48DOPE  C217 6139   0.775   2.595  14.713  0.0129 -0.1658 -0.0130
   48DOPE  H17R 6140   0.846   2.676  14.741 -1.9667  1.8871 -0.6189
   48DOPE  H17S 6141   0.828   2.500  14.688 -1.4346 -0.7106 -1.0914
   48DOPE  C218 6142   0.677   2.552  14.824 -0.0241  0.3743 -0.7312
   48DOPE  H18R 6143   0.727   2.475  14.886 -0.0924 -1.7653 -3.1383
   48DOPE  H18S 6144   0.586   2.505  14.780  1.0951 -1.3101 -1.3402
   48DOPE  H18T 6145   0.644   2.644  14.878 -1.0907  0.1455 -0.9723
   48DOPE   C33 6146   0.844   2.561  12.827  0.5989  0.4722  0.1858
   48DOPE   H3X 6147   0.883   2.608  12.920 -0.7865  2.4483 -0.1798
   48DOPE   H3Y 6148   0.927   2.496  12.789 -0.7667 -1.8732  1.0515
   48DOPE   C34 6149   0.724   2.482  12.875  0.6731  1.0225 -0.0868
   48DOPE   H4X 6150   0.658   2.445  12.793 -0.1977 -1.1467  1.5163
   48DOPE   H4Y 6151   0.758   2.387  12.922 -1.2683  1.1970  1.8056
   48DOPE   C35 6152   0.639   2.547  12.982  0.0551  0.0313 -0.3053
   48DOPE   H5X 6153   0.595   2.640  12.942  1.0482  0.6280 -0.0438
   48DOPE   H5Y 6154   0.710   2.577  13.062  0.4392 -2.2646  0.2841
   48DOPE   C36 6155   0.529   2.451  13.042  0.0593 -0.0461  0.1712
   48DOPE   H6X 6156   0.568   2.366  13.102 -0.2087  0.8179  1.6052
   48DOPE   H6Y 6157   0.471   2.416  12.955 -0.7802  0.6090  0.4543
   48DOPE   C37 6158   0.438   2.517  13.146  0.4138 -0.1766  0.2610
   48DOPE   H7X 6159   0.495   2.523  13.241  2.4473  2.3689 -0.9914
   48DOPE   H7Y 6160   0.420   2.624  13.124 -1.4007  0.0432  2.4403
   48DOPE   C38 6161   0.310   2.440  13.189  0.5246  0.3206 -0.2463
   48DOPE   H8X 6162   0.271   2.472  13.288  0.5711 -0.3911  0.0081
   48DOPE   H8Y 6163   0.334   2.331  13.196 -0.4726  0.1022 -0.0873
   48DOPE   C39 6164   0.204   2.465  13.083  0.0465 -0.0191 -0.2253
   48DOPE   H9X 6165   0.240   2.446  12.981  2.5164 -0.8443  0.7149
   48DOPE  C310 6166   0.078   2.495  13.104  0.2747  0.4366 -0.7309
   48DOPE  H10X 6167   0.010   2.490  13.019  0.3902 -2.0887 -0.7328
   48DOPE  C311 6168   0.010   2.517  13.236 -0.2099 -0.6602  0.0733
   48DOPE  H11X 6169   0.066   2.472  13.321  1.1586  1.7830  0.5473
   48DOPE  H11Y 6170   0.019   2.625  13.260  1.1008 -0.3609 -1.6049
   48DOPE  C312 6171  -0.143   2.478  13.239 -0.3333  0.5703  0.4845
   48DOPE  H12X 6172  -0.164   2.379  13.192  2.0448  0.3506 -0.2269
   48DOPE  H12Y 6173  -0.209   2.556  13.196 -2.1462 -0.6796  0.8651
   48DOPE  C313 6174  -0.192   2.465  13.377 -0.8121  0.0500  0.0017
   48DOPE  H13X 6175  -0.138   2.384  13.429 -2.0172 -0.6284  0.2176
   48DOPE  H13Y 6176  -0.155   2.550  13.438 -0.7638  0.3971 -0.4979
   48DOPE  C314 6177  -0.340   2.440  13.403 -0.4010  0.2596  0.2095
   48DOPE  H14X 6178  -0.382   2.373  13.326  0.6370  0.4877 -0.5785
   48DOPE  H14Y 6179  -0.396   2.536  13.391  0.3686  0.6762 -0.1270
   48DOPE  C315 6180  -0.373   2.392  13.548 -0.4715  0.0242 -0.4611
   48DOPE  H15X 6181  -0.324   2.300  13.587 -1.5183  0.1305  1.2341
   48DOPE  H15Y 6182  -0.482   2.373  13.551 -0.7584  0.9635 -2.9316
   48DOPE  C316 6183  -0.353   2.504  13.656  0.5428  0.0375  0.2648
   48DOPE  H16X 6184  -0.416   2.593  13.635 -2.4812 -1.3772  2.5767
   48DOPE  H16Y 6185  -0.248   2.541  13.654  1.1477 -1.2327  3.0167
   48DOPE  C317 6186  -0.386   2.466  13.802  0.1272  0.5219 -0.7323
   48DOPE  H17X 6187  -0.323   2.380  13.834 -0.2494  1.2985  2.3577
   48DOPE  H17Y 6188  -0.359   2.550  13.869  0.2582  1.1888 -1.6019
   48DOPE  C318 6189  -0.537   2.432  13.831  0.3712  0.6240  0.3200
   48DOPE  H18X 6190  -0.578   2.342  13.780 -2.6637  1.8116  0.4038
   48DOPE  H18Y 6191  -0.550   2.404  13.938  1.7865 -0.6960  0.1737
   48DOPE  H18Z 6192  -0.601   2.518  13.800 -1.8400 -1.6159 -1.8082
   49DOPE     N 6193   3.556   0.092  12.717 -0.0965  0.0744  0.2639
   49DOPE   HN1 6194   3.624   0.091  12.638 -3.0597  0.3008 -2.5400
   49DOPE   HN2 6195   3.580   0.020  12.788 -1.2310 -0.1130  0.4839
   49DOPE   HN3 6196   3.462   0.078  12.673  0.0958  3.3048 -1.4965
   49DOPE   C12 6197   3.549   0.226  12.776  0.1950 -0.3913  0.0514
   49DOPE  H12A 6198   3.652   0.243  12.815  0.9856 -1.8085 -1.2678
   49DOPE  H12B 6199   3.473   0.220  12.857  0.5042  0.6530  0.4415
   49DOPE   C11 6200   3.515   0.336  12.673 -0.1072 -0.1892  0.3656
   49DOPE  H11A 6201   3.530   0.432  12.726 -1.3000 -1.3549  3.0412
   49DOPE  H11B 6202   3.409   0.329  12.638  0.8448 -2.3180 -2.4458
   49DOPE     P 6203   3.597   0.430  12.439  0.9556  0.7298  0.0490
   49DOPE   O13 6204   3.461   0.466  12.384  0.5957 -0.1037  0.1268
   49DOPE   O14 6205   3.697   0.384  12.338 -0.3047 -0.5383  0.0930
   49DOPE   O11 6206   3.654   0.556  12.515 -0.4179  0.1441  0.0091
   49DOPE   O12 6207   3.598   0.322  12.553 -0.0588  0.2050 -0.3856
   49DOPE    C1 6208   3.794   0.538  12.565  0.6814 -0.2835  0.4627
   49DOPE    HA 6209   3.864   0.586  12.493  0.0003  0.9909  0.6281
   49DOPE    HB 6210   3.828   0.433  12.580  0.2324 -0.3276  1.2068
   49DOPE    C2 6211   3.814   0.602  12.705 -0.1100  0.3120 -0.0045
   49DOPE    HS 6212   3.749   0.537  12.767 -4.5739  0.6906 -3.7084
   49DOPE   O21 6213   3.766   0.738  12.715 -0.1215 -0.4779  0.5795
   49DOPE   C21 6214   3.637   0.768  12.734  0.5531 -0.5706  1.0816
   49DOPE   O22 6215   3.545   0.691  12.755 -0.0228  0.1371 -0.3659
   49DOPE   C22 6216   3.620   0.922  12.717 -0.4835 -0.0913 -0.3770
   49DOPE   H2R 6217   3.524   0.954  12.672 -0.4712 -0.4180 -0.6361
   49DOPE   H2S 6218   3.705   0.955  12.654 -0.5236  2.8453  0.9104
   49DOPE    C3 6219   3.966   0.612  12.743 -0.0455  1.3614  0.1045
   49DOPE    HX 6220   4.006   0.691  12.676 -0.2379  1.4715  0.1177
   49DOPE    HY 6221   4.012   0.512  12.727 -2.7826 -0.2070  1.4348
   49DOPE   O31 6222   3.996   0.652  12.876 -0.4307  0.1526 -0.0336
   49DOPE   C31 6223   4.000   0.553  12.968  0.4425  0.5039 -0.3333
   49DOPE   O32 6224   3.980   0.436  12.948  0.3231  0.1389 -0.3605
   49DOPE   C32 6225   4.014   0.602  13.115  0.0451  0.5327  0.0688
   49DOPE   H2X 6226   3.990   0.710  13.121 -1.1396  0.2561  0.6907
   49DOPE   H2Y 6227   3.929   0.554  13.168 -1.8671  1.5088 -1.9637
   49DOPE   C23 6228   3.625   0.986  12.864 -0.3399 -0.8279  0.6982
   49DOPE   H3R 6229   3.695   0.926  12.926  0.5129 -0.2425  0.3146
   49DOPE   H3S 6230   3.521   0.984  12.905 -0.6780 -0.4855 -0.1268
   49DOPE   C24 6231   3.681   1.137  12.862  0.1020 -0.0784  0.0733
   49DOPE   H4R 6232   3.641   1.209  12.788 -1.2295 -0.0284  0.8066
   49DOPE   H4S 6233   3.787   1.137  12.831  0.0845 -2.7928 -0.2422
   49DOPE   C25 6234   3.693   1.203  12.991  0.0311 -0.1246 -0.2445
   49DOPE   H5R 6235   3.753   1.296  12.974 -0.1801  0.1807  0.6326
   49DOPE   H5S 6236   3.743   1.136  13.064 -4.2519 -2.2844  1.0210
   49DOPE   C26 6237   3.561   1.253  13.049  0.1697 -0.1849 -0.0752
   49DOPE   H6R 6238   3.503   1.166  13.086  1.0100 -0.2466  1.1615
   49DOPE   H6S 6239   3.507   1.318  12.977 -0.6785 -1.0480 -0.2353
   49DOPE   C27 6240   3.573   1.321  13.189  0.4922  0.6404  0.3134
   49DOPE   H7R 6241   3.614   1.424  13.177 -1.4428  1.3935 -0.2313
   49DOPE   H7S 6242   3.662   1.272  13.235  1.3314 -2.0409 -3.6753
   49DOPE   C28 6243   3.444   1.309  13.275 -0.7738 -0.4988 -0.4311
   49DOPE   H8R 6244   3.420   1.201  13.276 -0.7575 -0.5381  1.8270
   49DOPE   H8S 6245   3.353   1.353  13.230 -1.0538 -0.0310  0.5484
   49DOPE   C29 6246   3.475   1.371  13.405 -1.0081 -0.0531  0.5944
   49DOPE   H9R 6247   3.470   1.481  13.411 -1.3727  0.0110 -0.6186
   49DOPE  C210 6248   3.513   1.304  13.512  0.6222 -0.3374 -0.4030
   49DOPE  H10R 6249   3.512   1.353  13.610 -0.5916  0.8667 -0.9836
   49DOPE  C211 6250   3.522   1.151  13.525 -0.4884 -0.2905  0.0764
   49DOPE  H11R 6251   3.497   1.084  13.440  2.1771 -0.7205 -0.4858
   49DOPE  H11S 6252   3.448   1.125  13.603  0.6226 -0.1368  1.2090
   49DOPE  C212 6253   3.659   1.096  13.569  0.5672 -0.0045 -0.4982
   49DOPE  H12R 6254   3.632   0.992  13.599 -1.3254  0.8264  0.8613
   49DOPE  H12S 6255   3.689   1.147  13.663 -0.6471  0.5058 -0.3830
   49DOPE  C213 6256   3.769   1.097  13.462  0.1607 -0.6633  0.1933
   49DOPE  H13R 6257   3.865   1.060  13.503 -0.6423 -0.4499  2.4129
   49DOPE  H13S 6258   3.772   1.200  13.421  0.8237 -0.9507 -0.4884
   49DOPE  C214 6259   3.730   1.017  13.336  0.6391 -0.8296 -0.2687
   49DOPE  H14R 6260   3.812   1.021  13.262 -0.2466  1.5168 -1.2229
   49DOPE  H14S 6261   3.647   1.069  13.285  1.1545  0.8052  0.4959
   49DOPE  C215 6262   3.694   0.863  13.358  0.0498 -0.5818 -0.0758
   49DOPE  H15R 6263   3.600   0.858  13.417  0.3377 -0.3571  0.4109
   49DOPE  H15S 6264   3.781   0.814  13.407  1.6246  2.5124  0.4428
   49DOPE  C216 6265   3.670   0.799  13.212 -0.5054  0.0614  0.2175
   49DOPE  H16R 6266   3.739   0.850  13.141 -1.3097  1.1588  0.2028
   49DOPE  H16S 6267   3.566   0.822  13.183 -0.6039 -1.7448 -1.0313
   49DOPE  C217 6268   3.692   0.647  13.217 -0.0386  0.0658 -0.4362
   49DOPE  H17R 6269   3.624   0.616  13.299  2.2607 -1.3998  1.0115
   49DOPE  H17S 6270   3.786   0.626  13.271 -1.1150  1.2571  2.1020
   49DOPE  C218 6271   3.668   0.562  13.092 -0.1181 -0.5844  0.5566
   49DOPE  H18R 6272   3.570   0.591  13.048 -0.7011 -0.9524  1.5891
   49DOPE  H18S 6273   3.662   0.454  13.119  0.5867 -1.3404 -1.9435
   49DOPE  H18T 6274   3.744   0.566  13.011 -0.6950 -3.3885 -0.2368
   49DOPE   C33 6275   4.163   0.573  13.163 -0.6834  0.4486  0.2803
   49DOPE   H3X 6276   4.214   0.645  13.094 -1.5467 -0.7081 -1.6551
   49DOPE   H3Y 6277   4.190   0.467  13.144 -1.7356  0.6239 -2.8763
   49DOPE   C34 6278   4.176   0.611  13.313  0.7657  0.2648  0.2776
   49DOPE   H4X 6279   4.285   0.613  13.333  0.7895 -0.8486  0.2880
   49DOPE   H4Y 6280   4.146   0.712  13.349 -2.1357  0.3617 -1.9996
   49DOPE   C35 6281   4.124   0.499  13.410  0.0257 -0.0364 -0.4240
   49DOPE   H5X 6282   4.137   0.406  13.351  0.8575 -0.6351  0.6725
   49DOPE   H5Y 6283   4.019   0.531  13.427  0.2520  0.6339 -0.2575
   49DOPE   C36 6284   4.210   0.486  13.540 -0.0783  0.0685 -0.5807
   49DOPE   H6X 6285   4.309   0.448  13.507 -0.1346  0.1530 -0.8474
   49DOPE   H6Y 6286   4.154   0.406  13.595 -0.8077 -0.1064 -1.5379
   49DOPE   C37 6287   4.230   0.610  13.622  0.0018  0.3689 -0.3174
   49DOPE   H7X 6288   4.306   0.673  13.572 -0.6346  0.3814 -1.3007
   49DOPE   H7Y 6289   4.137   0.671  13.623  1.1521  2.2687  2.3794
   49DOPE   C38 6290   4.272   0.574  13.763 -0.1833  0.3385 -0.4488
   49DOPE   H8X 6291   4.316   0.664  13.811  1.5182 -0.4776 -0.4115
   49DOPE   H8Y 6292   4.359   0.506  13.765  0.5475  1.2678  0.7974
   49DOPE   C39 6293   4.147   0.528  13.840  0.1822  0.0456  0.1351
   49DOPE   H9X 6294   4.083   0.452  13.793  1.8805 -0.9857 -0.6205
   49DOPE  C310 6295   4.114   0.552  13.965 -0.1685 -0.0604 -0.1892
   49DOPE  H10X 6296   4.019   0.514  14.006  0.8493 -1.5283  0.8741
   49DOPE  C311 6297   4.198   0.640  14.051 -0.1770  0.2310 -0.1425
   49DOPE  H11X 6298   4.307   0.631  14.035 -0.0598 -2.9020  1.6208
   49DOPE  H11Y 6299   4.166   0.745  14.037  3.2528  1.8267  2.5314
   49DOPE  C312 6300   4.169   0.614  14.202  0.0814 -0.3197  0.1206
   49DOPE  H12X 6301   4.058   0.612  14.210  0.0154 -1.0422 -0.8126
   49DOPE  H12Y 6302   4.225   0.697  14.250  0.3137 -0.7809  0.6560
   49DOPE  C313 6303   4.228   0.485  14.268 -0.0310 -0.2675 -0.3634
   49DOPE  H13X 6304   4.160   0.403  14.238 -0.4061  0.1016 -0.5279
   49DOPE  H13Y 6305   4.322   0.458  14.214  0.7557  0.6026  0.5250
   49DOPE  C314 6306   4.245   0.487  14.421  0.0733  0.1159  0.1756
   49DOPE  H14X 6307   4.311   0.574  14.443  0.6804 -0.3846  0.3502
   49DOPE  H14Y 6308   4.291   0.388  14.441 -0.4077 -0.7245 -2.4730
   49DOPE  C315 6309   4.116   0.512  14.498  0.4798 -0.0358  0.0654
   49DOPE  H15X 6310   4.035   0.445  14.461  0.1746  0.1670  0.3572
   49DOPE  H15Y 6311   4.081   0.613  14.468 -1.2726 -0.3336  0.9587
   49DOPE  C316 6312   4.121   0.485  14.652  0.0757 -0.0479  0.4766
   49DOPE  H16X 6313   4.132   0.376  14.673 -2.2659 -0.3748  0.2443
   49DOPE  H16Y 6314   4.023   0.509  14.698 -0.7274 -1.7520 -0.2441
   49DOPE  C317 6315   4.226   0.572  14.728 -0.1555  0.1026  0.0519
   49DOPE  H17X 6316   4.284   0.516  14.804 -0.9662 -1.3778 -0.3975
   49DOPE  H17Y 6317   4.306   0.605  14.658 -0.4314  1.8221  0.4840
   49DOPE  C318 6318   4.161   0.697  14.791  0.5718  0.9292  0.5278
   49DOPE  H18X 6319   4.094   0.652  14.868  1.1108  0.3113  0.6423
   49DOPE  H18Y 6320   4.234   0.754  14.851  4.2787 -3.0263  0.2877
   49DOPE  H18Z 6321   4.096   0.745  14.714  0.9215  0.2723 -0.1969
   50DOPE     N 6322   1.757   5.037  12.970 -0.2497 -0.1980 -0.1523
   50DOPE   HN1 6323   1.655   5.057  12.972  0.2452  2.7956 -0.7743
   50DOPE   HN2 6324   1.793   4.954  13.022  0.9878  1.8858  2.5553
   50DOPE   HN3 6325   1.807   5.118  13.012  0.0390 -1.1675  1.4925
   50DOPE   C12 6326   1.813   5.038  12.825 -0.6045  0.3850 -0.1143
   50DOPE  H12A 6327   1.796   5.142  12.789 -1.0072  0.3963  0.0964
   50DOPE  H12B 6328   1.774   4.956  12.762  1.3968 -1.5203  0.9647
   50DOPE   C11 6329   1.965   5.021  12.837  0.4797 -0.1930 -1.2004
   50DOPE  H11A 6330   2.000   5.118  12.878  0.8286  0.3327 -2.6932
   50DOPE  H11B 6331   2.016   5.019  12.738 -1.4303 -0.1426 -2.2265
   50DOPE     P 6332   2.080   4.792  12.857  0.1588 -0.1985 -0.2077
   50DOPE   O13 6333   2.033   4.771  12.716  0.0500  0.1294 -0.1345
   50DOPE   O14 6334   2.068   4.678  12.947 -0.1043  0.0360  0.2128
   50DOPE   O11 6335   2.231   4.836  12.858 -0.3574  0.1640  0.6977
   50DOPE   O12 6336   1.993   4.910  12.924  0.0707 -0.2049 -0.0331
   50DOPE    C1 6337   2.291   4.952  12.906  0.1300 -1.1299  0.7921
   50DOPE    HA 6338   2.230   5.045  12.897  1.0467 -0.7037 -1.6347
   50DOPE    HB 6339   2.393   4.967  12.864 -0.1282  0.2392  0.5934
   50DOPE    C2 6340   2.333   4.937  13.056  0.2798 -0.2149  1.5649
   50DOPE    HS 6341   2.236   4.938  13.109 -1.1580  2.6731 -0.8255
   50DOPE   O21 6342   2.414   5.043  13.103 -0.4000 -0.5694 -0.6538
   50DOPE   C21 6343   2.361   5.151  13.141 -0.5377  0.1740  0.0198
   50DOPE   O22 6344   2.240   5.183  13.144 -0.6993  0.2398  0.1867
   50DOPE   C22 6345   2.474   5.236  13.198 -0.1597 -0.2112  0.1278
   50DOPE   H2R 6346   2.489   5.325  13.135  0.0614 -0.0684  0.3771
   50DOPE   H2S 6347   2.571   5.182  13.191  0.8815  1.3163  1.7104
   50DOPE    C3 6348   2.418   4.811  13.079  0.0265  0.1109 -0.0965
   50DOPE    HX 6349   2.517   4.829  13.032  0.8352  0.9295  1.8423
   50DOPE    HY 6350   2.359   4.724  13.044 -1.4586  1.8413 -2.1891
   50DOPE   O31 6351   2.453   4.791  13.221 -0.2092  0.9097 -0.1498
   50DOPE   C31 6352   2.368   4.740  13.300 -0.0456 -0.2051 -0.7675
   50DOPE   O32 6353   2.274   4.665  13.268 -0.0285 -0.0396  0.1519
   50DOPE   C32 6354   2.387   4.772  13.449  0.0127 -1.0785  0.4331
   50DOPE   H2X 6355   2.457   4.700  13.495  1.9594 -0.8791 -2.0037
   50DOPE   H2Y 6356   2.433   4.873  13.457  2.0371 -1.9258  0.1291
   50DOPE   C23 6357   2.447   5.282  13.338 -0.1150  0.0464 -0.1513
   50DOPE   H3R 6358   2.341   5.312  13.350 -0.7138 -1.4409 -1.2975
   50DOPE   H3S 6359   2.520   5.359  13.369  0.5212 -1.1859  1.5795
   50DOPE   C24 6360   2.469   5.177  13.449  0.6279 -0.7162  1.0838
   50DOPE   H4R 6361   2.572   5.137  13.437  1.1001  0.9478 -1.0451
   50DOPE   H4S 6362   2.403   5.090  13.426  0.8701 -0.7910  0.6532
   50DOPE   C25 6363   2.442   5.240  13.584  0.2652  0.5767  0.4754
   50DOPE   H5R 6364   2.339   5.283  13.594 -0.5996 -0.1805 -3.4218
   50DOPE   H5S 6365   2.519   5.319  13.596  0.8290  0.1618 -0.3125
   50DOPE   C26 6366   2.455   5.140  13.702  0.1019  0.2110 -0.2931
   50DOPE   H6R 6367   2.560   5.104  13.700 -0.2720 -0.9096 -0.4869
   50DOPE   H6S 6368   2.391   5.051  13.687  0.8018 -0.2702 -0.4810
   50DOPE   C27 6369   2.418   5.201  13.836  0.3983  0.1844 -0.4830
   50DOPE   H7R 6370   2.319   5.249  13.825  0.2749  0.7482  2.3965
   50DOPE   H7S 6371   2.494   5.281  13.849  0.0768  0.3015  0.8556
   50DOPE   C28 6372   2.431   5.103  13.953 -0.0246 -0.2535 -0.4268
   50DOPE   H8R 6373   2.538   5.106  13.980 -0.5491  0.1538  1.8623
   50DOPE   H8S 6374   2.399   5.004  13.914 -2.2842  0.2842 -0.1301
   50DOPE   C29 6375   2.331   5.147  14.065 -0.5591 -0.2085  0.1991
   50DOPE   H9R 6376   2.240   5.198  14.029  0.7424  2.7981  0.8956
   50DOPE  C210 6377   2.353   5.142  14.193  0.4097 -0.0376 -0.4128
   50DOPE  H10R 6378   2.275   5.179  14.261  0.2390 -2.4488  0.7916
   50DOPE  C211 6379   2.470   5.077  14.268  0.1224  0.1121 -0.1146
   50DOPE  H11R 6380   2.537   5.162  14.293  0.5459 -0.0950 -0.5287
   50DOPE  H11S 6381   2.527   5.003  14.208 -0.9670 -0.3818 -0.5550
   50DOPE  C212 6382   2.428   5.009  14.397 -0.1927  0.0026  0.3499
   50DOPE  H12R 6383   2.360   4.927  14.366 -0.7591  0.9620 -1.0578
   50DOPE  H12S 6384   2.362   5.072  14.460  0.1039 -0.5519  1.2328
   50DOPE  C213 6385   2.551   4.981  14.487 -0.3918  0.0447  0.4659
   50DOPE  H13R 6386   2.591   5.079  14.523  0.7475  0.0932 -0.8715
   50DOPE  H13S 6387   2.629   4.927  14.431 -0.9400 -0.5438  0.2590
   50DOPE  C214 6388   2.515   4.890  14.609  0.8442 -0.1993  0.4195
   50DOPE  H14R 6389   2.615   4.858  14.646 -0.0917 -3.0903  0.7632
   50DOPE  H14S 6390   2.458   4.800  14.576 -0.8867  1.7271 -2.1410
   50DOPE  C215 6391   2.420   4.959  14.705  0.4901  0.0728  0.3049
   50DOPE  H15R 6392   2.322   4.953  14.653  0.6938 -0.6591 -0.0086
   50DOPE  H15S 6393   2.446   5.066  14.722 -0.7191  0.1982  1.5349
   50DOPE  C216 6394   2.408   4.882  14.831  0.1358  0.4025  0.1603
   50DOPE  H16R 6395   2.381   4.778  14.804 -1.1006  0.3063  1.6373
   50DOPE  H16S 6396   2.324   4.921  14.892  0.1378  1.3781 -0.4345
   50DOPE  C217 6397   2.528   4.890  14.926  0.2619 -0.0145  0.2350
   50DOPE  H17R 6398   2.571   4.993  14.924  1.8993 -0.6784 -0.6503
   50DOPE  H17S 6399   2.606   4.837  14.867 -1.0267  0.8701 -2.3829
   50DOPE  C218 6400   2.507   4.855  15.074  0.7994 -0.0806  0.3711
   50DOPE  H18R 6401   2.595   4.884  15.136  0.2751 -0.5869  1.3776
   50DOPE  H18S 6402   2.501   4.744  15.067 -0.4464 -0.0016  0.0291
   50DOPE  H18T 6403   2.412   4.899  15.109  0.2486  0.9248 -2.1687
   50DOPE   C33 6404   2.249   4.765  13.535  0.4122  0.7830 -0.7430
   50DOPE   H3X 6405   2.195   4.672  13.508  2.5942 -0.8349  0.1795
   50DOPE   H3Y 6406   2.180   4.847  13.506 -0.4399  0.4629  0.3193
   50DOPE   C34 6407   2.276   4.776  13.688 -0.4261 -0.5764 -0.0760
   50DOPE   H4X 6408   2.335   4.687  13.719 -0.0818 -0.6137 -0.8028
   50DOPE   H4Y 6409   2.341   4.866  13.693 -2.0334  0.7770 -2.2912
   50DOPE   C35 6410   2.153   4.780  13.767  0.2374 -0.1675 -0.0538
   50DOPE   H5X 6411   2.077   4.704  13.739  1.3795 -0.0028 -4.4162
   50DOPE   H5Y 6412   2.093   4.869  13.739 -0.4748 -0.2146  1.2729
   50DOPE   C36 6413   2.177   4.797  13.919 -0.1435 -0.1497  0.7163
   50DOPE   H6X 6414   2.138   4.893  13.957  1.0795  1.0793 -0.9854
   50DOPE   H6Y 6415   2.284   4.800  13.948 -0.8423 -0.1773  3.5253
   50DOPE   C37 6416   2.115   4.680  14.002 -0.3777  0.0780  0.5221
   50DOPE   H7X 6417   2.007   4.676  13.977 -0.6075  0.3455  1.4579
   50DOPE   H7Y 6418   2.164   4.588  13.961 -0.3208 -0.5654  1.9732
   50DOPE   C38 6419   2.146   4.693  14.152 -0.2487  0.2041  0.2525
   50DOPE   H8X 6420   2.126   4.788  14.205  1.9781  0.5583  0.5926
   50DOPE   H8Y 6421   2.256   4.677  14.157 -0.3737 -0.5015  0.9931
   50DOPE   C39 6422   2.071   4.577  14.230 -0.0042  0.8077  0.1395
   50DOPE   H9X 6423   2.043   4.500  14.156  2.2009  1.9896 -2.0946
   50DOPE  C310 6424   2.026   4.578  14.355  0.2925 -0.4844  0.1411
   50DOPE  H10X 6425   1.982   4.486  14.397  1.8171 -1.2017  0.2392
   50DOPE  C311 6426   2.051   4.687  14.454 -0.0091  0.1753  0.1589
   50DOPE  H11X 6427   2.047   4.784  14.399  0.5731  1.6722  2.5938
   50DOPE  H11Y 6428   1.961   4.699  14.517 -0.0686  1.4300 -0.1432
   50DOPE  C312 6429   2.181   4.667  14.541  1.0101  0.0887 -0.2309
   50DOPE  H12X 6430   2.231   4.762  14.571  1.5672 -0.7110  1.5504
   50DOPE  H12Y 6431   2.253   4.611  14.477  1.4603 -2.5726  2.3970
   50DOPE  C313 6432   2.166   4.585  14.677  0.3729 -0.3189 -0.1672
   50DOPE  H13X 6433   2.119   4.487  14.655 -1.3229  0.1024  1.3098
   50DOPE  H13Y 6434   2.271   4.576  14.713  0.5898 -0.8008 -0.9012
   50DOPE  C314 6435   2.073   4.648  14.785 -0.0020  0.1223  0.2768
   50DOPE  H14X 6436   1.969   4.663  14.749  0.1892  1.3908  0.2309
   50DOPE  H14Y 6437   2.122   4.745  14.804  2.2094 -0.6100 -1.3111
   50DOPE  C315 6438   2.064   4.562  14.911 -0.5238  0.2381  0.6030
   50DOPE  H15X 6439   2.170   4.560  14.945  0.1807  0.4279 -1.3982
   50DOPE  H15Y 6440   2.044   4.455  14.886  2.4696 -0.1755 -0.4684
   50DOPE  C316 6441   1.959   4.622  15.012  0.7500 -0.5990 -0.5782
   50DOPE  H16X 6442   1.942   4.559  15.103 -0.6293  1.6478  0.8083
   50DOPE  H16Y 6443   1.863   4.642  14.961  0.2386  0.4035  0.7216
   50DOPE  C317 6444   1.989   4.751  15.077  0.1395 -0.3191  0.1226
   50DOPE  H17X 6445   1.994   4.834  15.003  0.1668 -0.2014  0.2558
   50DOPE  H17Y 6446   1.911   4.776  15.152  0.6671  1.2007  0.1953
   50DOPE  C318 6447   2.125   4.757  15.148  0.3694  0.1099 -0.6415
   50DOPE  H18X 6448   2.208   4.735  15.077  0.4986 -0.1375 -0.4135
   50DOPE  H18Y 6449   2.149   4.848  15.207 -0.4091  1.0266 -1.6930
   50DOPE  H18Z 6450   2.127   4.671  15.217  1.0325  0.1500 -0.6010
   51DOPE     N 6451   4.800   6.074  12.708  0.6180  0.2310 -0.4929
   51DOPE   HN1 6452   4.763   6.032  12.796 -2.6534  1.9916 -0.8746
   51DOPE   HN2 6453   4.759   6.021  12.628  0.6096  1.8153 -1.5722
   51DOPE   HN3 6454   4.902   6.077  12.688  0.1317 -0.2604 -3.6926
   51DOPE   C12 6455   4.760   6.214  12.692 -0.1995 -0.9565  0.2909
   51DOPE  H12A 6456   4.779   6.242  12.586 -0.8792 -0.3009  0.3318
   51DOPE  H12B 6457   4.820   6.279  12.758  0.0984 -1.4205  0.4864
   51DOPE   C11 6458   4.613   6.231  12.732 -0.1529  0.4618  0.7682
   51DOPE  H11A 6459   4.547   6.188  12.653 -0.6951  1.5931  0.5950
   51DOPE  H11B 6460   4.589   6.339  12.726 -1.3187  0.2180  0.8423
   51DOPE     P 6461   4.526   6.274  12.980  0.0811 -0.0619  0.5367
   51DOPE   O13 6462   4.510   6.200  13.099  0.1591 -0.4572 -0.4218
   51DOPE   O14 6463   4.414   6.351  12.929  0.1604  0.2598 -0.0222
   51DOPE   O11 6464   4.647   6.372  13.012 -0.5913 -0.1711  0.2998
   51DOPE   O12 6465   4.580   6.180  12.858  0.5460 -0.1785 -0.6646
   51DOPE    C1 6466   4.774   6.316  13.041  0.3689  0.0692 -0.0092
   51DOPE    HA 6467   4.848   6.381  12.990 -0.4541  0.2206 -1.0507
   51DOPE    HB 6468   4.791   6.209  13.014 -0.9678 -0.5581  1.4587
   51DOPE    C2 6469   4.805   6.335  13.193  0.3534 -0.2404  0.0747
   51DOPE    HS 6470   4.908   6.372  13.210  1.4633 -1.7492 -2.7231
   51DOPE   O21 6471   4.781   6.208  13.250 -0.0486  0.4712  0.1042
   51DOPE   C21 6472   4.894   6.134  13.256  0.4349  0.2888  0.3212
   51DOPE   O22 6473   5.003   6.158  13.206  0.0805 -0.3287  0.6452
   51DOPE   C22 6474   4.871   6.007  13.348  0.2743 -0.2322 -0.2212
   51DOPE   H2R 6475   4.945   5.933  13.311  1.0633  1.4685 -2.2919
   51DOPE   H2S 6476   4.768   5.975  13.322 -0.6790  0.1840  2.6749
   51DOPE    C3 6477   4.719   6.442  13.259 -0.5610 -0.4900 -0.3747
   51DOPE    HX 6478   4.612   6.415  13.272  0.2280 -3.1569  1.4535
   51DOPE    HY 6479   4.712   6.525  13.185 -1.6643 -0.0445  0.1974
   51DOPE   O31 6480   4.778   6.481  13.391 -0.1346 -0.0423  0.0268
   51DOPE   C31 6481   4.735   6.403  13.490 -0.0610  1.1207 -0.4362
   51DOPE   O32 6482   4.653   6.318  13.489 -0.1338  0.4020 -0.1352
   51DOPE   C32 6483   4.823   6.424  13.612 -0.2243  0.6275  0.8920
   51DOPE   H2X 6484   4.921   6.380  13.584 -0.5728  0.7546 -0.6541
   51DOPE   H2Y 6485   4.843   6.531  13.635  0.1346  0.8625 -0.4226
   51DOPE   C23 6486   4.891   6.031  13.499  0.5802 -0.4410  0.2518
   51DOPE   H3R 6487   4.860   5.939  13.552  0.9827 -0.9379 -0.3651
   51DOPE   H3S 6488   4.818   6.109  13.530  0.8967  0.3477 -0.9313
   51DOPE   C24 6489   5.042   6.056  13.537  0.4857 -0.6236  1.0367
   51DOPE   H4R 6490   5.073   6.163  13.538 -1.2646 -0.0584 -0.3258
   51DOPE   H4S 6491   5.095   6.005  13.454 -1.5041  1.1277 -1.4649
   51DOPE   C25 6492   5.079   5.976  13.662  0.3593  0.1100  0.1983
   51DOPE   H5R 6493   5.189   5.965  13.673  0.6867  1.6720 -1.1283
   51DOPE   H5S 6494   5.036   5.874  13.648  0.3178  0.0727  0.5830
   51DOPE   C26 6495   5.038   6.030  13.799 -0.4764 -0.4399 -0.5055
   51DOPE   H6R 6496   4.927   6.042  13.804 -0.2973  1.4064 -0.4645
   51DOPE   H6S 6497   5.081   6.130  13.818 -1.7792  0.2147 -0.8640
   51DOPE   C27 6498   5.071   5.933  13.918  0.0159 -0.3167  0.2326
   51DOPE   H7R 6499   5.181   5.919  13.931  0.0646 -1.2975 -1.0122
   51DOPE   H7S 6500   5.029   5.833  13.893 -1.8570 -0.0409  2.0921
   51DOPE   C28 6501   5.010   5.987  14.051  0.0489  0.3795 -0.0669
   51DOPE   H8R 6502   5.029   6.096  14.060  1.8887 -0.0437  2.3049
   51DOPE   H8S 6503   5.077   5.950  14.131  2.1669  2.4427 -0.8088
   51DOPE   C29 6504   4.862   5.957  14.074  0.1482  0.4234 -0.0021
   51DOPE   H9R 6505   4.806   5.983  13.983  0.9053 -0.6327 -0.7903
   51DOPE  C210 6506   4.808   5.904  14.183  0.2221  0.6403  0.0581
   51DOPE  H10R 6507   4.699   5.917  14.194  0.3284  1.5699  0.0583
   51DOPE  C211 6508   4.878   5.870  14.311 -0.4232  0.2315 -0.2189
   51DOPE  H11R 6509   4.980   5.833  14.286 -1.0074  0.6988 -3.9312
   51DOPE  H11S 6510   4.822   5.788  14.360 -1.3456  1.5525  1.0288
   51DOPE  C212 6511   4.875   5.982  14.416 -1.0733  0.4511 -0.0821
   51DOPE  H12R 6512   4.776   6.032  14.422 -0.8981  0.8405 -0.3602
   51DOPE  H12S 6513   4.939   6.064  14.377  0.5771 -1.6799 -2.1889
   51DOPE  C213 6514   4.924   5.931  14.540 -0.8957 -0.2201 -0.3438
   51DOPE  H13R 6515   5.029   5.894  14.535 -0.7051  0.0592  1.1051
   51DOPE  H13S 6516   4.861   5.844  14.568  0.8426 -1.6300 -0.6156
   51DOPE  C214 6517   4.913   6.036  14.648  0.4219 -0.6279 -0.3068
   51DOPE  H14R 6518   4.809   6.045  14.685  0.4995 -0.9816 -0.0035
   51DOPE  H14S 6519   4.946   6.139  14.618 -1.0975  0.1304  0.5310
   51DOPE  C215 6520   4.996   5.994  14.771 -0.8821  0.2564 -0.0873
   51DOPE  H15R 6521   4.975   6.070  14.849  1.7212  3.0993 -1.9520
   51DOPE  H15S 6522   5.103   5.997  14.742 -0.8397 -0.3612 -0.0059
   51DOPE  C216 6523   4.948   5.850  14.830  0.6576  0.9975  0.4715
   51DOPE  H16R 6524   4.996   5.760  14.786  0.5172  0.3937  1.5054
   51DOPE  H16S 6525   4.839   5.841  14.812  0.7404 -0.1085  0.4598
   51DOPE  C217 6526   4.969   5.838  14.983 -0.0412  0.0750 -0.1622
   51DOPE  H17R 6527   4.926   5.738  15.008  1.2242 -0.3224  0.4703
   51DOPE  H17S 6528   4.906   5.917  15.029 -0.6095 -1.0032  0.9807
   51DOPE  C218 6529   5.116   5.855  15.030  0.4578 -0.0030  0.9572
   51DOPE  H18R 6530   5.128   5.869  15.139 -2.9669 -0.0970  1.4620
   51DOPE  H18S 6531   5.167   5.935  14.972 -0.1497 -2.4430 -3.3858
   51DOPE  H18T 6532   5.166   5.764  14.989 -0.1065  0.5313 -1.0457
   51DOPE   C33 6533   4.766   6.362  13.737  0.1184 -0.2983  0.3691
   51DOPE   H3X 6534   4.760   6.251  13.727 -2.5085 -0.0856 -1.4998
   51DOPE   H3Y 6535   4.665   6.403  13.757 -0.5338 -2.3017  1.4773
   51DOPE   C34 6536   4.847   6.391  13.864  0.4922 -0.1077 -0.0814
   51DOPE   H4X 6537   4.954   6.364  13.854  0.6394  0.2923  0.3972
   51DOPE   H4Y 6538   4.848   6.499  13.889  0.7846 -0.7133  2.9564
   51DOPE   C35 6539   4.779   6.322  13.990  0.6509  0.0018  0.3971
   51DOPE   H5X 6540   4.774   6.211  13.990 -0.4344  0.0307 -0.5929
   51DOPE   H5Y 6541   4.674   6.357  14.000  0.4822 -0.1008 -0.8395
   51DOPE   C36 6542   4.858   6.363  14.112  0.1614 -0.1263  0.1549
   51DOPE   H6X 6543   4.866   6.474  14.108  1.6387 -0.2016 -4.6262
   51DOPE   H6Y 6544   4.964   6.329  14.113  0.3038  0.0366 -2.4943
   51DOPE   C37 6545   4.794   6.316  14.239  0.3910  0.8278  0.1554
   51DOPE   H7X 6546   4.691   6.357  14.243 -0.0963 -0.3350 -0.0409
   51DOPE   H7Y 6547   4.775   6.207  14.226  2.0778  0.4203  0.8307
   51DOPE   C38 6548   4.870   6.334  14.370 -0.5869  0.5323 -0.1327
   51DOPE   H8X 6549   4.976   6.302  14.362 -0.9317 -0.4843 -0.8185
   51DOPE   H8Y 6550   4.829   6.265  14.446  4.0947 -1.8172  0.6651
   51DOPE   C39 6551   4.857   6.474  14.413 -0.3059 -0.0856 -0.3438
   51DOPE   H9X 6552   4.863   6.553  14.337 -0.4405  0.9775  0.7056
   51DOPE  C310 6553   4.836   6.522  14.534  0.3259  0.1750 -0.7145
   51DOPE  H10X 6554   4.831   6.631  14.551  2.8171  0.1302  0.7538
   51DOPE  C311 6555   4.837   6.437  14.660 -0.2947 -0.4466 -0.2795
   51DOPE  H11X 6556   4.826   6.328  14.640  0.4089 -0.9771  1.9548
   51DOPE  H11Y 6557   4.942   6.446  14.696  0.0580 -1.6930 -0.9335
   51DOPE  C312 6558   4.735   6.478  14.765  0.9175 -0.1479 -0.3137
   51DOPE  H12X 6559   4.641   6.520  14.725  2.2276  1.6130 -1.6866
   51DOPE  H12Y 6560   4.781   6.559  14.826  1.9382 -0.6203 -0.4348
   51DOPE  C313 6561   4.715   6.359  14.863  0.0654 -0.6021  0.9564
   51DOPE  H13X 6562   4.652   6.384  14.951 -1.0002 -1.1032  0.3634
   51DOPE  H13Y 6563   4.669   6.271  14.812  3.0704 -2.4745  1.2688
   51DOPE  C314 6564   4.849   6.297  14.917  0.2499 -0.1457  0.4504
   51DOPE  H14X 6565   4.922   6.281  14.835  3.0444 -1.1915  2.9828
   51DOPE  H14Y 6566   4.821   6.195  14.950 -0.1773  0.8307  3.4572
   51DOPE  C315 6567   4.913   6.374  15.033  0.2154  0.0279  0.2048
   51DOPE  H15X 6568   4.833   6.407  15.103 -1.4696  0.3034 -1.7726
   51DOPE  H15Y 6569   4.981   6.455  14.999  2.2336 -1.7239 -0.1272
   51DOPE  C316 6570   5.011   6.283  15.109 -0.1220 -0.5282  0.4561
   51DOPE  H16X 6571   5.088   6.254  15.034  0.6436 -1.0432  1.4238
   51DOPE  H16Y 6572   4.965   6.188  15.142 -2.0704  0.7672  1.7018
   51DOPE  C317 6573   5.075   6.350  15.235  0.3450 -0.0599  0.7485
   51DOPE  H17X 6574   5.125   6.444  15.206 -2.3254  1.0172 -0.6985
   51DOPE  H17Y 6575   4.988   6.355  15.304 -1.8658 -1.4319 -1.7547
   51DOPE  C318 6576   5.180   6.256  15.295 -0.1917  0.0585 -0.6717
   51DOPE  H18X 6577   5.266   6.256  15.225 -0.1298  0.5131 -0.5963
   51DOPE  H18Y 6578   5.212   6.277  15.399 -0.2400 -1.0032 -0.4322
   51DOPE  H18Z 6579   5.145   6.151  15.298 -2.3209  0.7232 -0.1611
   52DOPE     N 6580   3.205   5.294  12.915  0.0163  0.5490  0.2827
   52DOPE   HN1 6581   3.186   5.382  12.863  0.4441 -0.0879 -1.0025
   52DOPE   HN2 6582   3.111   5.259  12.942 -0.6569  2.3607  0.3737
   52DOPE   HN3 6583   3.259   5.319  13.001  0.4087  1.5872 -0.2518
   52DOPE   C12 6584   3.278   5.191  12.823 -0.5778 -0.1808 -0.2360
   52DOPE  H12A 6585   3.281   5.100  12.887  0.2426  1.4300  2.1856
   52DOPE  H12B 6586   3.381   5.230  12.811 -0.9222  0.7229 -0.3392
   52DOPE   C11 6587   3.196   5.177  12.693 -0.0204 -0.1622 -0.0440
   52DOPE  H11A 6588   3.257   5.114  12.625 -0.6661  1.2143 -1.9949
   52DOPE  H11B 6589   3.179   5.279  12.651  0.8647 -0.6360 -1.6585
   52DOPE     P 6590   2.963   5.079  12.612  0.0722  0.2997 -0.2355
   52DOPE   O13 6591   2.991   4.943  12.565 -0.9522 -0.3497 -0.1703
   52DOPE   O14 6592   2.952   5.187  12.510  0.2639  0.1959 -0.6811
   52DOPE   O11 6593   2.821   5.083  12.689 -0.3255 -0.0997  0.0128
   52DOPE   O12 6594   3.074   5.110  12.724 -0.6811  0.2640  0.2488
   52DOPE    C1 6595   2.793   4.988  12.799  0.0078  0.3014  0.6315
   52DOPE    HA 6596   2.861   4.900  12.798  1.2749  1.2318  1.3697
   52DOPE    HB 6597   2.689   4.954  12.782 -0.2210  1.6560 -1.0308
   52DOPE    C2 6598   2.820   5.060  12.934  0.0621  0.5422  0.2546
   52DOPE    HS 6599   2.929   5.079  12.944 -0.0828  2.8832 -1.5507
   52DOPE   O21 6600   2.785   4.978  13.048  0.3993 -0.3646  0.4102
   52DOPE   C21 6601   2.860   4.873  13.063  0.3643  0.2463 -0.3327
   52DOPE   O22 6602   2.956   4.842  12.998  0.0916 -0.0500  0.6454
   52DOPE   C22 6603   2.814   4.787  13.185 -0.2386  0.2245 -0.6206
   52DOPE   H2R 6604   2.903   4.720  13.183 -1.1220 -1.0027 -0.4292
   52DOPE   H2S 6605   2.716   4.738  13.162 -0.3672  0.6749 -1.0713
   52DOPE    C3 6606   2.745   5.197  12.925 -0.2975  0.4485  0.1006
   52DOPE    HX 6607   2.635   5.183  12.913 -0.5617  3.0667 -1.2513
   52DOPE    HY 6608   2.791   5.256  12.843  1.1051  0.0569  0.5890
   52DOPE   O31 6609   2.747   5.270  13.050  0.0893 -0.3712 -0.1702
   52DOPE   C31 6610   2.860   5.299  13.096  0.4208  0.0835  0.5824
   52DOPE   O32 6611   2.967   5.273  13.053 -0.4825 -0.0348  0.3760
   52DOPE   C32 6612   2.837   5.337  13.241 -0.3551  0.3449 -0.0861
   52DOPE   H2X 6613   2.919   5.407  13.269 -3.2556  3.6581  0.9159
   52DOPE   H2Y 6614   2.739   5.389  13.253 -0.4119  0.0763  0.6877
   52DOPE   C23 6615   2.804   4.851  13.323  0.0554  0.3167  0.7129
   52DOPE   H3R 6616   2.729   4.934  13.321  1.0324  1.2474  1.4135
   52DOPE   H3S 6617   2.895   4.913  13.337 -1.0579  3.0047 -2.6099
   52DOPE   C24 6618   2.762   4.761  13.437  0.2586 -0.0363 -0.7837
   52DOPE   H4R 6619   2.821   4.667  13.448  0.7771  0.5186  1.8829
   52DOPE   H4S 6620   2.655   4.738  13.420  0.2273 -0.9462  0.4807
   52DOPE   C25 6621   2.773   4.829  13.575 -0.3788  0.2182 -1.5595
   52DOPE   H5R 6622   2.688   4.901  13.576 -0.5318  0.0510 -1.9747
   52DOPE   H5S 6623   2.864   4.891  13.585 -1.7077  2.3167 -1.8538
   52DOPE   C26 6624   2.733   4.726  13.682  0.0771  0.6847  0.2445
   52DOPE   H6R 6625   2.820   4.658  13.695  0.4071  1.3743  1.8487
   52DOPE   H6S 6626   2.648   4.663  13.648 -0.1089  0.5306  0.9741
   52DOPE   C27 6627   2.700   4.796  13.816 -0.5369 -0.4899  0.9132
   52DOPE   H7R 6628   2.634   4.882  13.791 -0.1461 -0.8553 -1.6383
   52DOPE   H7S 6629   2.796   4.837  13.854 -0.0571 -0.4537 -0.2824
   52DOPE   C28 6630   2.623   4.694  13.903  0.3304 -0.5406 -0.2807
   52DOPE   H8R 6631   2.671   4.594  13.907  0.9990 -0.2014  2.4389
   52DOPE   H8S 6632   2.517   4.684  13.869  0.7056  3.0845 -3.0436
   52DOPE   C29 6633   2.617   4.756  14.040 -0.5527  0.0873  0.0906
   52DOPE   H9R 6634   2.611   4.865  14.049  0.8356  0.0395  2.6697
   52DOPE  C210 6635   2.607   4.680  14.154  0.3150 -0.7345  1.0879
   52DOPE  H10R 6636   2.591   4.737  14.247  0.1731 -0.2198  0.7514
   52DOPE  C211 6637   2.600   4.532  14.160 -0.0910  0.4259  0.3317
   52DOPE  H11R 6638   2.706   4.500  14.155 -0.3229 -0.3845  0.4015
   52DOPE  H11S 6639   2.538   4.499  14.074 -1.5565  0.8607  1.1787
   52DOPE  C212 6640   2.547   4.463  14.287  0.0658 -1.0066  0.4553
   52DOPE  H12R 6641   2.572   4.355  14.289 -1.5107 -1.3915  0.4877
   52DOPE  H12S 6642   2.437   4.470  14.288 -0.0918 -2.7081 -0.4622
   52DOPE  C213 6643   2.609   4.506  14.423 -0.7884 -0.3028  0.0060
   52DOPE  H13R 6644   2.585   4.613  14.438 -0.2384  0.0922 -1.7074
   52DOPE  H13S 6645   2.720   4.508  14.424 -0.7409  1.0145 -1.8103
   52DOPE  C214 6646   2.551   4.429  14.543  0.3851 -0.3989 -0.7453
   52DOPE  H14R 6647   2.595   4.327  14.544  1.5987  0.1073 -0.1644
   52DOPE  H14S 6648   2.442   4.409  14.540  0.4861 -1.0042 -0.5808
   52DOPE  C215 6649   2.590   4.489  14.682  0.1343 -0.0655  0.0741
   52DOPE  H15R 6650   2.545   4.590  14.694 -0.1826  0.0685 -1.8753
   52DOPE  H15S 6651   2.700   4.505  14.688 -0.2121  2.2860  1.0322
   52DOPE  C216 6652   2.565   4.403  14.806  0.2548 -0.2973  0.4375
   52DOPE  H16R 6653   2.637   4.319  14.795 -0.2391 -0.8860  1.4978
   52DOPE  H16S 6654   2.466   4.353  14.807 -0.2530  0.6640 -0.3770
   52DOPE  C217 6655   2.602   4.477  14.934  0.2576  0.1909  0.6767
   52DOPE  H17R 6656   2.514   4.538  14.962 -0.7840 -0.8501 -0.2348
   52DOPE  H17S 6657   2.686   4.548  14.918  2.1429 -1.7924  1.2854
   52DOPE  C218 6658   2.641   4.380  15.050 -0.0218  0.8072 -0.7630
   52DOPE  H18R 6659   2.632   4.425  15.151 -0.6312 -0.6062 -0.1495
   52DOPE  H18S 6660   2.551   4.314  15.048 -2.4116  3.7567  0.7409
   52DOPE  H18T 6661   2.724   4.307  15.035  0.4699  1.0270  0.7549
   52DOPE   C33 6662   2.834   5.211  13.332 -0.3567 -0.2639  0.1742
   52DOPE   H3X 6663   2.919   5.140  13.319 -0.4159 -0.3855  0.4662
   52DOPE   H3Y 6664   2.747   5.147  13.305  0.1242 -1.4836  1.4020
   52DOPE   C34 6665   2.828   5.247  13.481  0.0213 -0.1921  0.2342
   52DOPE   H4X 6666   2.733   5.303  13.499 -0.2091  2.0497 -5.5717
   52DOPE   H4Y 6667   2.807   5.146  13.522  0.5008  0.2125  1.4978
   52DOPE   C35 6668   2.953   5.309  13.548 -0.3773  1.1534 -0.1170
   52DOPE   H5X 6669   2.978   5.413  13.518  1.2391  0.4390 -1.3691
   52DOPE   H5Y 6670   3.038   5.246  13.515 -0.3542  1.2917 -0.3186
   52DOPE   C36 6671   2.968   5.299  13.699  0.8386 -0.0691  0.5925
   52DOPE   H6X 6672   3.067   5.342  13.723  0.9999  0.7876 -1.3833
   52DOPE   H6Y 6673   2.970   5.189  13.711 -1.0752 -0.3671 -1.1858
   52DOPE   C37 6674   2.871   5.355  13.802  0.2266 -0.7898 -0.7729
   52DOPE   H7X 6675   2.766   5.359  13.764 -0.0271  2.5321 -0.0833
   52DOPE   H7Y 6676   2.849   5.287  13.887 -0.9525  0.7245  0.1958
   52DOPE   C38 6677   2.907   5.494  13.854  0.5692 -0.8346  0.5044
   52DOPE   H8X 6678   2.884   5.570  13.777 -2.1706  0.4592  2.4259
   52DOPE   H8Y 6679   3.013   5.502  13.887  0.8584  1.1007 -0.7638
   52DOPE   C39 6680   2.822   5.521  13.982  0.1883 -0.9092  1.1149
   52DOPE   H9X 6681   2.720   5.560  13.969  0.0129 -1.4868  0.7367
   52DOPE  C310 6682   2.873   5.516  14.104 -0.4953 -0.1974 -0.1698
   52DOPE  H10X 6683   2.820   5.549  14.194 -0.6747 -4.3286  1.4267
   52DOPE  C311 6684   3.005   5.462  14.147 -0.5789 -0.0356  0.9743
   52DOPE  H11X 6685   3.047   5.403  14.063 -0.5071 -2.0986  2.3882
   52DOPE  H11Y 6686   3.075   5.546  14.165 -1.7040  1.3168 -0.6701
   52DOPE  C312 6687   2.993   5.372  14.272  0.8119 -0.6293 -0.1984
   52DOPE  H12X 6688   3.075   5.297  14.266  2.4047  0.8765  1.3129
   52DOPE  H12Y 6689   2.902   5.310  14.262  0.7084 -0.4708 -0.2419
   52DOPE  C313 6690   2.996   5.445  14.405 -0.8644 -0.3943 -0.2859
   52DOPE  H13X 6691   3.090   5.504  14.403 -1.4667  0.6005 -0.2037
   52DOPE  H13Y 6692   2.913   5.518  14.415  1.5201  2.5466 -0.4658
   52DOPE  C314 6693   2.985   5.357  14.536  0.2260  0.3319  0.0060
   52DOPE  H14X 6694   3.062   5.277  14.532  0.5957  0.6907 -0.0883
   52DOPE  H14Y 6695   2.879   5.322  14.541 -0.0394  0.4936 -2.6422
   52DOPE  C315 6696   3.021   5.431  14.668 -0.1111  0.0479  0.2922
   52DOPE  H15X 6697   3.128   5.460  14.677  0.2358 -1.1419  0.3003
   52DOPE  H15Y 6698   3.004   5.357  14.750 -2.1187 -1.7134 -1.5846
   52DOPE  C316 6699   2.923   5.542  14.708 -0.1277  0.8263 -0.5607
   52DOPE  H16X 6700   2.819   5.503  14.709 -0.7754  2.4443 -0.0494
   52DOPE  H16Y 6701   2.943   5.626  14.638  0.1265  1.2438  0.0025
   52DOPE  C317 6702   2.963   5.589  14.855 -0.2146  0.3115  0.0280
   52DOPE  H17X 6703   2.958   5.498  14.918 -0.0311  1.5201  1.8664
   52DOPE  H17Y 6704   3.068   5.623  14.846 -0.8933  2.7363  0.6047
   52DOPE  C318 6705   2.874   5.695  14.912  0.1428 -0.6228  0.0503
   52DOPE  H18X 6706   2.764   5.682  14.907 -0.3350  2.4219  0.8004
   52DOPE  H18Y 6707   2.894   5.705  15.021  1.3710 -0.9188 -0.1314
   52DOPE  H18Z 6708   2.879   5.793  14.860 -2.1720 -0.1148  0.6667
   53DOPE     N 6709   0.126   0.546  12.170  0.0900  0.3408  0.5515
   53DOPE   HN1 6710   0.055   0.479  12.135  0.7394 -0.9721  1.6346
   53DOPE   HN2 6711   0.093   0.638  12.135 -0.6394  0.0065  0.3501
   53DOPE   HN3 6712   0.214   0.515  12.124 -0.6236 -0.3257 -0.3973
   53DOPE   C12 6713   0.112   0.527  12.316  0.0611  0.1538 -0.9101
   53DOPE  H12A 6714   0.010   0.557  12.348  0.1712 -0.3906 -0.0369
   53DOPE  H12B 6715   0.180   0.603  12.361 -0.5609  0.4022 -0.3717
   53DOPE   C11 6716   0.140   0.383  12.360 -0.1128 -0.5066  0.4490
   53DOPE  H11A 6717   0.042   0.330  12.362 -0.7656  0.6504  0.0394
   53DOPE  H11B 6718   0.181   0.368  12.462  0.8182  1.9193  0.4818
   53DOPE     P 6719   0.298   0.186  12.306  0.3859  0.1744  0.1531
   53DOPE   O13 6720   0.393   0.152  12.199  0.5592 -0.3311 -0.6091
   53DOPE   O14 6721   0.197   0.081  12.328 -0.5043 -0.3356  0.4840
   53DOPE   O11 6722   0.369   0.211  12.449  0.1790 -0.4845  0.1019
   53DOPE   O12 6723   0.216   0.315  12.267 -0.6070 -0.4971  0.3157
   53DOPE    C1 6724   0.507   0.250  12.458  0.1436  0.4092  0.2507
   53DOPE    HA 6725   0.521   0.354  12.496  2.4429  0.1968  0.1389
   53DOPE    HB 6726   0.565   0.242  12.364 -0.2878 -2.9559  0.1654
   53DOPE    C2 6727   0.578   0.160  12.563  0.4752  0.4385  0.9115
   53DOPE    HS 6728   0.550   0.058  12.530  1.4664  0.5079 -0.2420
   53DOPE   O21 6729   0.533   0.204  12.686  0.2335 -0.7290  0.0053
   53DOPE   C21 6730   0.511   0.111  12.778  0.0716 -0.0055  0.1474
   53DOPE   O22 6731   0.526  -0.010  12.765 -0.1145  0.4677 -0.1287
   53DOPE   C22 6732   0.464   0.176  12.910  0.7297 -0.8323 -0.3183
   53DOPE   H2R 6733   0.359   0.204  12.890  0.9315  1.4542  1.3556
   53DOPE   H2S 6734   0.523   0.270  12.921  1.6451 -1.4920  0.5976
   53DOPE    C3 6735   0.730   0.159  12.560 -0.0078 -0.4094 -0.8165
   53DOPE    HX 6736   0.776   0.257  12.587  0.0723 -0.4091 -0.9535
   53DOPE    HY 6737   0.763   0.144  12.455  3.5578  1.3203 -0.1212
   53DOPE   O31 6738   0.785   0.053  12.651  0.2955 -0.2568  0.0640
   53DOPE   C31 6739   0.916   0.037  12.652  0.1185 -0.0091 -0.4199
   53DOPE   O32 6740   1.000   0.073  12.569  0.1109  0.3777  0.1066
   53DOPE   C32 6741   0.951  -0.021  12.793 -0.2561 -0.0533 -0.0458
   53DOPE   H2X 6742   0.963  -0.131  12.785  0.0132  0.1185 -3.5540
   53DOPE   H2Y 6743   1.055   0.014  12.809 -0.4965  1.3956 -1.4572
   53DOPE   C23 6744   0.468   0.085  13.029 -0.4454  0.2165 -0.1738
   53DOPE   H3R 6745   0.555   0.110  13.094 -1.0347 -0.2656  0.8404
   53DOPE   H3S 6746   0.476  -0.025  13.018  2.9601  0.2836  0.6744
   53DOPE   C24 6747   0.356   0.108  13.136  0.1089 -1.0973  0.3054
   53DOPE   H4R 6748   0.355   0.023  13.206 -1.4400 -1.0875  0.3206
   53DOPE   H4S 6749   0.255   0.115  13.090 -0.2366  1.6704  1.2871
   53DOPE   C25 6750   0.377   0.236  13.211 -0.6380  0.1824 -0.0784
   53DOPE   H5R 6751   0.282   0.271  13.256  0.4682  1.2567  1.5127
   53DOPE   H5S 6752   0.404   0.315  13.138  2.0840 -0.2701  0.3348
   53DOPE   C26 6753   0.479   0.227  13.327 -0.1613  0.0227 -0.3085
   53DOPE   H6R 6754   0.467   0.323  13.380  0.8989 -0.4660  0.8778
   53DOPE   H6S 6755   0.587   0.226  13.300 -0.1122  0.7071 -0.1405
   53DOPE   C27 6756   0.463   0.102  13.418  0.4961 -0.3275  0.3481
   53DOPE   H7R 6757   0.539   0.026  13.390  2.3557  1.6757 -0.2819
   53DOPE   H7S 6758   0.360   0.063  13.407  0.5937  0.1142 -3.1405
   53DOPE   C28 6759   0.487   0.136  13.562 -0.5430  0.6173 -0.0991
   53DOPE   H8R 6760   0.468   0.044  13.621  1.2083 -0.2013 -0.7610
   53DOPE   H8S 6761   0.414   0.214  13.592 -1.4180 -0.1552 -0.2073
   53DOPE   C29 6762   0.631   0.180  13.586 -0.0186  0.0193  0.4024
   53DOPE   H9R 6763   0.667   0.233  13.497  0.8389  0.8942  1.2401
   53DOPE  C210 6764   0.718   0.151  13.689  0.0961 -0.1820  0.3451
   53DOPE  H10R 6765   0.823   0.184  13.686  0.4758 -1.3961 -1.1938
   53DOPE  C211 6766   0.672   0.069  13.802 -0.1061 -0.5229 -0.9008
   53DOPE  H11R 6767   0.701  -0.036  13.782  0.6927 -0.6548  0.7763
   53DOPE  H11S 6768   0.562   0.080  13.814 -0.0443  0.1535 -0.8954
   53DOPE  C212 6769   0.742   0.116  13.928 -0.5520 -0.3516 -0.1717
   53DOPE  H12R 6770   0.717   0.220  13.958  1.1160 -0.4295  1.7735
   53DOPE  H12S 6771   0.849   0.131  13.902 -1.1498 -0.8304 -3.2196
   53DOPE  C213 6772   0.738   0.025  14.049  0.4969  0.8300  0.4933
   53DOPE  H13R 6773   0.791  -0.070  14.026  0.7333  0.8748  0.8346
   53DOPE  H13S 6774   0.638  -0.007  14.084  0.1402 -0.6868 -1.7183
   53DOPE  C214 6775   0.800   0.082  14.178 -0.2345 -0.1998  0.2622
   53DOPE  H14R 6776   0.761   0.017  14.260  3.7482 -0.2324  2.4019
   53DOPE  H14S 6777   0.770   0.188  14.180  1.4728  0.3148  1.4651
   53DOPE  C215 6778   0.952   0.066  14.201 -0.4012  0.3363  0.3078
   53DOPE  H15R 6779   1.014   0.106  14.118  1.5354 -0.3513  1.3673
   53DOPE  H15S 6780   0.962  -0.045  14.209 -1.4141  0.2157  0.0623
   53DOPE  C216 6781   0.992   0.125  14.332  0.9264 -0.7059  0.7625
   53DOPE  H16R 6782   0.926   0.091  14.414 -0.9205 -0.6940 -0.6638
   53DOPE  H16S 6783   0.985   0.236  14.327  2.7215 -0.5893 -0.2154
   53DOPE  C217 6784   1.134   0.092  14.377  0.2119 -0.2544  0.1652
   53DOPE  H17R 6785   1.129  -0.016  14.400 -1.3298 -0.4566 -0.9809
   53DOPE  H17S 6786   1.144   0.140  14.477  0.1630  1.5255 -0.6491
   53DOPE  C218 6787   1.255   0.119  14.288  0.0977  0.7236  0.4443
   53DOPE  H18R 6788   1.351   0.132  14.342 -0.2604 -0.4295  1.4075
   53DOPE  H18S 6789   1.256   0.220  14.243  2.7796  0.2081 -0.8662
   53DOPE  H18T 6790   1.251   0.041  14.209  0.8851  1.4361 -0.3177
   53DOPE   C33 6791   0.864   0.040  12.906  0.5582  0.0245  0.4191
   53DOPE   H3X 6792   0.795  -0.045  12.924  2.6972 -1.7955  0.4012
   53DOPE   H3Y 6793   0.816   0.137  12.881 -1.3138 -1.2150 -1.1279
   53DOPE   C34 6794   0.936   0.065  13.042  0.0077  0.0544  0.1368
   53DOPE   H4X 6795   1.008  -0.016  13.065 -0.3865 -0.6003 -0.8562
   53DOPE   H4Y 6796   0.991   0.160  13.036  1.0512 -0.0942  4.2176
   53DOPE   C35 6797   0.832   0.094  13.152  0.7507 -0.0495  0.5359
   53DOPE   H5X 6798   0.749   0.020  13.141 -0.2370  1.1048 -0.0424
   53DOPE   H5Y 6799   0.765   0.180  13.129 -1.0870 -0.8374  2.5394
   53DOPE   C36 6800   0.901   0.096  13.290 -0.1031 -0.2274 -0.3274
   53DOPE   H6X 6801   0.950  -0.004  13.297 -1.6952 -1.0489 -0.4290
   53DOPE   H6Y 6802   0.832   0.105  13.377 -2.1882 -0.9495 -1.8070
   53DOPE   C37 6803   1.007   0.209  13.319  0.0750  0.6254 -0.7036
   53DOPE   H7X 6804   1.104   0.193  13.267  0.2306 -3.1277  0.4398
   53DOPE   H7Y 6805   0.973   0.306  13.277 -0.8846  1.9705  2.8282
   53DOPE   C38 6806   1.043   0.257  13.465 -0.3881  0.3463  0.5433
   53DOPE   H8X 6807   0.948   0.285  13.514 -0.3253  0.5302  0.5577
   53DOPE   H8Y 6808   1.109   0.346  13.468  0.7666 -0.4956  0.7994
   53DOPE   C39 6809   1.099   0.138  13.530  0.5550  0.3966 -0.1115
   53DOPE   H9X 6810   1.102   0.041  13.480  1.8325  0.2519  0.2036
   53DOPE  C310 6811   1.148   0.136  13.651  0.2090  0.6732  0.2419
   53DOPE  H10X 6812   1.207   0.049  13.681  1.6915  1.6239  0.1690
   53DOPE  C311 6813   1.174   0.254  13.742  0.5591  0.1070  0.6346
   53DOPE  H11X 6814   1.164   0.346  13.681  0.7663  0.3770  1.0052
   53DOPE  H11Y 6815   1.094   0.251  13.819 -0.7445 -1.6494 -0.6881
   53DOPE  C312 6816   1.309   0.260  13.808  0.2933 -0.0619  0.0008
   53DOPE  H12X 6817   1.382   0.260  13.723  0.8761 -1.0657  0.4743
   53DOPE  H12Y 6818   1.315   0.166  13.867 -1.0727 -1.2135 -1.5713
   53DOPE  C313 6819   1.326   0.387  13.894  0.6036  0.4384 -0.3191
   53DOPE  H13X 6820   1.327   0.467  13.817 -1.5115 -0.6330 -1.5190
   53DOPE  H13Y 6821   1.240   0.400  13.963  0.2610  0.5523 -0.7678
   53DOPE  C314 6822   1.450   0.398  13.981  0.5014  0.3691 -0.2353
   53DOPE  H14X 6823   1.534   0.392  13.908  0.6006 -0.5814 -0.0612
   53DOPE  H14Y 6824   1.453   0.310  14.049  0.7924  0.6055  0.0634
   53DOPE  C315 6825   1.458   0.511  14.081  0.1598  0.5354  0.0150
   53DOPE  H15X 6826   1.369   0.517  14.148 -0.7574  0.5798 -1.1724
   53DOPE  H15Y 6827   1.457   0.604  14.020 -0.2620  0.3653 -0.2423
   53DOPE  C316 6828   1.576   0.500  14.180  0.3755 -0.9951  0.8974
   53DOPE  H16X 6829   1.668   0.456  14.136  0.4133 -0.2509  0.2005
   53DOPE  H16Y 6830   1.549   0.425  14.258  0.4928 -1.1442  0.7952
   53DOPE  C317 6831   1.604   0.631  14.257  0.1201 -0.3470  0.0311
   53DOPE  H17X 6832   1.650   0.706  14.190 -1.8077  0.9759  0.0839
   53DOPE  H17Y 6833   1.507   0.674  14.293  1.2984  3.4802 -0.9009
   53DOPE  C318 6834   1.697   0.642  14.381  0.1274 -0.3401 -0.9343
   53DOPE  H18X 6835   1.642   0.608  14.472  2.3328  1.4592  1.2195
   53DOPE  H18Y 6836   1.786   0.576  14.374 -0.8130 -1.7833  0.1401
   53DOPE  H18Z 6837   1.733   0.746  14.393  0.1702 -0.5457  0.9881
   54DOPE     N 6838   1.971   4.375  12.489  0.3006  0.2554  0.2684
   54DOPE   HN1 6839   1.941   4.286  12.534  0.2797 -0.5844 -1.3410
   54DOPE   HN2 6840   2.018   4.357  12.398  0.1505  3.8545 -0.6829
   54DOPE   HN3 6841   2.043   4.422  12.547  0.2188 -0.2430  0.7792
   54DOPE   C12 6842   1.856   4.470  12.468 -0.7828  0.4965 -0.7833
   54DOPE  H12A 6843   1.773   4.405  12.433  0.8186 -1.3549 -1.2475
   54DOPE  H12B 6844   1.900   4.548  12.403  2.9901 -2.7303 -2.4421
   54DOPE   C11 6845   1.797   4.526  12.605 -0.6196 -0.1000  0.3482
   54DOPE  H11A 6846   1.711   4.587  12.570  0.5937  1.5196  0.0916
   54DOPE  H11B 6847   1.870   4.602  12.641 -1.4774  1.3596 -0.9056
   54DOPE     P 6848   1.615   4.380  12.736 -0.2151 -0.3543  0.0001
   54DOPE   O13 6849   1.615   4.255  12.809  0.0017 -0.0426  0.4757
   54DOPE   O14 6850   1.526   4.377  12.618  0.3535 -0.4162  0.3072
   54DOPE   O11 6851   1.577   4.497  12.845 -0.6481 -0.4264 -0.1577
   54DOPE   O12 6852   1.763   4.414  12.693  0.0595 -0.2010 -0.2310
   54DOPE    C1 6853   1.688   4.544  12.929 -0.0015 -0.5260  0.4852
   54DOPE    HA 6854   1.723   4.639  12.883 -1.0462  0.3231  1.3914
   54DOPE    HB 6855   1.764   4.463  12.929  0.0130 -0.5126  0.4758
   54DOPE    C2 6856   1.634   4.566  13.073 -0.0746 -0.0375 -0.7954
   54DOPE    HS 6857   1.568   4.655  13.068 -0.2508 -0.1960 -1.3036
   54DOPE   O21 6858   1.739   4.582  13.172 -0.1638 -0.1243 -0.0534
   54DOPE   C21 6859   1.801   4.698  13.174  0.0975  0.1863  0.7448
   54DOPE   O22 6860   1.779   4.795  13.101 -0.2088  0.4018 -0.1080
   54DOPE   C22 6861   1.912   4.694  13.277 -0.2423  0.1046 -0.5013
   54DOPE   H2R 6862   1.989   4.623  13.240 -1.3494 -1.2975 -0.2055
   54DOPE   H2S 6863   1.869   4.662  13.375 -0.4940 -0.5303 -0.8135
   54DOPE    C3 6864   1.538   4.455  13.127 -0.3304 -0.1358 -0.3221
   54DOPE    HX 6865   1.590   4.358  13.110  0.1370 -0.0244  0.4001
   54DOPE    HY 6866   1.445   4.462  13.066 -0.7447  0.7194  0.3858
   54DOPE   O31 6867   1.490   4.472  13.266 -0.2780  0.4323  0.6066
   54DOPE   C31 6868   1.543   4.385  13.342 -0.5541  0.0848  0.7906
   54DOPE   O32 6869   1.650   4.326  13.329  0.1671 -0.1976  0.1215
   54DOPE   C32 6870   1.471   4.378  13.484  0.2778 -0.1212  0.0885
   54DOPE   H2X 6871   1.528   4.449  13.548  0.5476  0.8361 -1.1808
   54DOPE   H2Y 6872   1.371   4.425  13.471  0.5861  0.3309 -0.7052
   54DOPE   C23 6873   1.980   4.832  13.287  0.0754 -0.1929 -1.1360
   54DOPE   H3R 6874   1.994   4.879  13.187  1.1664 -0.1661 -0.9883
   54DOPE   H3S 6875   2.075   4.808  13.340 -1.4947 -3.2631  0.5129
   54DOPE   C24 6876   1.913   4.939  13.377  0.0780 -0.0182 -0.4635
   54DOPE   H4R 6877   1.878   4.898  13.474  0.9182  0.7435  0.1802
   54DOPE   H4S 6878   1.827   4.981  13.321 -0.4694 -2.1267 -1.2885
   54DOPE   C25 6879   1.997   5.064  13.397  0.0487  0.3659 -0.1160
   54DOPE   H5R 6880   2.028   5.118  13.305  0.6040  0.4845  0.1304
   54DOPE   H5S 6881   2.089   5.024  13.445 -2.0342 -1.2738  2.8416
   54DOPE   C26 6882   1.927   5.165  13.487  0.4818 -0.2819  0.2889
   54DOPE   H6R 6883   1.819   5.159  13.463  0.8850 -1.0028 -1.4770
   54DOPE   H6S 6884   1.963   5.269  13.477 -0.1358 -0.0970 -0.0147
   54DOPE   C27 6885   1.948   5.124  13.628  0.9837  0.3075  0.4170
   54DOPE   H7R 6886   1.967   5.015  13.626  0.8082  0.2726  0.6105
   54DOPE   H7S 6887   1.850   5.126  13.680  0.3982  0.2852 -0.6671
   54DOPE   C28 6888   2.060   5.197  13.693  0.0269  0.3220  0.7535
   54DOPE   H8R 6889   2.119   5.245  13.612 -0.5671  1.9574  1.2472
   54DOPE   H8S 6890   2.125   5.120  13.740  0.6810 -0.6852 -1.6473
   54DOPE   C29 6891   2.005   5.297  13.790  0.8237  0.5272  0.2204
   54DOPE   H9R 6892   1.997   5.397  13.745 -0.1513 -0.0131 -0.8706
   54DOPE  C210 6893   1.942   5.276  13.909 -0.0731  0.7990  0.3647
   54DOPE  H10R 6894   1.908   5.363  13.968  0.0677 -0.2272  2.0272
   54DOPE  C211 6895   1.936   5.140  13.978  0.0165 -0.3541  0.0966
   54DOPE  H11R 6896   2.025   5.127  14.043  0.0383 -1.3720 -0.1215
   54DOPE  H11S 6897   1.944   5.067  13.895  1.4536  0.3162 -0.3854
   54DOPE  C212 6898   1.811   5.120  14.058  0.0439 -0.0833 -0.4484
   54DOPE  H12R 6899   1.796   5.011  14.074  0.1526  0.1598  1.5992
   54DOPE  H12S 6900   1.731   5.162  13.994 -0.5861 -0.8166 -0.1661
   54DOPE  C213 6901   1.816   5.188  14.192  0.9367 -0.0065  0.3308
   54DOPE  H13R 6902   1.712   5.189  14.231  0.4720  0.0764 -0.8734
   54DOPE  H13S 6903   1.849   5.294  14.199 -0.3691  0.3253  4.4626
   54DOPE  C214 6904   1.904   5.114  14.287 -0.4434  0.2854 -0.1323
   54DOPE  H14R 6905   2.007   5.102  14.247 -1.4611  1.1534 -3.2962
   54DOPE  H14S 6906   1.872   5.007  14.295  0.1716 -0.0021 -1.3087
   54DOPE  C215 6907   1.911   5.159  14.433 -0.2034 -0.2660 -0.6815
   54DOPE  H15R 6908   1.810   5.146  14.477  0.2949 -3.6192 -0.2890
   54DOPE  H15S 6909   1.932   5.268  14.435 -1.2335  0.1613  5.0214
   54DOPE  C216 6910   2.004   5.089  14.534  0.1377  0.2833 -0.7658
   54DOPE  H16R 6911   2.112   5.115  14.529 -0.0253  1.1441 -0.0699
   54DOPE  H16S 6912   1.996   4.979  14.526 -1.6352  0.1673  1.5789
   54DOPE  C217 6913   1.966   5.137  14.674 -0.1060 -0.2787 -0.1123
   54DOPE  H17R 6914   1.857   5.118  14.676 -0.1963  0.0314 -1.3868
   54DOPE  H17S 6915   1.974   5.247  14.687  1.1675 -0.3791  0.0900
   54DOPE  C218 6916   2.034   5.052  14.783 -0.2779 -0.5776  0.6246
   54DOPE  H18R 6917   2.033   4.943  14.760  0.5436 -1.2607  3.4877
   54DOPE  H18S 6918   1.998   5.072  14.886 -0.8283 -0.4138  0.3999
   54DOPE  H18T 6919   2.143   5.073  14.788 -0.7017  2.0230  0.0561
   54DOPE   C33 6920   1.467   4.240  13.546  0.2423 -0.0030 -0.0894
   54DOPE   H3X 6921   1.573   4.207  13.552  0.5286  0.1724 -3.0040
   54DOPE   H3Y 6922   1.407   4.168  13.486  0.1911  0.1218 -0.1889
   54DOPE   C34 6923   1.388   4.235  13.680 -0.2532 -0.5471 -0.3843
   54DOPE   H4X 6924   1.424   4.313  13.751 -0.7328  0.1358 -0.8786
   54DOPE   H4Y 6925   1.281   4.262  13.666 -0.0096 -0.3206 -2.0521
   54DOPE   C35 6926   1.405   4.104  13.756 -0.4157  0.0596  0.1413
   54DOPE   H5X 6927   1.509   4.074  13.732 -0.1883  1.3405 -0.6093
   54DOPE   H5Y 6928   1.330   4.035  13.711  0.1875 -1.3874  1.3160
   54DOPE   C36 6929   1.382   4.117  13.912 -0.3949 -0.7641  0.3295
   54DOPE   H6X 6930   1.286   4.172  13.926 -0.9844 -1.4170 -0.9900
   54DOPE   H6Y 6931   1.465   4.185  13.939  2.2279 -3.3118 -0.8333
   54DOPE   C37 6932   1.400   3.992  14.000 -0.4365  0.8909  0.1915
   54DOPE   H7X 6933   1.313   3.923  13.991  0.7910 -0.7459  0.4228
   54DOPE   H7Y 6934   1.490   3.934  13.970 -1.8517 -1.1732 -0.2833
   54DOPE   C38 6935   1.442   4.021  14.149  0.2651 -0.5067 -0.1666
   54DOPE   H8X 6936   1.546   4.058  14.147  0.2457 -0.3197  1.2025
   54DOPE   H8Y 6937   1.443   3.924  14.204 -1.3535 -0.2253  0.4207
   54DOPE   C39 6938   1.344   4.112  14.217  0.2725 -0.1783  0.0685
   54DOPE   H9X 6939   1.324   4.212  14.176 -1.2663 -0.0414  1.0879
   54DOPE  C310 6940   1.276   4.092  14.331 -0.1523 -0.0183 -0.1827
   54DOPE  H10X 6941   1.207   4.164  14.377  0.4219 -0.5467  1.6036
   54DOPE  C311 6942   1.304   3.978  14.423 -0.4105 -0.2501  0.0892
   54DOPE  H11X 6943   1.234   3.898  14.390  0.2950 -0.3320 -1.3028
   54DOPE  H11Y 6944   1.410   3.945  14.434 -0.8654 -1.0684  2.8422
   54DOPE  C312 6945   1.246   4.016  14.553  0.6475 -0.3629 -0.4541
   54DOPE  H12X 6946   1.135   4.019  14.548  0.6009  0.2464  0.7082
   54DOPE  H12Y 6947   1.273   4.118  14.585  1.4697 -0.5578 -0.5167
   54DOPE  C313 6948   1.279   3.912  14.664  0.4266 -0.2013  0.2251
   54DOPE  H13X 6949   1.238   3.812  14.640 -1.2171  0.1778  1.2595
   54DOPE  H13Y 6950   1.386   3.919  14.689  0.3264  1.3523  0.3143
   54DOPE  C314 6951   1.196   3.949  14.791  0.8724 -0.3161  0.4410
   54DOPE  H14X 6952   1.114   3.875  14.804 -0.4682  1.3059  1.7467
   54DOPE  H14Y 6953   1.146   4.044  14.762 -0.2193 -1.3157 -1.0859
   54DOPE  C315 6954   1.295   3.965  14.908 -0.0126 -0.8143 -0.3575
   54DOPE  H15X 6955   1.364   4.043  14.871 -0.7426  0.3731  0.7120
   54DOPE  H15Y 6956   1.347   3.870  14.934 -0.8532 -0.7327  1.8849
   54DOPE  C316 6957   1.212   4.007  15.037 -0.0965 -0.9929  0.7787
   54DOPE  H16X 6958   1.142   4.090  15.012  1.8226 -0.1877 -2.6153
   54DOPE  H16Y 6959   1.292   4.041  15.106 -0.6978 -0.1478  1.0762
   54DOPE  C317 6960   1.130   3.892  15.088  0.3110 -0.1246  0.0508
   54DOPE  H17X 6961   1.040   3.868  15.027 -0.0192 -1.2043  0.9373
   54DOPE  H17Y 6962   1.196   3.803  15.089  1.9916  0.9460 -2.8377
   54DOPE  C318 6963   1.067   3.906  15.228  0.2242  0.1652 -0.0625
   54DOPE  H18X 6964   1.014   4.003  15.243  0.8224  0.4649  0.1748
   54DOPE  H18Y 6965   0.993   3.825  15.245  0.5700 -0.0780  0.3068
   54DOPE  H18Z 6966   1.147   3.891  15.305  0.3765 -0.0637 -0.2650
   55DOPE     N 6967   4.758   0.888  11.715 -0.5585  0.1630 -0.0916
   55DOPE   HN1 6968   4.806   0.890  11.622  0.6671  1.5827  0.5303
   55DOPE   HN2 6969   4.683   0.817  11.721  0.6338 -1.0695  0.9866
   55DOPE   HN3 6970   4.708   0.978  11.732 -0.3656  0.3096 -0.2825
   55DOPE   C12 6971   4.866   0.863  11.809 -0.4801  0.2598 -0.2900
   55DOPE  H12A 6972   4.944   0.939  11.788  1.8396 -1.5915  1.0761
   55DOPE  H12B 6973   4.913   0.764  11.788 -0.1544  0.3879 -0.1674
   55DOPE   C11 6974   4.815   0.866  11.954 -0.2902 -0.1724  0.1912
   55DOPE  H11A 6975   4.908   0.875  12.015 -0.0539  1.1886 -0.3142
   55DOPE  H11B 6976   4.767   0.772  11.986  0.7440 -0.4792  0.9148
   55DOPE     P 6977   4.763   1.095  12.074  0.1502  0.2480 -0.1305
   55DOPE   O13 6978   4.653   1.197  12.075 -0.4318  0.0898  0.0367
   55DOPE   O14 6979   4.900   1.151  12.045 -1.0400 -0.1098  0.1310
   55DOPE   O11 6980   4.750   1.034  12.217 -0.9338  0.2708 -0.2573
   55DOPE   O12 6981   4.723   0.973  11.974 -0.3282  0.1397 -0.2683
   55DOPE    C1 6982   4.641   0.946  12.254 -0.2401 -0.0885  0.3743
   55DOPE    HA 6983   4.670   0.859  12.317 -3.1240 -0.0485  1.9083
   55DOPE    HB 6984   4.594   0.905  12.162  0.4233  1.4360 -0.6693
   55DOPE    C2 6985   4.526   1.021  12.329  0.4081  0.5074  0.2193
   55DOPE    HS 6986   4.501   1.107  12.264  1.5130  0.0603 -0.8478
   55DOPE   O21 6987   4.574   1.063  12.458 -0.0524 -0.2845  0.3772
   55DOPE   C21 6988   4.518   1.176  12.500 -0.3800 -0.0886 -0.1597
   55DOPE   O22 6989   4.451   1.250  12.432 -0.0246 -0.0615 -0.1315
   55DOPE   C22 6990   4.542   1.194  12.650  0.3142  0.5116  0.7134
   55DOPE   H2R 6991   4.651   1.205  12.666  1.1265 -3.1319 -1.1893
   55DOPE   H2S 6992   4.503   1.100  12.693 -1.4150  0.1228 -1.5010
   55DOPE    C3 6993   4.395   0.947  12.336  0.2539  0.4521  0.1294
   55DOPE    HX 6994   4.415   0.867  12.411  2.9561  0.7257 -0.1960
   55DOPE    HY 6995   4.377   0.894  12.240  1.0662 -0.7475  0.6144
   55DOPE   O31 6996   4.280   1.025  12.357  0.7613  0.1383  0.0259
   55DOPE   C31 6997   4.174   0.952  12.381  0.5712 -0.4668 -0.5914
   55DOPE   O32 6998   4.172   0.828  12.370 -0.1939 -0.0519 -0.1101
   55DOPE   C32 6999   4.051   1.035  12.400  0.2131 -0.1522 -0.6316
   55DOPE   H2X 7000   4.052   1.135  12.350  0.5997 -0.5869 -1.5252
   55DOPE   H2Y 7001   3.963   0.975  12.369 -0.8628  0.4145  1.1782
   55DOPE   C23 7002   4.473   1.311  12.716 -0.0817 -0.6877  0.6931
   55DOPE   H3R 7003   4.365   1.300  12.689  0.4021 -0.0729 -1.6731
   55DOPE   H3S 7004   4.511   1.407  12.674 -0.9935 -1.0717 -1.1068
   55DOPE   C24 7005   4.495   1.330  12.869  0.3853 -0.0162  0.7497
   55DOPE   H4R 7006   4.605   1.339  12.882  0.7079 -2.1023 -0.2603
   55DOPE   H4S 7007   4.446   1.246  12.921 -1.1734 -0.1918 -0.8894
   55DOPE   C25 7008   4.413   1.455  12.924 -0.3687  0.4346  0.3085
   55DOPE   H5R 7009   4.306   1.426  12.932 -0.1846 -1.8538 -3.2485
   55DOPE   H5S 7010   4.405   1.539  12.851 -0.2502  0.3704  0.2224
   55DOPE   C26 7011   4.463   1.513  13.062  1.0928  0.7502 -0.1459
   55DOPE   H6R 7012   4.388   1.590  13.090  0.1460 -0.6250  1.1642
   55DOPE   H6S 7013   4.564   1.560  13.053  0.3207  2.1409 -2.5801
   55DOPE   C27 7014   4.454   1.413  13.176 -0.2970  0.1684 -0.8142
   55DOPE   H7R 7015   4.507   1.323  13.139  0.5965  1.3682 -2.6183
   55DOPE   H7S 7016   4.345   1.390  13.176 -0.4447  0.8319 -0.5137
   55DOPE   C28 7017   4.505   1.448  13.308  0.1214 -0.3763  0.1439
   55DOPE   H8R 7018   4.606   1.495  13.302  0.2777 -0.0535  3.3216
   55DOPE   H8S 7019   4.543   1.355  13.357 -0.5569 -1.0120 -0.5138
   55DOPE   C29 7020   4.424   1.542  13.396  0.0975  0.0097  0.0131
   55DOPE   H9R 7021   4.431   1.643  13.354  0.4101 -0.1998 -0.4478
   55DOPE  C210 7022   4.359   1.510  13.505 -0.4112  0.2557 -0.3774
   55DOPE  H10R 7023   4.308   1.583  13.570 -0.6113 -0.6863  0.5607
   55DOPE  C211 7024   4.343   1.372  13.561  0.7976  0.5183 -0.6626
   55DOPE  H11R 7025   4.389   1.286  13.507 -1.5742 -1.3602  0.1030
   55DOPE  H11S 7026   4.235   1.346  13.566  0.8767 -0.0776 -1.8397
   55DOPE  C212 7027   4.390   1.360  13.709 -0.9558  0.0040  0.1373
   55DOPE  H12R 7028   4.477   1.429  13.709 -2.4977  2.2738 -3.7345
   55DOPE  H12S 7029   4.418   1.254  13.726 -0.4642 -0.2967 -2.2330
   55DOPE  C213 7030   4.281   1.411  13.805  0.4640  0.6073  0.9181
   55DOPE  H13R 7031   4.200   1.337  13.815  0.8710  0.3687  2.9195
   55DOPE  H13S 7032   4.238   1.504  13.762 -0.7531 -0.0939  0.6013
   55DOPE  C214 7033   4.325   1.427  13.951  0.4550  0.6276 -0.7556
   55DOPE  H14R 7034   4.405   1.503  13.959  0.3371  0.5452  1.9304
   55DOPE  H14S 7035   4.370   1.335  13.993  0.9461  1.1878 -0.0316
   55DOPE  C215 7036   4.212   1.468  14.046  0.3134 -0.8913 -0.6034
   55DOPE  H15R 7037   4.114   1.417  14.040  1.2683 -2.7797 -0.9964
   55DOPE  H15S 7038   4.187   1.576  14.037  0.8868 -0.5983  1.0084
   55DOPE  C216 7039   4.251   1.448  14.196 -0.0711  0.3587 -0.2696
   55DOPE  H16R 7040   4.361   1.466  14.202  0.0712 -0.8747  1.4665
   55DOPE  H16S 7041   4.229   1.339  14.206 -1.0474  0.6184  0.5208
   55DOPE  C217 7042   4.185   1.547  14.291 -0.4676  0.3553 -0.6992
   55DOPE  H17R 7043   4.077   1.562  14.267 -0.6678 -0.0883 -0.1103
   55DOPE  H17S 7044   4.222   1.651  14.288  0.9637 -0.0663  0.7530
   55DOPE  C218 7045   4.185   1.498  14.440 -0.6453 -0.3408 -0.4714
   55DOPE  H18R 7046   4.279   1.453  14.477 -0.6294 -2.0182 -2.3524
   55DOPE  H18S 7047   4.112   1.415  14.450 -1.2296  0.0169 -1.5573
   55DOPE  H18T 7048   4.139   1.582  14.496 -0.7756 -1.2303  0.7960
   55DOPE   C33 7049   4.011   1.044  12.551 -0.5180 -0.0130 -0.3002
   55DOPE   H3X 7050   3.971   0.944  12.581  3.0960 -1.2901  0.6873
   55DOPE   H3Y 7051   3.923   1.112  12.549 -2.1138 -1.9646 -2.9663
   55DOPE   C34 7052   4.120   1.092  12.652 -0.7416 -0.2183 -0.2328
   55DOPE   H4X 7053   4.205   1.021  12.661 -1.3180 -0.9231 -0.2440
   55DOPE   H4Y 7054   4.164   1.190  12.625  0.6595 -0.9601 -0.7490
   55DOPE   C35 7055   4.063   1.108  12.787 -0.4452  0.1005 -0.7125
   55DOPE   H5X 7056   4.003   1.022  12.821  1.3587 -0.2857  1.8125
   55DOPE   H5Y 7057   3.984   1.186  12.779 -1.9527 -1.4345 -1.3649
   55DOPE   C36 7058   4.181   1.124  12.887 -0.2789 -0.5059  0.6092
   55DOPE   H6X 7059   4.259   1.187  12.837 -1.1794  0.5075  0.4471
   55DOPE   H6Y 7060   4.239   1.030  12.901 -0.5265 -0.7211  0.1898
   55DOPE   C37 7061   4.144   1.182  13.024  0.0869  0.4767  0.4425
   55DOPE   H7X 7062   4.233   1.217  13.081 -0.5750 -1.7122  3.0522
   55DOPE   H7Y 7063   4.066   1.260  13.014 -2.1352 -1.8357 -1.9601
   55DOPE   C38 7064   4.081   1.072  13.117 -0.6649 -0.0935 -0.4721
   55DOPE   H8X 7065   3.993   1.021  13.072 -0.7519 -0.2913 -0.0875
   55DOPE   H8Y 7066   4.042   1.129  13.204 -0.2731  0.2813 -0.5422
   55DOPE   C39 7067   4.193   0.973  13.166  0.2421 -0.3540 -0.1738
   55DOPE   H9X 7068   4.236   0.902  13.094  1.6979  0.5959 -0.2828
   55DOPE  C310 7069   4.238   0.962  13.292 -0.2471  0.0031  0.3204
   55DOPE  H10X 7070   4.294   0.870  13.311 -1.5718 -1.1987 -1.2466
   55DOPE  C311 7071   4.191   1.036  13.420 -0.4367  0.3062  0.0013
   55DOPE  H11X 7072   4.281   1.093  13.451 -0.7969  0.8782  0.0174
   55DOPE  H11Y 7073   4.111   1.111  13.400  0.1107  0.7751 -0.4821
   55DOPE  C312 7074   4.167   0.938  13.532  0.3025  0.1632  0.0223
   55DOPE  H12X 7075   4.260   0.879  13.549  0.3235  0.3741  0.6668
   55DOPE  H12Y 7076   4.078   0.873  13.523  0.6401 -0.5297  1.4701
   55DOPE  C313 7077   4.128   1.016  13.660  0.3098 -0.2661 -0.2626
   55DOPE  H13X 7078   4.206   1.084  13.701 -0.3504  1.1829 -1.3587
   55DOPE  H13Y 7079   4.049   1.092  13.646  0.5976  0.2950  0.9737
   55DOPE  C314 7080   4.081   0.933  13.783 -0.6252  0.4815  0.5125
   55DOPE  H14X 7081   4.169   0.874  13.815  0.3456  1.0072 -1.0372
   55DOPE  H14Y 7082   4.005   0.857  13.754  1.1903 -1.3777  0.3960
   55DOPE  C315 7083   4.039   1.032  13.885  0.3358 -0.1965  0.5436
   55DOPE  H15X 7084   3.951   1.095  13.859  0.5322 -0.6946 -1.4411
   55DOPE  H15Y 7085   4.129   1.093  13.910 -0.1223  0.3894  0.8112
   55DOPE  C316 7086   4.008   0.970  14.024 -0.3560  0.5866 -0.0662
   55DOPE  H16X 7087   4.100   0.926  14.069  0.4961  0.3984 -1.9352
   55DOPE  H16Y 7088   3.935   0.887  14.016  0.6968 -0.2353 -1.4562
   55DOPE  C317 7089   3.924   1.068  14.117 -0.3120 -0.1522  0.3742
   55DOPE  H17X 7090   3.979   1.164  14.128  0.1052 -0.6206  2.9408
   55DOPE  H17Y 7091   3.825   1.097  14.075 -1.1915  1.1842  3.0982
   55DOPE  C318 7092   3.897   1.019  14.260 -0.3049 -0.5261 -0.1219
   55DOPE  H18X 7093   3.992   0.998  14.314 -0.0244 -1.2295 -0.8680
   55DOPE  H18Y 7094   3.839   1.092  14.320 -0.3597  0.0193 -0.8264
   55DOPE  H18Z 7095   3.842   0.923  14.255 -0.2702 -0.4710 -2.5674
   56DOPE     N 7096   2.766   1.154  12.681 -0.5708 -0.0550 -0.0294
   56DOPE   HN1 7097   2.785   1.064  12.729 -3.6907 -1.0684 -0.4910
   56DOPE   HN2 7098   2.675   1.171  12.728 -0.3231 -1.5032  1.0530
   56DOPE   HN3 7099   2.758   1.117  12.584  0.0612  1.5446 -0.7223
   56DOPE   C12 7100   2.883   1.248  12.698 -0.1068 -0.3944 -0.0314
   56DOPE  H12A 7101   2.899   1.256  12.807 -1.3547  2.8963  0.0129
   56DOPE  H12B 7102   2.856   1.348  12.656 -0.1844  0.1461  1.2821
   56DOPE   C11 7103   3.016   1.193  12.644 -0.1165  0.0244 -0.3991
   56DOPE  H11A 7104   3.098   1.268  12.637  1.3075 -1.5109 -0.6563
   56DOPE  H11B 7105   3.005   1.171  12.535  1.7636  1.2077 -0.8786
   56DOPE     P 7106   3.197   1.010  12.694 -0.1778  0.0986  0.1031
   56DOPE   O13 7107   3.280   1.085  12.596  0.4864 -0.1775 -0.2339
   56DOPE   O14 7108   3.187   0.864  12.674  0.0399  0.2367 -0.5213
   56DOPE   O11 7109   3.247   1.030  12.838 -0.2344 -0.4123 -0.8131
   56DOPE   O12 7110   3.055   1.071  12.704 -0.1624 -0.2536 -0.3901
   56DOPE    C1 7111   3.244   0.930  12.942 -0.0511 -0.0159 -0.0376
   56DOPE    HA 7112   3.333   0.950  13.004 -0.3644 -0.6696  0.6431
   56DOPE    HB 7113   3.250   0.828  12.897 -0.9359 -0.2402  0.3258
   56DOPE    C2 7114   3.116   0.951  13.026 -0.3791  0.7673  0.4745
   56DOPE    HS 7115   3.040   0.961  12.946 -0.2975 -0.5480  0.2119
   56DOPE   O21 7116   3.132   1.061  13.102  0.3656 -0.3997 -0.3473
   56DOPE   C21 7117   3.022   1.131  13.115  0.0980 -0.1904 -0.5557
   56DOPE   O22 7118   2.910   1.110  13.071 -0.4417  0.0954 -0.1761
   56DOPE   C22 7119   3.057   1.246  13.205  0.5443 -0.3204 -0.0640
   56DOPE   H2R 7120   2.989   1.329  13.177  2.2904  0.7340 -1.3767
   56DOPE   H2S 7121   3.157   1.283  13.174  0.3200  0.4295  0.0874
   56DOPE    C3 7122   3.080   0.815  13.100 -0.3601 -0.8091  0.1835
   56DOPE    HX 7123   3.100   0.734  13.027  2.8596 -1.1761  1.3137
   56DOPE    HY 7124   2.970   0.817  13.119 -0.3673  0.8174  0.1679
   56DOPE   O31 7125   3.169   0.798  13.215  0.0027  0.2195  0.0556
   56DOPE   C31 7126   3.108   0.839  13.323 -0.4259 -0.7914  0.9923
   56DOPE   O32 7127   2.993   0.883  13.329 -0.1975 -0.0727 -0.3891
   56DOPE   C32 7128   3.203   0.841  13.436  0.1707 -0.1140 -0.5734
   56DOPE   H2X 7129   3.250   0.742  13.452  1.6793  0.7888  0.8622
   56DOPE   H2Y 7130   3.285   0.915  13.425 -1.6283  1.8154 -1.8133
   56DOPE   C23 7131   3.048   1.223  13.360 -0.4834  0.5540 -0.4005
   56DOPE   H3R 7132   3.136   1.158  13.382 -2.1506 -2.6126 -2.3200
   56DOPE   H3S 7133   2.956   1.164  13.382  1.1383 -2.4048 -1.0034
   56DOPE   C24 7134   3.061   1.345  13.437  0.2192  0.2534 -0.0186
   56DOPE   H4R 7135   2.975   1.410  13.412 -0.2332 -0.5460 -0.5556
   56DOPE   H4S 7136   3.142   1.411  13.397 -1.9977  1.6282 -2.5548
   56DOPE   C25 7137   3.089   1.340  13.591  0.0832  0.3137 -0.4314
   56DOPE   H5R 7138   3.084   1.447  13.622  1.8845  0.2221  0.2667
   56DOPE   H5S 7139   3.189   1.301  13.619 -0.9682 -2.2819 -0.1105
   56DOPE   C26 7140   2.976   1.263  13.662 -0.6532 -0.1560  0.4339
   56DOPE   H6R 7141   2.954   1.170  13.606 -0.2572  0.6150 -1.0911
   56DOPE   H6S 7142   2.887   1.329  13.663  1.7321  3.3382  0.5558
   56DOPE   C27 7143   3.005   1.219  13.801 -0.0598  0.1965  0.3518
   56DOPE   H7R 7144   3.109   1.180  13.795 -0.2333 -0.4212  1.0879
   56DOPE   H7S 7145   2.940   1.131  13.824  0.8519 -0.1401  1.7820
   56DOPE   C28 7146   3.010   1.333  13.902 -0.0645 -0.3897 -0.4645
   56DOPE   H8R 7147   2.909   1.376  13.914 -0.6799 -1.7839 -0.4196
   56DOPE   H8S 7148   3.079   1.407  13.858  1.9320 -1.7274  0.2562
   56DOPE   C29 7149   3.054   1.294  14.048  0.1511 -0.3719 -0.1449
   56DOPE   H9R 7150   2.980   1.247  14.114 -1.0540  2.3027  0.5283
   56DOPE  C210 7151   3.179   1.313  14.108 -0.5371  0.1575  0.7196
   56DOPE  H10R 7152   3.183   1.273  14.210  2.8405  1.3357  1.1833
   56DOPE  C211 7153   3.305   1.360  14.045 -0.4928 -0.0768 -0.0680
   56DOPE  H11R 7154   3.337   1.438  14.117 -0.7483 -0.1505  0.1257
   56DOPE  H11S 7155   3.272   1.398  13.946  0.4260 -1.2166 -0.8526
   56DOPE  C212 7156   3.427   1.267  14.019  0.5358  0.3778  0.0837
   56DOPE  H12R 7157   3.450   1.227  14.120 -0.0795  1.0022  0.4759
   56DOPE  H12S 7158   3.506   1.327  13.969  0.9935  0.1041  0.4613
   56DOPE  C213 7159   3.403   1.139  13.928  0.4371 -0.5588  0.4110
   56DOPE  H13R 7160   3.375   1.166  13.824 -0.5986 -1.2127  0.5007
   56DOPE  H13S 7161   3.315   1.085  13.970 -1.2387 -0.6857 -2.9017
   56DOPE  C214 7162   3.521   1.041  13.935 -0.0267 -0.1280 -0.1025
   56DOPE  H14R 7163   3.549   1.010  14.038  0.7610  0.0774 -0.2514
   56DOPE  H14S 7164   3.615   1.093  13.910 -1.1166  3.1318  1.9130
   56DOPE  C215 7165   3.504   0.919  13.846  0.0890  0.3317 -0.0007
   56DOPE  H15R 7166   3.493   0.966  13.746  0.4457  1.2297  0.3672
   56DOPE  H15S 7167   3.419   0.851  13.870  0.4226  0.4013  1.5041
   56DOPE  C216 7168   3.640   0.845  13.822  0.3721  0.7401  0.5797
   56DOPE  H16R 7169   3.668   0.805  13.922  0.9242 -1.4701 -0.3902
   56DOPE  H16S 7170   3.717   0.916  13.784  0.4848 -0.6089 -1.9265
   56DOPE  C217 7171   3.639   0.723  13.730 -0.7850  0.6753  0.7597
   56DOPE  H17R 7172   3.632   0.759  13.625 -0.2779 -0.0269  0.4802
   56DOPE  H17S 7173   3.557   0.652  13.751 -0.9291  0.5023 -0.3322
   56DOPE  C218 7174   3.771   0.638  13.727  0.1596 -0.5367  0.1136
   56DOPE  H18R 7175   3.762   0.565  13.644 -0.0808 -0.7263  0.3034
   56DOPE  H18S 7176   3.786   0.582  13.822 -1.0320 -0.6731  0.2325
   56DOPE  H18T 7177   3.860   0.704  13.716  0.6484 -0.6598  2.6725
   56DOPE   C33 7178   3.135   0.889  13.571 -0.3106  0.5592  0.0360
   56DOPE   H3X 7179   3.102   0.995  13.570 -0.9593  0.3761  0.9050
   56DOPE   H3Y 7180   3.210   0.879  13.652 -0.0675 -2.1945 -0.4258
   56DOPE   C34 7181   3.033   0.792  13.620 -0.4237  0.0329  0.1615
   56DOPE   H4X 7182   2.949   0.790  13.547  0.4082  0.4737 -0.8417
   56DOPE   H4Y 7183   3.069   0.688  13.635 -3.1195 -0.8159  1.1973
   56DOPE   C35 7184   2.989   0.821  13.768 -0.3269 -0.4188  0.1489
   56DOPE   H5X 7185   2.888   0.779  13.791 -0.4998  0.2876  0.7057
   56DOPE   H5Y 7186   2.985   0.931  13.779  1.6239 -0.1625 -1.2561
   56DOPE   C36 7187   3.081   0.758  13.878 -0.2045  0.0898  0.0320
   56DOPE   H6X 7188   3.176   0.815  13.878 -0.8294  1.1918 -1.1960
   56DOPE   H6Y 7189   3.101   0.651  13.854 -1.3725  0.1681 -1.4348
   56DOPE   C37 7190   3.022   0.772  14.022 -0.5843  0.6963  0.1311
   56DOPE   H7X 7191   2.919   0.730  14.026 -0.0682 -0.6840 -0.5471
   56DOPE   H7Y 7192   3.086   0.722  14.097  0.4411  1.4956 -0.1949
   56DOPE   C38 7193   3.007   0.913  14.069 -0.0621 -0.2496  0.5857
   56DOPE   H8X 7194   2.932   0.965  14.006  1.8274  1.1257 -0.6512
   56DOPE   H8Y 7195   3.103   0.968  14.055 -0.3198  0.2684  0.8372
   56DOPE   C39 7196   2.966   0.929  14.210  0.0767  0.3555 -0.6671
   56DOPE   H9X 7197   2.859   0.948  14.227  0.1468  0.0614  0.1700
   56DOPE  C310 7198   3.047   0.930  14.317 -0.8901  0.6092  0.1769
   56DOPE  H10X 7199   3.004   0.934  14.418 -4.5038  0.4739 -1.1985
   56DOPE  C311 7200   3.196   0.921  14.317 -0.8519  0.0282  0.0213
   56DOPE  H11X 7201   3.225   0.815  14.331 -2.4376 -0.6785 -1.7663
   56DOPE  H11Y 7202   3.235   0.950  14.218 -1.5437 -2.0514 -0.9007
   56DOPE  C312 7203   3.261   1.020  14.423  0.6507  0.0993 -0.4297
   56DOPE  H12X 7204   3.222   1.007  14.526 -0.1557 -1.8415 -0.9180
   56DOPE  H12Y 7205   3.214   1.118  14.400 -0.5796 -0.4548 -0.3856
   56DOPE  C313 7206   3.405   1.044  14.398 -0.1760  0.0888 -0.4576
   56DOPE  H13X 7207   3.461   0.954  14.432  1.0815 -0.0480 -2.7186
   56DOPE  H13Y 7208   3.426   1.053  14.289  1.0104 -0.5364 -0.2916
   56DOPE  C314 7209   3.468   1.167  14.478  0.1684  0.5764 -0.1060
   56DOPE  H14X 7210   3.575   1.143  14.462 -0.4308 -1.9554 -0.8038
   56DOPE  H14Y 7211   3.440   1.155  14.585  1.3005  1.3189  0.2934
   56DOPE  C315 7212   3.433   1.305  14.427  0.2904  0.7183 -0.0194
   56DOPE  H15X 7213   3.418   1.296  14.317 -0.2955 -2.7222  0.2337
   56DOPE  H15Y 7214   3.522   1.370  14.441  2.2880 -1.6946 -0.8950
   56DOPE  C316 7215   3.312   1.356  14.498 -0.4697  0.0774  0.2857
   56DOPE  H16X 7216   3.326   1.359  14.608  2.3025 -1.8789  0.0666
   56DOPE  H16Y 7217   3.222   1.290  14.499 -1.2675  0.8771 -3.7887
   56DOPE  C317 7218   3.264   1.492  14.450  0.2910 -0.4808 -0.5848
   56DOPE  H17X 7219   3.346   1.565  14.466  1.3513 -1.5892 -0.7934
   56DOPE  H17Y 7220   3.252   1.498  14.340 -1.2486  1.1680 -0.3623
   56DOPE  C318 7221   3.134   1.534  14.525  0.4362  0.5402 -0.4847
   56DOPE  H18X 7222   3.082   1.624  14.485  0.9895 -0.1098 -2.7897
   56DOPE  H18Y 7223   3.061   1.450  14.515  1.0412 -0.2874  1.5785
   56DOPE  H18Z 7224   3.153   1.541  14.634  2.5536 -0.2675 -0.7637
   57DOPE     N 7225   1.206   2.215  11.987 -1.3214  0.5021 -0.4722
   57DOPE   HN1 7226   1.270   2.288  11.948 -0.6974  0.2631  0.0912
   57DOPE   HN2 7227   1.140   2.193  11.910 -2.0734 -2.6947  0.9414
   57DOPE   HN3 7228   1.158   2.271  12.060  0.2551  0.2038  0.8627
   57DOPE   C12 7229   1.283   2.094  12.041 -0.2772  0.5222 -0.4998
   57DOPE  H12A 7230   1.366   2.127  12.108  0.5395  0.4833 -1.4749
   57DOPE  H12B 7231   1.327   2.035  11.958  0.6890  1.5093 -0.7089
   57DOPE   C11 7232   1.186   2.004  12.107  0.7995 -0.3930  0.7698
   57DOPE  H11A 7233   1.254   1.921  12.135  2.3610  0.3563 -0.6325
   57DOPE  H11B 7234   1.107   1.976  12.034 -0.7125 -0.0431  2.2078
   57DOPE     P 7235   1.026   1.961  12.300 -0.5155 -0.3979 -0.2803
   57DOPE   O13 7236   0.963   1.867  12.201  0.4514 -0.5754 -0.6922
   57DOPE   O14 7237   0.937   2.036  12.385  0.1242 -0.1331 -0.4855
   57DOPE   O11 7238   1.128   1.885  12.389  0.3099 -0.0825 -0.1400
   57DOPE   O12 7239   1.124   2.056  12.219 -0.0504  0.0019  0.0699
   57DOPE    C1 7240   1.223   1.949  12.470 -0.4234 -0.1807  0.0241
   57DOPE    HA 7241   1.181   2.048  12.498 -1.4436  0.4534 -3.2254
   57DOPE    HB 7242   1.308   1.983  12.407  1.0659  0.3556  2.2456
   57DOPE    C2 7243   1.259   1.861  12.585  0.1048 -0.1684 -0.7065
   57DOPE    HS 7244   1.245   1.759  12.543 -0.7312  0.3161 -1.6675
   57DOPE   O21 7245   1.170   1.893  12.694  0.0930 -0.5298  0.4682
   57DOPE   C21 7246   1.156   1.801  12.789  0.0706  0.3270 -0.0969
   57DOPE   O22 7247   1.224   1.698  12.791 -0.1428  0.1817  0.1600
   57DOPE   C22 7248   1.052   1.846  12.886  0.1057  0.5274  1.0225
   57DOPE   H2R 7249   0.962   1.846  12.822  1.0823  0.9126 -0.3882
   57DOPE   H2S 7250   1.086   1.948  12.914 -1.8933  0.7182  3.0968
   57DOPE    C3 7251   1.410   1.874  12.640 -0.0928  0.3396  0.3598
   57DOPE    HX 7252   1.475   1.846  12.554  3.3972  2.0057  2.2166
   57DOPE    HY 7253   1.446   1.796  12.710  0.1352 -0.0195 -0.1483
   57DOPE   O31 7254   1.453   2.007  12.667  1.0388 -0.2394 -0.2844
   57DOPE   C31 7255   1.436   2.038  12.797  0.2950  0.4889  0.9230
   57DOPE   O32 7256   1.396   1.967  12.887 -0.0388  0.9371 -0.4410
   57DOPE   C32 7257   1.458   2.189  12.808  0.4228  0.1963 -0.1329
   57DOPE   H2X 7258   1.564   2.209  12.781  1.1025 -2.3493  0.3953
   57DOPE   H2Y 7259   1.393   2.250  12.741 -0.5276  0.3407  0.9033
   57DOPE   C23 7260   1.039   1.751  13.004 -0.3481 -0.4366  0.6165
   57DOPE   H3R 7261   1.133   1.759  13.063 -1.0703  2.3624  1.5548
   57DOPE   H3S 7262   1.030   1.646  12.970  1.2221  0.0002 -1.3543
   57DOPE   C24 7263   0.924   1.798  13.091  1.0017 -0.4728 -0.7007
   57DOPE   H4R 7264   0.838   1.792  13.020  0.3246 -0.0433  0.0697
   57DOPE   H4S 7265   0.935   1.899  13.134 -2.9483 -0.4981  0.7443
   57DOPE   C25 7266   0.914   1.706  13.214 -0.3740 -0.4809  0.1908
   57DOPE   H5R 7267   1.009   1.659  13.247 -0.3662 -0.9184 -0.4538
   57DOPE   H5S 7268   0.853   1.617  13.187 -0.6444 -0.1011 -0.4915
   57DOPE   C26 7269   0.853   1.776  13.337  0.4825 -0.2190  0.4986
   57DOPE   H6R 7270   0.743   1.773  13.324  0.6239  1.1466 -1.4982
   57DOPE   H6S 7271   0.880   1.884  13.342  0.8874 -0.2129 -1.3333
   57DOPE   C27 7272   0.886   1.712  13.470  0.1429 -0.2627  0.0263
   57DOPE   H7R 7273   0.993   1.731  13.494 -0.6359  0.7689  3.1702
   57DOPE   H7S 7274   0.881   1.601  13.460  0.1326 -0.2547 -0.0550
   57DOPE   C28 7275   0.813   1.777  13.592 -1.0311 -0.0191 -0.5155
   57DOPE   H8R 7276   0.822   1.887  13.584 -1.3828 -0.1004 -2.7995
   57DOPE   H8S 7277   0.866   1.746  13.684 -1.3131  1.1667  0.0591
   57DOPE   C29 7278   0.670   1.727  13.588 -0.1048 -0.0894  0.6613
   57DOPE   H9R 7279   0.592   1.778  13.530  1.3769  0.6681 -0.7397
   57DOPE  C210 7280   0.627   1.635  13.674 -0.0154  0.9468 -0.8978
   57DOPE  H10R 7281   0.523   1.599  13.671  0.0470  0.7273 -0.4994
   57DOPE  C211 7282   0.712   1.562  13.777 -0.0292 -0.1381  0.4839
   57DOPE  H11R 7283   0.746   1.635  13.853  0.8855  1.2827 -1.1996
   57DOPE  H11S 7284   0.802   1.519  13.729 -0.2609  2.3267 -2.4799
   57DOPE  C212 7285   0.636   1.437  13.837 -0.1778 -0.5235 -0.0240
   57DOPE  H12R 7286   0.717   1.365  13.861  0.6578  0.6151  0.7230
   57DOPE  H12S 7287   0.571   1.392  13.758 -0.9727  2.1280 -1.0025
   57DOPE  C213 7288   0.532   1.479  13.946  0.9106 -0.2523 -0.4280
   57DOPE  H13R 7289   0.462   1.558  13.914 -2.3045 -3.0271 -0.8187
   57DOPE  H13S 7290   0.585   1.526  14.032  0.3520  0.0375 -0.2428
   57DOPE  C214 7291   0.444   1.359  13.981 -0.3003 -0.2526 -0.4939
   57DOPE  H14R 7292   0.514   1.274  13.998 -1.4098 -0.8679  1.3199
   57DOPE  H14S 7293   0.383   1.337  13.892 -1.3272 -2.7476  0.7386
   57DOPE  C215 7294   0.362   1.379  14.103 -0.0773 -1.4875 -0.7424
   57DOPE  H15R 7295   0.292   1.294  14.118 -2.1491  0.1547 -0.6366
   57DOPE  H15S 7296   0.301   1.471  14.087  1.1102 -0.8847 -2.0497
   57DOPE  C216 7297   0.431   1.424  14.234  0.6250  0.3520  0.1862
   57DOPE  H16R 7298   0.439   1.534  14.246  0.6250  0.4336 -0.5454
   57DOPE  H16S 7299   0.535   1.384  14.236  1.1833  1.6308 -1.2701
   57DOPE  C217 7300   0.344   1.376  14.348  0.3754  0.0394  0.2810
   57DOPE  H17R 7301   0.310   1.273  14.325  0.8019  0.0746 -0.5524
   57DOPE  H17S 7302   0.246   1.429  14.347 -0.3392 -1.0439 -3.7813
   57DOPE  C218 7303   0.398   1.385  14.489  0.4494  0.0877 -0.0788
   57DOPE  H18R 7304   0.368   1.483  14.530 -0.4870 -0.4789  0.6206
   57DOPE  H18S 7305   0.504   1.368  14.519 -0.0694 -0.2260  1.7334
   57DOPE  H18T 7306   0.339   1.314  14.552  0.9554  1.2751  1.8370
   57DOPE   C33 7307   1.422   2.248  12.946 -0.1034 -0.3190 -0.3100
   57DOPE   H3X 7308   1.490   2.206  13.023 -0.7092 -0.0844  0.3666
   57DOPE   H3Y 7309   1.321   2.212  12.977 -0.2094  0.3405  0.1452
   57DOPE   C34 7310   1.416   2.397  12.951 -0.2526  0.2076 -0.2405
   57DOPE   H4X 7311   1.516   2.443  12.934 -0.5881  1.7499  1.5419
   57DOPE   H4Y 7312   1.342   2.435  12.879  1.3514  3.2944 -0.4633
   57DOPE   C35 7313   1.369   2.472  13.083 -0.2043  0.3354 -0.0415
   57DOPE   H5X 7314   1.358   2.581  13.066 -1.8733  0.2045 -0.0182
   57DOPE   H5Y 7315   1.449   2.453  13.156 -0.0251 -0.0780 -0.3415
   57DOPE   C36 7316   1.241   2.411  13.150  0.4785  0.0880 -0.1183
   57DOPE   H6X 7317   1.207   2.452  13.248 -0.6484  0.5271 -0.6731
   57DOPE   H6Y 7318   1.260   2.302  13.164 -3.1871 -0.5426  1.1108
   57DOPE   C37 7319   1.121   2.436  13.056 -0.2109  0.4666  0.3185
   57DOPE   H7X 7320   1.099   2.545  13.056 -0.2074  0.5146 -1.7344
   57DOPE   H7Y 7321   1.140   2.398  12.953 -1.0951  2.1189 -0.5120
   57DOPE   C38 7322   0.991   2.372  13.120  0.2442  0.5212 -0.4027
   57DOPE   H8X 7323   0.910   2.386  13.044 -0.6767  1.7504  0.7520
   57DOPE   H8Y 7324   0.961   2.430  13.210 -0.8964 -0.1600 -0.3201
   57DOPE   C39 7325   1.004   2.226  13.154  0.2430 -0.9505  0.3639
   57DOPE   H9X 7326   1.027   2.152  13.076 -0.5882  0.1075 -0.9273
   57DOPE  C310 7327   0.974   2.181  13.274  0.7249 -0.3211 -0.6806
   57DOPE  H10X 7328   0.986   2.074  13.296 -2.0153 -0.5551  0.0802
   57DOPE  C311 7329   0.930   2.255  13.403  0.4878  0.0912  0.0631
   57DOPE  H11X 7330   0.991   2.348  13.404  1.4103 -0.3528 -3.1956
   57DOPE  H11Y 7331   0.820   2.272  13.393  0.1802 -1.6795  0.1561
   57DOPE  C312 7332   0.955   2.167  13.523  0.2416  0.5323  0.1416
   57DOPE  H12X 7333   1.061   2.135  13.532 -0.0996 -0.0925  2.8558
   57DOPE  H12Y 7334   0.894   2.074  13.518  1.1916 -0.1885  1.3861
   57DOPE  C313 7335   0.916   2.243  13.648  0.2506 -0.4631 -0.8038
   57DOPE  H13X 7336   0.967   2.341  13.664  0.9428 -0.9468  0.0986
   57DOPE  H13Y 7337   0.812   2.275  13.629  0.1517 -0.4096 -0.1777
   57DOPE  C314 7338   0.924   2.163  13.774 -0.6270 -0.0018 -0.6896
   57DOPE  H14X 7339   0.934   2.223  13.867  0.0049  0.0882 -0.8132
   57DOPE  H14Y 7340   1.002   2.084  13.771 -1.0624 -0.4710  0.0367
   57DOPE  C315 7341   0.786   2.081  13.801  0.7479 -0.2239  0.2684
   57DOPE  H15X 7342   0.764   2.028  13.706  2.0426 -0.1281 -0.0963
   57DOPE  H15Y 7343   0.715   2.166  13.819  0.2218 -0.8392  1.2094
   57DOPE  C316 7344   0.790   1.992  13.925  0.1804 -0.1106  0.5649
   57DOPE  H16X 7345   0.832   2.041  14.015 -2.8659  0.4930  1.7736
   57DOPE  H16Y 7346   0.847   1.901  13.897 -3.7751 -3.6819  2.8612
   57DOPE  C317 7347   0.650   1.945  13.976 -0.0768 -0.2385 -0.3747
   57DOPE  H17X 7348   0.595   2.036  14.007  1.0672  0.0447  0.9530
   57DOPE  H17Y 7349   0.600   1.893  13.891  2.3151 -1.4194 -1.1675
   57DOPE  C318 7350   0.655   1.860  14.102  0.0729 -0.2570 -0.1140
   57DOPE  H18X 7351   0.552   1.853  14.143  0.2867  0.2434  0.5106
   57DOPE  H18Y 7352   0.694   1.756  14.091  0.8274 -0.0150  0.2002
   57DOPE  H18Z 7353   0.716   1.901  14.185  1.3769 -1.5276 -0.3876
   58DOPE     N 7354   2.154   0.568  12.483  0.3241  0.0395  0.1946
   58DOPE   HN1 7355   2.164   0.671  12.495 -1.0667  0.1534  0.5553
   58DOPE   HN2 7356   2.109   0.537  12.572  1.8567  2.5378  1.9725
   58DOPE   HN3 7357   2.249   0.526  12.480  0.3390  0.0385  0.5894
   58DOPE   C12 7358   2.067   0.531  12.360 -0.9802 -0.0830 -0.2763
   58DOPE  H12A 7359   2.069   0.420  12.358  1.5647 -0.1373  0.9791
   58DOPE  H12B 7360   2.117   0.577  12.273  2.9143 -2.6776  0.2817
   58DOPE   C11 7361   1.930   0.585  12.381 -0.6245  0.3487  0.4322
   58DOPE  H11A 7362   1.936   0.694  12.400 -1.1321  0.6287 -0.8883
   58DOPE  H11B 7363   1.884   0.533  12.468  2.8483 -0.3545  1.9899
   58DOPE     P 7364   1.753   0.461  12.225 -0.4844  0.3075  0.3672
   58DOPE   O13 7365   1.822   0.346  12.155 -0.8442  0.1408  0.0735
   58DOPE   O14 7366   1.642   0.529  12.153  0.0896 -0.4062 -0.4217
   58DOPE   O11 7367   1.700   0.420  12.369 -0.2287  0.1913 -0.1198
   58DOPE   O12 7368   1.861   0.565  12.259  0.7845  0.1295  0.0372
   58DOPE    C1 7369   1.634   0.291  12.386  0.2865  0.3234 -0.0559
   58DOPE    HA 7370   1.687   0.205  12.341  0.2860 -0.2351  0.9676
   58DOPE    HB 7371   1.530   0.285  12.347 -0.0319 -1.3218  0.9571
   58DOPE    C2 7372   1.621   0.259  12.539 -0.4049  0.0568  0.2394
   58DOPE    HS 7373   1.576   0.158  12.548  0.7512 -0.4812  0.2032
   58DOPE   O21 7374   1.528   0.339  12.613  0.0982 -0.0256  0.1669
   58DOPE   C21 7375   1.395   0.324  12.587 -0.7253 -0.2359 -0.0390
   58DOPE   O22 7376   1.344   0.257  12.501  0.1635 -0.1814  0.1084
   58DOPE   C22 7377   1.326   0.420  12.681 -0.0628 -0.2412 -0.0021
   58DOPE   H2R 7378   1.352   0.527  12.674 -2.0563  0.6539  3.5257
   58DOPE   H2S 7379   1.356   0.386  12.783  2.1846 -1.8240 -1.1069
   58DOPE    C3 7380   1.755   0.263  12.616 -0.4162  0.3103 -0.3870
   58DOPE    HX 7381   1.776   0.369  12.642 -0.7683  0.6476 -1.4001
   58DOPE    HY 7382   1.839   0.227  12.552 -0.2482 -3.2005  1.5725
   58DOPE   O31 7383   1.749   0.176  12.735  0.7900  0.6491  0.8608
   58DOPE   C31 7384   1.855   0.180  12.804 -0.5464  0.8786  0.0092
   58DOPE   O32 7385   1.959   0.230  12.775  0.4639 -0.3536  0.1816
   58DOPE   C32 7386   1.831   0.099  12.929  0.5104  0.1174 -0.6735
   58DOPE   H2X 7387   1.722   0.087  12.942  0.4677  2.0023  1.1395
   58DOPE   H2Y 7388   1.881   0.001  12.910  4.1593  1.4716  0.9827
   58DOPE   C23 7389   1.173   0.394  12.659 -0.2644 -0.9611  0.3306
   58DOPE   H3R 7390   1.155   0.286  12.679  2.7925 -1.3769  1.2177
   58DOPE   H3S 7391   1.141   0.427  12.558  1.4532 -4.4136 -1.5262
   58DOPE   C24 7392   1.097   0.474  12.765  0.0470 -0.6156 -0.0738
   58DOPE   H4R 7393   1.122   0.582  12.767 -2.3836  0.0320  3.4215
   58DOPE   H4S 7394   1.097   0.421  12.862 -0.3787  3.1206  2.1706
   58DOPE   C25 7395   0.946   0.480  12.730 -0.9647 -0.7254 -0.1113
   58DOPE   H5R 7396   0.908   0.376  12.732  0.8857 -1.4602 -0.6754
   58DOPE   H5S 7397   0.925   0.530  12.633  2.4850  0.1643 -0.5217
   58DOPE   C26 7398   0.864   0.544  12.848 -0.5520  0.3056  0.3952
   58DOPE   H6R 7399   0.893   0.498  12.945  1.4680 -1.6982 -1.0481
   58DOPE   H6S 7400   0.757   0.516  12.842  0.2107 -2.8551 -0.3036
   58DOPE   C27 7401   0.882   0.699  12.869  0.8120 -0.1999  0.8965
   58DOPE   H7R 7402   0.836   0.743  12.778 -0.8692 -0.4676  1.5829
   58DOPE   H7S 7403   0.990   0.723  12.864  0.9419 -0.6678  1.3983
   58DOPE   C28 7404   0.835   0.753  13.005  0.0470 -0.1324  0.4344
   58DOPE   H8R 7405   0.842   0.862  13.024 -0.0000  0.0378 -0.4591
   58DOPE   H8S 7406   0.901   0.700  13.077 -1.5289 -1.7542  0.7804
   58DOPE   C29 7407   0.694   0.709  13.037  0.4928  0.5213  0.0246
   58DOPE   H9R 7408   0.617   0.766  12.982  0.1949  1.5152  1.4305
   58DOPE  C210 7409   0.657   0.617  13.130 -0.6772  0.1834 -0.5426
   58DOPE  H10R 7410   0.550   0.600  13.149 -0.2486 -0.3498  1.6953
   58DOPE  C211 7411   0.749   0.537  13.218 -0.4301  0.1251 -0.3328
   58DOPE  H11R 7412   0.857   0.532  13.193  0.0523 -0.0283  1.5882
   58DOPE  H11S 7413   0.711   0.433  13.221 -0.1205  0.0201  0.1072
   58DOPE  C212 7414   0.738   0.603  13.354  0.3156 -0.0021 -0.1006
   58DOPE  H12R 7415   0.632   0.591  13.386 -0.4165 -1.8569 -2.8131
   58DOPE  H12S 7416   0.774   0.708  13.356 -0.1424  0.1493  0.9297
   58DOPE  C213 7417   0.821   0.544  13.464  0.0621  0.1201  0.2670
   58DOPE  H13R 7418   0.930   0.542  13.443  0.0311 -0.5881  0.1348
   58DOPE  H13S 7419   0.790   0.439  13.483 -1.8082  0.5844 -0.0206
   58DOPE  C214 7420   0.800   0.607  13.602 -0.2330 -0.4614  0.4631
   58DOPE  H14R 7421   0.690   0.617  13.616 -0.0993  1.4744  0.3092
   58DOPE  H14S 7422   0.849   0.706  13.613  0.1544 -0.5725 -0.2424
   58DOPE  C215 7423   0.850   0.513  13.711  0.5152 -0.4855 -0.3280
   58DOPE  H15R 7424   0.953   0.480  13.685  1.6038  2.3699 -0.0702
   58DOPE  H15S 7425   0.799   0.415  13.715  1.2400 -0.8841 -0.6047
   58DOPE  C216 7426   0.858   0.588  13.846  0.1631  0.2336 -0.3905
   58DOPE  H16R 7427   0.764   0.638  13.879  0.1822  0.5661 -0.8356
   58DOPE  H16S 7428   0.934   0.668  13.831  0.9639 -0.1996  1.1134
   58DOPE  C217 7429   0.909   0.510  13.963  0.5203  1.3592 -0.1737
   58DOPE  H17R 7430   1.011   0.484  13.928 -0.1431  1.6165 -2.4367
   58DOPE  H17S 7431   0.842   0.421  13.966  1.2031  0.8588  1.9689
   58DOPE  C218 7432   0.901   0.588  14.094 -0.7088 -0.2475 -0.5896
   58DOPE  H18R 7433   0.802   0.606  14.142  0.1737  1.6627  0.6455
   58DOPE  H18S 7434   0.943   0.685  14.060  0.6797 -1.0903 -1.3446
   58DOPE  H18T 7435   0.969   0.548  14.172 -1.1088  0.2090  0.0097
   58DOPE   C33 7436   1.897   0.148  13.060 -0.5777  0.0576  0.3811
   58DOPE   H3X 7437   1.893   0.259  13.067  0.0825  0.1992 -0.9895
   58DOPE   H3Y 7438   2.007   0.129  13.056 -0.8685 -1.8313  0.5733
   58DOPE   C34 7439   1.858   0.079  13.193  0.3918  0.5690 -0.1650
   58DOPE   H4X 7440   1.867  -0.030  13.179 -1.0720  0.2732  0.9581
   58DOPE   H4Y 7441   1.923   0.110  13.278  1.0506  0.7250 -0.7121
   58DOPE   C35 7442   1.713   0.118  13.223 -0.6742  1.0219 -0.0926
   58DOPE   H5X 7443   1.645   0.087  13.140 -1.1128  1.5438  0.0633
   58DOPE   H5Y 7444   1.702   0.229  13.223  2.4225  1.4006 -0.2298
   58DOPE   C36 7445   1.667   0.068  13.360  0.1619  0.0064 -0.1687
   58DOPE   H6X 7446   1.699  -0.038  13.363  0.6281  0.1079 -1.2975
   58DOPE   H6Y 7447   1.556   0.071  13.353  0.1898  3.1857 -1.0384
   58DOPE   C37 7448   1.708   0.147  13.487  0.1403 -0.4889 -0.4052
   58DOPE   H7X 7449   1.818   0.161  13.499  0.2942  0.5102 -2.4473
   58DOPE   H7Y 7450   1.667   0.249  13.476 -0.0114 -0.5317 -0.2275
   58DOPE   C38 7451   1.642   0.082  13.608  1.2057  0.4471 -0.2596
   58DOPE   H8X 7452   1.533   0.071  13.589  1.4559 -0.2342 -1.4259
   58DOPE   H8Y 7453   1.659   0.157  13.687  4.2988 -1.4820  1.0795
   58DOPE   C39 7454   1.704  -0.053  13.640  0.5049 -0.0475  0.1861
   58DOPE   H9X 7455   1.689  -0.139  13.572  2.5296 -0.6043  0.3842
   58DOPE  C310 7456   1.777  -0.073  13.753 -0.6798  0.7090 -0.8748
   58DOPE  H10X 7457   1.812  -0.174  13.780 -0.5111  0.8885 -0.4289
   58DOPE  C311 7458   1.807   0.025  13.864  0.4284  0.1390 -0.4319
   58DOPE  H11X 7459   1.900  -0.005  13.918 -1.8163 -3.0024  2.0654
   58DOPE  H11Y 7460   1.829   0.129  13.833 -0.4396  0.3554 -0.3385
   58DOPE  C312 7461   1.698   0.030  13.970 -0.0419  0.5438 -0.3465
   58DOPE  H12X 7462   1.597   0.068  13.947 -1.8575 -2.0575  2.4500
   58DOPE  H12Y 7463   1.730   0.109  14.042  0.4984  0.6255 -0.6715
   58DOPE  C313 7464   1.701  -0.106  14.049  0.4703 -0.3942 -0.1296
   58DOPE  H13X 7465   1.677  -0.191  13.981 -3.7542 -0.8787  1.6459
   58DOPE  H13Y 7466   1.805  -0.126  14.082  0.6761  0.2300 -0.4024
   58DOPE  C314 7467   1.609  -0.108  14.166  0.2069 -0.0538 -0.0882
   58DOPE  H14X 7468   1.626  -0.205  14.217 -0.3265  0.4551  1.0660
   58DOPE  H14Y 7469   1.504  -0.100  14.132 -0.0450 -0.6250  0.5405
   58DOPE  C315 7470   1.625   0.007  14.281  0.1671 -0.1028 -0.5751
   58DOPE  H15X 7471   1.529   0.010  14.337 -0.2104  2.1462 -1.2432
   58DOPE  H15Y 7472   1.621   0.102  14.224  0.5766  0.8696  0.9628
   58DOPE  C316 7473   1.741  -0.032  14.376 -1.0080 -0.3029 -0.1243
   58DOPE  H16X 7474   1.838  -0.042  14.322 -0.7834 -0.1981  0.2545
   58DOPE  H16Y 7475   1.718  -0.134  14.413  3.7089 -1.2085  0.9459
   58DOPE  C317 7476   1.772   0.066  14.496  0.3639 -0.7897  0.6380
   58DOPE  H17X 7477   1.693   0.050  14.573  0.8774  1.7607  1.7731
   58DOPE  H17Y 7478   1.867   0.050  14.551 -0.7520 -3.4638  2.0152
   58DOPE  C318 7479   1.766   0.219  14.451 -0.2338 -0.3492  0.1209
   58DOPE  H18X 7480   1.846   0.228  14.375  0.0004 -0.6215  0.3314
   58DOPE  H18Y 7481   1.675   0.246  14.394 -0.2161 -1.2093 -0.3249
   58DOPE  H18Z 7482   1.792   0.286  14.536 -0.0001 -0.0832 -0.1598
   59DOPE     N 7483   2.171   3.552  12.969  0.0447  0.0949 -0.0661
   59DOPE   HN1 7484   2.168   3.635  13.031 -0.9741  0.0313 -0.0077
   59DOPE   HN2 7485   2.244   3.562  12.896  0.9507 -0.4752  0.7458
   59DOPE   HN3 7486   2.079   3.545  12.921  0.3058  0.0324 -0.5637
   59DOPE   C12 7487   2.197   3.431  13.044  0.2710  0.3929 -0.2269
   59DOPE  H12A 7488   2.107   3.409  13.104  1.1055  1.1105  1.3623
   59DOPE  H12B 7489   2.269   3.457  13.126 -1.5375  0.2120  1.4959
   59DOPE   C11 7490   2.228   3.305  12.963  0.2158 -0.2351 -0.6622
   59DOPE  H11A 7491   2.277   3.225  13.024  2.1360  1.5023  0.1903
   59DOPE  H11B 7492   2.303   3.342  12.890 -0.2711 -0.5156 -1.3172
   59DOPE     P 7493   2.084   3.130  12.828 -0.3327  0.0298  0.3043
   59DOPE   O13 7494   2.177   3.096  12.719 -0.5504 -0.3114 -0.5720
   59DOPE   O14 7495   1.942   3.120  12.795  0.9449 -0.1475  0.0005
   59DOPE   O11 7496   2.105   3.047  12.962 -0.0183 -0.3420  0.0584
   59DOPE   O12 7497   2.107   3.273  12.891 -0.4824 -0.2017  0.7747
   59DOPE    C1 7498   2.121   2.904  12.945 -0.0496 -0.5749 -0.3954
   59DOPE    HA 7499   2.184   2.867  13.028 -1.4216  0.2629  1.0726
   59DOPE    HB 7500   2.175   2.875  12.852  1.0396 -3.4985  1.0288
   59DOPE    C2 7501   1.984   2.835  12.953 -0.4300 -0.5536  0.0137
   59DOPE    HS 7502   1.932   2.875  12.863  0.0142 -2.7954 -1.3352
   59DOPE   O21 7503   1.900   2.871  13.069 -0.2157  0.0927 -0.1807
   59DOPE   C21 7504   1.767   2.846  13.058 -0.5245  0.2522 -0.2915
   59DOPE   O22 7505   1.705   2.810  12.960 -0.2561 -0.7146  0.2710
   59DOPE   C22 7506   1.713   2.903  13.191  0.2181  0.3557  0.8577
   59DOPE   H2R 7507   1.664   2.996  13.155 -2.0825 -1.8864 -2.3654
   59DOPE   H2S 7508   1.791   2.921  13.268  0.7413  3.1158 -0.2312
   59DOPE    C3 7509   1.982   2.681  12.930  0.2843 -0.3012 -0.2913
   59DOPE    HX 7510   2.017   2.676  12.825  0.6478  1.2628 -0.2787
   59DOPE    HY 7511   1.880   2.638  12.931 -0.1476  0.6173 -1.6738
   59DOPE   O31 7512   2.064   2.619  13.033  0.5016  0.3708 -0.6663
   59DOPE   C31 7513   2.173   2.557  12.993 -0.3241 -0.3964 -0.0516
   59DOPE   O32 7514   2.222   2.554  12.882 -0.3402 -0.5176 -0.2779
   59DOPE   C32 7515   2.234   2.483  13.109  0.4407  1.0852  0.0382
   59DOPE   H2X 7516   2.227   2.550  13.198  0.3139 -1.5527  2.1498
   59DOPE   H2Y 7517   2.161   2.404  13.138  2.1875 -1.4687 -2.0829
   59DOPE   C23 7518   1.598   2.811  13.254  0.1386 -0.0710  0.2820
   59DOPE   H3R 7519   1.537   2.759  13.177 -1.0067  2.1507 -0.4020
   59DOPE   H3S 7520   1.526   2.880  13.303 -0.2211 -0.5819  0.4813
   59DOPE   C24 7521   1.648   2.715  13.360 -0.5256  0.0658 -0.2130
   59DOPE   H4R 7522   1.709   2.780  13.426 -2.0419  1.6882 -0.3162
   59DOPE   H4S 7523   1.723   2.651  13.309  2.2725 -0.5206  4.1783
   59DOPE   C25 7524   1.539   2.630  13.424 -0.1291 -0.1062  0.0051
   59DOPE   H5R 7525   1.571   2.524  13.436 -1.1921 -0.2646  1.7597
   59DOPE   H5S 7526   1.457   2.629  13.349  0.5778  2.4029 -0.8928
   59DOPE   C26 7527   1.490   2.677  13.560 -0.8631  0.1051 -0.3447
   59DOPE   H6R 7528   1.487   2.787  13.546  0.5369 -0.0534 -2.1860
   59DOPE   H6S 7529   1.565   2.652  13.638 -1.1240 -0.4367 -0.2575
   59DOPE   C27 7530   1.353   2.617  13.595  0.7048 -0.3359  0.1605
   59DOPE   H7R 7531   1.279   2.612  13.513 -0.3910  0.8879  1.0247
   59DOPE   H7S 7532   1.304   2.675  13.677  0.8274 -1.4309  1.0315
   59DOPE   C28 7533   1.375   2.482  13.677 -0.2133 -0.1630  0.2415
   59DOPE   H8R 7534   1.440   2.511  13.762  1.3246  0.0889 -0.9726
   59DOPE   H8S 7535   1.437   2.411  13.618 -0.3353  0.1518 -0.2806
   59DOPE   C29 7536   1.250   2.408  13.722  0.3039 -0.1089 -0.2074
   59DOPE   H9R 7537   1.195   2.369  13.636 -2.5820  1.3134  0.8370
   59DOPE  C210 7538   1.206   2.392  13.851 -0.2141  0.2187 -0.6203
   59DOPE  H10R 7539   1.123   2.322  13.864 -1.0665  1.5598  1.6515
   59DOPE  C211 7540   1.278   2.428  13.973 -0.2676 -0.1171 -0.4666
   59DOPE  H11R 7541   1.340   2.520  13.967  1.2320 -0.8868  1.9171
   59DOPE  H11S 7542   1.352   2.349  13.997 -0.1581  0.8094  2.7148
   59DOPE  C212 7543   1.192   2.446  14.099  0.2898  0.1229 -0.3672
   59DOPE  H12R 7544   1.121   2.362  14.104  0.4418 -0.1617 -2.2785
   59DOPE  H12S 7545   1.125   2.535  14.097 -1.4409 -1.1359 -0.0334
   59DOPE  C213 7546   1.274   2.459  14.235  0.5455  0.3416 -0.4922
   59DOPE  H13R 7547   1.352   2.537  14.222 -0.7109  1.7107  0.0032
   59DOPE  H13S 7548   1.339   2.369  14.247  1.4319  1.1249  0.9010
   59DOPE  C214 7549   1.183   2.489  14.353  0.4237  0.8158  0.0094
   59DOPE  H14R 7550   1.104   2.411  14.350  1.9778 -1.2029  4.0635
   59DOPE  H14S 7551   1.140   2.589  14.331 -1.9125 -0.5696 -2.4156
   59DOPE  C215 7552   1.251   2.468  14.486  0.2292  0.4066 -0.6060
   59DOPE  H15R 7553   1.307   2.561  14.510  0.8708  0.1636 -1.1435
   59DOPE  H15S 7554   1.324   2.384  14.487 -1.7109 -1.3927  0.7141
   59DOPE  C216 7555   1.149   2.446  14.604 -0.0907 -0.4120 -0.8513
   59DOPE  H16R 7556   1.104   2.348  14.577 -0.8093 -0.7455  1.3895
   59DOPE  H16S 7557   1.079   2.532  14.599  0.0899 -0.2988 -1.7326
   59DOPE  C217 7558   1.210   2.435  14.740 -0.3246 -0.1419 -0.2466
   59DOPE  H17R 7559   1.275   2.524  14.757 -3.1235  1.8326  0.7246
   59DOPE  H17S 7560   1.277   2.346  14.747  0.3761  0.5023  2.3140
   59DOPE  C218 7561   1.110   2.432  14.853 -0.1927  0.2839  0.2329
   59DOPE  H18R 7562   1.161   2.433  14.951 -0.5373  1.8828  0.4357
   59DOPE  H18S 7563   1.036   2.349  14.849 -0.0339  0.1766 -0.9242
   59DOPE  H18T 7564   1.059   2.531  14.851  2.0682  1.5245 -1.8779
   59DOPE   C33 7565   2.379   2.432  13.101 -0.6336  0.1794  0.1318
   59DOPE   H3X 7566   2.424   2.519  13.048  0.0133  0.3550  0.9562
   59DOPE   H3Y 7567   2.380   2.342  13.037 -3.3953 -1.8219  2.6319
   59DOPE   C34 7568   2.449   2.407  13.236  0.8588  0.3709 -0.1034
   59DOPE   H4X 7569   2.369   2.361  13.298 -0.7350  1.7844 -1.0180
   59DOPE   H4Y 7570   2.526   2.333  13.206  2.5510  2.2388 -0.6078
   59DOPE   C35 7571   2.510   2.534  13.297 -0.1870  0.5316 -0.1259
   59DOPE   H5X 7572   2.428   2.609  13.305 -0.7255 -0.0959  0.3320
   59DOPE   H5Y 7573   2.577   2.581  13.222  1.0285 -0.8816  0.0225
   59DOPE   C36 7574   2.578   2.506  13.436  0.5149 -0.1877 -0.6194
   59DOPE   H6X 7575   2.620   2.599  13.480  0.3447 -0.1158 -0.6082
   59DOPE   H6Y 7576   2.665   2.440  13.417 -2.1113 -3.8778 -0.8405
   59DOPE   C37 7577   2.496   2.437  13.546  0.0676  0.0972 -0.1906
   59DOPE   H7X 7578   2.476   2.329  13.536 -0.6543 -0.0428  2.1453
   59DOPE   H7Y 7579   2.568   2.448  13.630  1.2058  1.5606 -1.2860
   59DOPE   C38 7580   2.364   2.505  13.591 -0.0258  0.6747 -0.6015
   59DOPE   H8X 7581   2.283   2.490  13.516 -0.4285 -0.0273 -0.0426
   59DOPE   H8Y 7582   2.386   2.614  13.598 -3.0585  1.2805  2.6172
   59DOPE   C39 7583   2.304   2.446  13.716 -0.2554  1.3978 -0.4861
   59DOPE   H9X 7584   2.262   2.346  13.698  0.5718  1.0859 -0.7136
   59DOPE  C310 7585   2.303   2.505  13.840 -0.2748  0.2330 -0.3909
   59DOPE  H10X 7586   2.263   2.442  13.921  0.7248 -2.4580 -1.8771
   59DOPE  C311 7587   2.377   2.624  13.891  0.2691 -0.2036  0.2889
   59DOPE  H11X 7588   2.452   2.651  13.815  1.5380 -0.7732  1.3035
   59DOPE  H11Y 7589   2.305   2.707  13.908 -1.5799 -1.3754 -1.4096
   59DOPE  C312 7590   2.447   2.609  14.027 -0.7128  0.0320 -0.0601
   59DOPE  H12X 7591   2.522   2.687  14.054 -0.5650  0.0850 -0.6295
   59DOPE  H12Y 7592   2.505   2.515  14.036 -0.4272  0.2779  0.8010
   59DOPE  C313 7593   2.346   2.601  14.139  0.0676 -0.1696  0.1631
   59DOPE  H13X 7594   2.248   2.634  14.099  0.1840 -0.1878 -0.1366
   59DOPE  H13Y 7595   2.332   2.494  14.164 -0.1853 -0.2689 -0.3873
   59DOPE  C314 7596   2.382   2.694  14.260  0.0847 -0.1386 -0.0531
   59DOPE  H14X 7597   2.375   2.800  14.227  0.0749  1.0128  3.2198
   59DOPE  H14Y 7598   2.481   2.663  14.298  0.4137  0.2266 -0.6046
   59DOPE  C315 7599   2.288   2.671  14.379  0.3314 -0.0260  0.4197
   59DOPE  H15X 7600   2.320   2.584  14.440 -0.0803 -0.8477 -0.5200
   59DOPE  H15Y 7601   2.183   2.657  14.346  0.5567 -0.9189  0.0428
   59DOPE  C316 7602   2.296   2.783  14.484  0.2076 -0.0332 -0.9048
   59DOPE  H16X 7603   2.241   2.875  14.454  3.3434  2.2782 -0.0262
   59DOPE  H16Y 7604   2.401   2.811  14.503  0.2360 -0.7850  0.1080
   59DOPE  C317 7605   2.243   2.736  14.623  0.2741 -0.3621 -0.1308
   59DOPE  H17X 7606   2.211   2.827  14.678 -0.0617 -0.0416 -0.8495
   59DOPE  H17Y 7607   2.153   2.672  14.615  1.6475 -2.3972  0.0505
   59DOPE  C318 7608   2.345   2.656  14.707  0.4145 -0.1564 -0.3973
   59DOPE  H18X 7609   2.427   2.726  14.732 -1.5380  2.5609 -1.1316
   59DOPE  H18Y 7610   2.297   2.618  14.800 -1.5795  0.1087 -1.2678
   59DOPE  H18Z 7611   2.390   2.576  14.644  1.5548  2.2204 -2.8128
   60DOPE     N 7612   2.288   1.339  12.554 -0.2459 -0.6891 -0.0256
   60DOPE   HN1 7613   2.221   1.393  12.496  1.2777  0.0312 -1.1950
   60DOPE   HN2 7614   2.362   1.410  12.565 -1.4688  0.7479 -0.7431
   60DOPE   HN3 7615   2.319   1.255  12.500 -1.1584 -1.8559  1.1971
   60DOPE   C12 7616   2.226   1.296  12.686 -0.2132  0.6761 -0.1986
   60DOPE  H12A 7617   2.178   1.386  12.731 -0.2623  0.3831  0.3370
   60DOPE  H12B 7618   2.310   1.258  12.747 -0.8094 -0.9577 -0.3517
   60DOPE   C11 7619   2.130   1.168  12.673  0.2055  0.0830 -0.5594
   60DOPE  H11A 7620   2.036   1.193  12.620 -1.3639 -1.2070  1.4690
   60DOPE  H11B 7621   2.116   1.139  12.780  0.1168  1.9083 -0.0384
   60DOPE     P 7622   2.141   0.920  12.591  0.1702 -0.0648  0.0231
   60DOPE   O13 7623   2.208   0.832  12.491 -0.9196 -0.3074 -0.1633
   60DOPE   O14 7624   1.998   0.937  12.584  0.1076  0.1274  0.4759
   60DOPE   O11 7625   2.170   0.863  12.735 -0.2742  0.0227 -0.1011
   60DOPE   O12 7626   2.205   1.067  12.592 -0.6880 -0.7794  0.0995
   60DOPE    C1 7627   2.303   0.835  12.775  0.3712 -0.2820  0.9025
   60DOPE    HA 7628   2.373   0.904  12.724 -1.1513  2.3752  2.1817
   60DOPE    HB 7629   2.335   0.730  12.761  0.5286 -0.2895  1.2947
   60DOPE    C2 7630   2.330   0.854  12.927 -0.4589 -0.2025  0.4295
   60DOPE    HS 7631   2.264   0.785  12.984  0.4281 -1.2367  0.2273
   60DOPE   O21 7632   2.313   0.992  12.968 -0.8173  0.7313 -0.5844
   60DOPE   C21 7633   2.228   1.003  13.064  0.6803  0.4504 -0.4953
   60DOPE   O22 7634   2.140   0.922  13.100 -0.0751 -0.1159 -0.2645
   60DOPE   C22 7635   2.252   1.141  13.133 -0.2534  0.0272  0.7051
   60DOPE   H2R 7636   2.250   1.217  13.052 -1.3722  0.6090  1.2525
   60DOPE   H2S 7637   2.354   1.155  13.174  0.5775  1.0577 -1.5168
   60DOPE    C3 7638   2.481   0.816  12.956  0.4220 -0.2317 -0.5437
   60DOPE    HX 7639   2.538   0.870  12.878 -1.0912  1.5852 -0.4626
   60DOPE    HY 7640   2.488   0.708  12.931 -0.0552 -0.3160 -0.3261
   60DOPE   O31 7641   2.523   0.843  13.093 -0.1919 -0.3480  0.3491
   60DOPE   C31 7642   2.592   0.952  13.110  0.4373  0.1964 -1.6194
   60DOPE   O32 7643   2.608   1.043  13.033  0.3388 -0.2244 -0.1346
   60DOPE   C32 7644   2.666   0.945  13.240 -0.2742  0.3552  0.3197
   60DOPE   H2X 7645   2.702   0.840  13.250  1.5667  0.9669  0.5168
   60DOPE   H2Y 7646   2.755   1.010  13.226  0.3604 -0.8787 -1.7359
   60DOPE   C23 7647   2.151   1.179  13.241 -0.0130  0.1887  0.0547
   60DOPE   H3R 7648   2.044   1.164  13.218 -0.3994  3.2920 -0.7501
   60DOPE   H3S 7649   2.156   1.290  13.253 -1.5651  0.7324 -3.0963
   60DOPE   C24 7650   2.192   1.124  13.378  0.2585 -0.0337 -0.0911
   60DOPE   H4R 7651   2.300   1.121  13.406  0.0649  0.5817  0.7894
   60DOPE   H4S 7652   2.150   1.022  13.367 -0.4777  0.0717  1.4180
   60DOPE   C25 7653   2.117   1.192  13.488 -0.1655 -0.2238  0.0187
   60DOPE   H5R 7654   2.009   1.193  13.464  0.2148 -0.6900 -1.9622
   60DOPE   H5S 7655   2.158   1.295  13.493  1.4396 -0.8903  1.6322
   60DOPE   C26 7656   2.129   1.118  13.621  0.1110 -0.0533  0.0339
   60DOPE   H6R 7657   2.226   1.073  13.652 -1.2896 -3.2092  0.1211
   60DOPE   H6S 7658   2.054   1.037  13.624 -0.1302  0.1234 -1.0259
   60DOPE   C27 7659   2.083   1.207  13.740  0.2875 -0.3941  0.6419
   60DOPE   H7R 7660   1.980   1.247  13.730  0.2543 -0.9783 -2.0777
   60DOPE   H7S 7661   2.140   1.302  13.752  1.1130 -0.7167 -0.5941
   60DOPE   C28 7662   2.101   1.128  13.871 -0.2652 -0.3100  0.1042
   60DOPE   H8R 7663   2.209   1.103  13.877 -0.1008  0.4579  0.3687
   60DOPE   H8S 7664   2.040   1.035  13.875 -0.5562 -0.0811  2.4564
   60DOPE   C29 7665   2.059   1.211  13.992  0.2886 -0.2006  0.0966
   60DOPE   H9R 7666   2.106   1.310  13.993 -1.0098  0.4356 -0.5295
   60DOPE  C210 7667   1.969   1.178  14.091  0.6742 -0.2374  0.3042
   60DOPE  H10R 7668   1.943   1.252  14.168  1.9257 -0.9333  1.4407
   60DOPE  C211 7669   1.902   1.045  14.124  0.2480 -0.5170 -0.1460
   60DOPE  H11R 7670   1.976   0.991  14.186 -1.6885 -1.3389  1.5699
   60DOPE  H11S 7671   1.880   0.989  14.030  2.0731 -2.8767  0.7356
   60DOPE  C212 7672   1.786   1.063  14.213  0.0913  0.2670  0.1518
   60DOPE  H12R 7673   1.744   0.961  14.225 -0.1004  0.2054 -0.9788
   60DOPE  H12S 7674   1.702   1.111  14.158  1.4996  0.0551 -2.3000
   60DOPE  C213 7675   1.806   1.131  14.347  0.0130 -0.2886  0.1396
   60DOPE  H13R 7676   1.844   1.235  14.341 -2.9343  0.9272  1.0035
   60DOPE  H13S 7677   1.886   1.075  14.401  1.5571  0.9381 -0.7968
   60DOPE  C214 7678   1.672   1.141  14.424 -0.6261 -0.1143  0.5749
   60DOPE  H14R 7679   1.642   1.039  14.456 -1.5875  0.3576  1.2028
   60DOPE  H14S 7680   1.597   1.189  14.358  0.6477  1.4112  0.1577
   60DOPE  C215 7681   1.689   1.229  14.551  0.2670  0.2364  0.2377
   60DOPE  H15R 7682   1.705   1.326  14.499  1.9830 -0.9897 -1.6511
   60DOPE  H15S 7683   1.779   1.205  14.612 -0.0933 -0.9007  0.3402
   60DOPE  C216 7684   1.562   1.226  14.641  0.1281  0.4293  0.3446
   60DOPE  H16R 7685   1.544   1.124  14.683 -0.7141  1.4695  2.6525
   60DOPE  H16S 7686   1.470   1.241  14.581 -1.4841 -1.0489  2.3314
   60DOPE  C217 7687   1.576   1.334  14.739  0.3076  0.1234  0.0898
   60DOPE  H17R 7688   1.604   1.425  14.682 -3.8878  0.9834 -0.8899
   60DOPE  H17S 7689   1.663   1.314  14.806  2.0870  4.2642 -0.6717
   60DOPE  C218 7690   1.455   1.344  14.826 -0.2338 -0.4728 -0.4532
   60DOPE  H18R 7691   1.452   1.435  14.889 -0.1260  0.2870 -1.5136
   60DOPE  H18S 7692   1.447   1.260  14.898 -1.1098  2.6727  3.5105
   60DOPE  H18T 7693   1.358   1.346  14.772 -0.6661 -0.4535  0.3122
   60DOPE   C33 7694   2.571   0.968  13.354  0.3274  0.4035  0.0234
   60DOPE   H3X 7695   2.500   0.883  13.342 -0.2238  0.9397 -0.5612
   60DOPE   H3Y 7696   2.522   1.067  13.351  0.8697  0.6795  0.2713
   60DOPE   C34 7697   2.637   0.963  13.494 -0.6178 -0.2357  0.7484
   60DOPE   H4X 7698   2.701   0.876  13.520 -0.4708  0.0386  1.3190
   60DOPE   H4Y 7699   2.713   1.044  13.490  0.7244 -1.4918  0.1416
   60DOPE   C35 7700   2.543   0.983  13.611  0.1510  0.6749  0.1755
   60DOPE   H5X 7701   2.485   0.888  13.621 -0.9170  1.2968  0.0723
   60DOPE   H5Y 7702   2.470   1.065  13.596 -1.7875 -0.7782  1.1974
   60DOPE   C36 7703   2.618   1.004  13.747  0.2173 -0.3577  0.2086
   60DOPE   H6X 7704   2.701   1.077  13.747  0.7496 -0.9000 -2.0978
   60DOPE   H6Y 7705   2.670   0.912  13.783 -0.4061 -1.0165 -0.5584
   60DOPE   C37 7706   2.521   1.045  13.859 -0.4628  0.3925  0.4476
   60DOPE   H7X 7707   2.482   1.148  13.848 -0.6966  0.2001 -0.6605
   60DOPE   H7Y 7708   2.434   0.980  13.835 -0.6706  1.5268 -2.0810
   60DOPE   C38 7709   2.567   1.007  14.004  0.1379  0.7237 -0.2856
   60DOPE   H8X 7710   2.594   0.900  14.018 -5.6701 -0.9550  1.2022
   60DOPE   H8Y 7711   2.474   1.010  14.066  1.1445  0.2265  1.3076
   60DOPE   C39 7712   2.667   1.109  14.057  0.2141  0.0832  0.4935
   60DOPE   H9X 7713   2.741   1.141  13.982 -0.0143  0.9897  0.6365
   60DOPE  C310 7714   2.666   1.165  14.182  0.3562  0.2238 -0.2055
   60DOPE  H10X 7715   2.732   1.250  14.207  1.4389 -1.0493  1.5326
   60DOPE  C311 7716   2.565   1.129  14.283  0.5251  0.0073 -1.1364
   60DOPE  H11X 7717   2.468   1.176  14.254  0.9969  0.6784 -1.6514
   60DOPE  H11Y 7718   2.561   1.018  14.287  1.6477 -0.0568 -1.6417
   60DOPE  C312 7719   2.628   1.185  14.415 -0.8049 -0.5318  0.2600
   60DOPE  H12X 7720   2.555   1.176  14.497 -1.3539  0.0339 -0.1572
   60DOPE  H12Y 7721   2.656   1.291  14.401 -1.5643 -0.4629 -0.8216
   60DOPE  C313 7722   2.763   1.122  14.454 -0.0871 -0.3637 -0.3939
   60DOPE  H13X 7723   2.767   1.012  14.438  0.2066 -0.3906 -0.1318
   60DOPE  H13Y 7724   2.839   1.156  14.380 -0.7890  1.7049 -0.2402
   60DOPE  C314 7725   2.808   1.168  14.594 -0.2028 -0.3637  0.1632
   60DOPE  H14X 7726   2.738   1.131  14.672  0.4316 -1.2913  0.3073
   60DOPE  H14Y 7727   2.817   1.278  14.600 -1.3018 -0.3177  1.1916
   60DOPE  C315 7728   2.952   1.116  14.622  0.0380  0.3356 -0.2701
   60DOPE  H15X 7729   3.028   1.150  14.549 -0.3998 -0.3002 -1.0404
   60DOPE  H15Y 7730   2.962   1.005  14.627 -0.4900  0.0676 -3.2614
   60DOPE  C316 7731   2.992   1.161  14.764 -0.5768  0.3640 -0.5741
   60DOPE  H16X 7732   2.920   1.125  14.840 -0.3524  1.6021  0.2600
   60DOPE  H16Y 7733   2.984   1.272  14.764  1.0258  0.5269 -1.9063
   60DOPE  C317 7734   3.135   1.134  14.801  0.1141  0.0130 -0.2920
   60DOPE  H17X 7735   3.194   1.144  14.707 -0.8304 -1.3367 -1.0698
   60DOPE  H17Y 7736   3.176   1.205  14.876  2.9802 -0.5908 -1.1632
   60DOPE  C318 7737   3.159   0.989  14.842  0.2998  0.0711  0.0640
   60DOPE  H18X 7738   3.141   0.989  14.952  1.4597  2.4769  0.3163
   60DOPE  H18Y 7739   3.095   0.916  14.789  0.5675 -2.7298  3.2133
   60DOPE  H18Z 7740   3.265   0.968  14.817 -0.1410  0.4813 -2.3692
   6123SM     N 7741   4.622   5.200  18.024 -0.5430 -1.0422  0.1861
   6123SM   C15 7742   4.660   5.334  18.080 -0.6513 -0.4008 -0.0964
   6123SM  H15A 7743   4.723   5.327  18.168 -0.4882 -1.7991 -0.2996
   6123SM  H15B 7744   4.572   5.385  18.117 -0.4051 -0.3598  0.4544
   6123SM  H15C 7745   4.710   5.388  18.002 -0.4107 -1.2318 -0.5337
   6123SM   C14 7746   4.594   5.109  18.141 -0.0760  0.1620 -0.9900
   6123SM  H14A 7747   4.559   5.018  18.096 -2.2546 -0.0476  0.9353
   6123SM  H14B 7748   4.521   5.162  18.201  1.2465  2.3278 -1.1609
   6123SM  H14C 7749   4.686   5.102  18.197 -0.4023  0.3928 -0.4150
   6123SM   C13 7750   4.498   5.219  17.955  0.6827  0.0325  0.0780
   6123SM  H13A 7751   4.496   5.270  17.860 -1.5127 -2.0633 -1.1336
   6123SM  H13B 7752   4.425   5.274  18.012  0.1334  2.0032 -2.3334
   6123SM  H13C 7753   4.464   5.121  17.924  2.0026 -0.3734 -0.1545
   6123SM   C12 7754   4.730   5.142  17.933 -0.1928 -0.4672 -0.0499
   6123SM  H12A 7755   4.821   5.135  17.992 -0.4152  2.7147  0.8361
   6123SM  H12B 7756   4.759   5.212  17.857  2.2252 -0.2583  0.9757
   6123SM   C11 7757   4.706   5.007  17.862  0.1949  0.0650  0.0228
   6123SM  H11A 7758   4.794   4.994  17.796 -0.9229  1.1936 -1.7943
   6123SM  H11B 7759   4.618   5.013  17.793  2.0454  0.7799 -2.4302
   6123SM     P 7760   4.655   4.754  17.898  0.2995 -0.3414  0.1279
   6123SM   O13 7761   4.695   4.657  18.006 -0.7234  0.1777 -0.4152
   6123SM   O14 7762   4.512   4.758  17.861 -0.0243 -0.3905 -0.4426
   6123SM   O11 7763   4.744   4.730  17.765  0.1822 -0.2384 -0.6588
   6123SM   O12 7764   4.697   4.900  17.946  0.1876  0.6415 -0.4641
   6123SM   C1S 7765   4.848   4.635  17.762  0.4058  0.8715 -0.1315
   6123SM   H1S 7766   4.796   4.540  17.784 -2.4238  2.2655 -0.3531
   6123SM   H1T 7767   4.929   4.661  17.833 -0.3370  1.0527  0.6706
   6123SM    NF 7768   4.993   4.496  17.611 -0.3298 -0.1087 -0.5093
   6123SM   HNF 7769   5.092   4.496  17.603 -0.2579  1.6833  0.0156
   6123SM   C2S 7770   4.918   4.621  17.625 -0.7528  0.3970  0.5066
   6123SM   H2S 7771   4.841   4.617  17.544  1.0283  0.9958 -1.2993
   6123SM   C3S 7772   5.002   4.749  17.602 -0.3346 -0.5604 -0.2001
   6123SM   H3S 7773   5.074   4.773  17.683 -1.4848  1.0816  0.3976
   6123SM    O3 7774   4.918   4.869  17.595 -0.1221  0.2418  0.3139
   6123SM   HO3 7775   4.836   4.842  17.636 -0.3559 -0.3091 -0.5008
   6123SM   C4S 7776   5.094   4.742  17.474  0.6636 -0.1677  0.4130
   6123SM   H4S 7777   5.195   4.701  17.483  0.2500 -1.1358  0.8798
   6123SM   C5S 7778   5.055   4.774  17.352  0.0312  0.0804 -0.0589
   6123SM   H5S 7779   4.954   4.816  17.337 -0.1655 -0.9223 -1.7699
   6123SM   C6S 7780   5.136   4.784  17.226 -0.5764 -0.5135 -0.1645
   6123SM   H6S 7781   5.221   4.853  17.244 -0.8737  0.2838 -1.6488
   6123SM   H6T 7782   5.070   4.819  17.143 -1.5387 -0.1611  0.7260
   6123SM   C7S 7783   5.198   4.653  17.182 -0.5890 -0.0366  0.5941
   6123SM   H7S 7784   5.117   4.578  17.180  0.2746 -0.9768 -1.4112
   6123SM   H7T 7785   5.279   4.619  17.251  1.7501  0.8053 -1.5821
   6123SM   C8S 7786   5.269   4.659  17.049 -0.7442 -0.5665 -0.3229
   6123SM   H8S 7787   5.343   4.578  17.037  0.9922  0.6423  1.5550
   6123SM   H8T 7788   5.336   4.747  17.056  0.3615 -1.4418  0.5298
   6123SM   C9S 7789   5.181   4.675  16.928  0.0593  0.5212  0.1228
   6123SM   H9S 7790   5.122   4.769  16.931 -0.5663  0.2762 -2.1214
   6123SM   H9T 7791   5.093   4.607  16.924 -0.4108  1.1731 -1.1329
   6123SM  C10S 7792   5.257   4.689  16.791  0.1196 -0.7532 -1.0143
   6123SM  H10S 7793   5.325   4.601  16.792  2.1386  0.7274 -2.2252
   6123SM  H10T 7794   5.316   4.783  16.790 -0.6477 -0.2520 -0.3276
   6123SM  C11S 7795   5.166   4.688  16.669 -0.5343  0.3532 -0.2217
   6123SM  H11S 7796   5.096   4.774  16.669 -0.2415  0.6112 -1.1874
   6123SM  H11T 7797   5.097   4.602  16.659  0.7972 -0.8513  0.6923
   6123SM  C12S 7798   5.250   4.680  16.541  0.3502  0.2574 -0.0275
   6123SM  H12S 7799   5.316   4.591  16.541 -0.4633 -0.4423 -2.8990
   6123SM  H12T 7800   5.314   4.772  16.542  0.6053  0.0880  1.6462
   6123SM  C13S 7801   5.157   4.657  16.418  0.3804  0.9842  0.3928
   6123SM  H13S 7802   5.085   4.742  16.422 -0.4885  0.2774  0.1775
   6123SM  H13T 7803   5.106   4.559  16.432 -0.5331  1.1411 -1.4954
   6123SM  C14S 7804   5.224   4.672  16.279 -0.3920  0.3867 -0.2221
   6123SM  H14S 7805   5.290   4.583  16.266 -2.0909 -0.7085 -1.7753
   6123SM  H14T 7806   5.273   4.772  16.287  0.9678  0.0036 -2.6785
   6123SM  C15S 7807   5.113   4.676  16.174  0.1862  0.2460  0.3961
   6123SM  H15S 7808   5.020   4.724  16.210 -0.3752  0.2450 -1.0235
   6123SM  H15T 7809   5.092   4.568  16.157 -1.6306  0.4761  0.9660
   6123SM  C16S 7810   5.155   4.742  16.048 -0.1053  0.1597 -0.8135
   6123SM  H16S 7811   5.233   4.667  16.022 -1.9322 -2.0773 -0.1860
   6123SM  H16T 7812   5.182   4.846  16.075 -2.9034  0.7506  0.0592
   6123SM  C17S 7813   5.045   4.744  15.941  0.8980 -0.2626  0.3908
   6123SM  H17S 7814   4.968   4.817  15.973  1.0122  0.4393 -0.8812
   6123SM  H17T 7815   5.003   4.642  15.929  0.8278 -0.0649 -1.2319
   6123SM  C18S 7816   5.106   4.792  15.807 -0.4822 -0.7282  0.1633
   6123SM  H18S 7817   5.109   4.901  15.831 -0.6056 -1.1819  2.4162
   6123SM  H18T 7818   5.026   4.780  15.731 -0.4650 -0.3744  0.0835
   6123SM  H18U 7819   5.209   4.761  15.780  0.2271  1.1164  0.5529
   6123SM   C1F 7820   4.939   4.378  17.610 -0.0106 -0.1565 -0.1156
   6123SM    OF 7821   4.823   4.351  17.616  0.4406  0.1778  0.5639
   6123SM   C2F 7822   5.042   4.279  17.594 -0.4843 -0.1827 -0.2021
   6123SM   H2F 7823   4.995   4.181  17.615 -1.9287  0.2337 -1.3350
   6123SM   H2G 7824   5.114   4.295  17.678 -1.3730 -1.9762  0.9539
   6123SM   C3F 7825   5.101   4.279  17.449  0.0282  0.0862 -0.1276
   6123SM   H3F 7826   5.170   4.192  17.445 -0.8533 -0.5895 -0.9093
   6123SM   H3G 7827   5.164   4.368  17.429  0.6366 -0.3320 -0.1202
   6123SM   C4F 7828   5.011   4.251  17.335  0.3153 -0.1595 -0.0922
   6123SM   H4F 7829   4.957   4.348  17.329  0.6798  0.1054  0.7856
   6123SM   H4G 7830   4.941   4.168  17.363 -1.4443  1.4901  0.6482
   6123SM   C5F 7831   5.072   4.231  17.197  0.8935  0.5784 -0.2076
   6123SM   H5F 7832   5.098   4.123  17.190 -0.7680  0.1833 -0.8155
   6123SM   H5G 7833   5.158   4.300  17.187 -0.0561  2.1895  1.8829
   6123SM   C6F 7834   4.975   4.270  17.082 -0.5001 -0.0967 -0.1756
   6123SM   H6F 7835   4.940   4.374  17.101 -1.0738 -0.2258 -0.5006
   6123SM   H6G 7836   4.887   4.203  17.078 -1.2836  0.6229  2.6350
   6123SM   C7F 7837   5.042   4.270  16.945 -0.5217 -0.7655 -0.3409
   6123SM   H7F 7838   5.098   4.174  16.937  0.9507  0.2014 -3.1979
   6123SM   H7G 7839   5.122   4.348  16.947 -1.5694  0.4247  3.7100
   6123SM   C8F 7840   4.949   4.293  16.828 -0.2364  0.5686 -0.3738
   6123SM   H8F 7841   4.929   4.401  16.813 -0.2138  0.3753 -1.9691
   6123SM   H8G 7842   4.848   4.249  16.848  0.1992 -0.2283  0.1302
   6123SM   C9F 7843   4.998   4.247  16.686 -0.5258 -0.4265 -0.3064
   6123SM   H9F 7844   5.040   4.144  16.694  3.3721  0.6555 -3.3923
   6123SM   H9G 7845   5.080   4.320  16.667  0.3705 -1.2537  0.2973
   6123SM  C10F 7846   4.889   4.250  16.579 -1.1758  0.8157 -0.0430
   6123SM  H10F 7847   4.857   4.354  16.560  2.6045  2.1307 -0.1479
   6123SM  H10G 7848   4.806   4.191  16.622 -1.8247  2.3839  0.9316
   6123SM  C11F 7849   4.947   4.184  16.457  0.5538  0.2463  1.0448
   6123SM  H11F 7850   4.951   4.073  16.470  1.3743  0.2833  1.1038
   6123SM  H11G 7851   5.054   4.210  16.446  1.0386 -0.1060  4.0518
   6123SM  C12F 7852   4.863   4.217  16.330  0.6496 -0.2295 -0.1763
   6123SM  H12F 7853   4.915   4.176  16.241  2.7076  0.6496  0.5662
   6123SM  H12G 7854   4.859   4.327  16.314 -1.9265  0.3729  3.4030
   6123SM  C13F 7855   4.718   4.158  16.344 -0.2291  0.2276 -0.0718
   6123SM  H13F 7856   4.671   4.194  16.438 -3.4576 -0.3182 -1.3464
   6123SM  H13G 7857   4.730   4.048  16.350  0.7553  0.3904  2.3548
   6123SM  C14F 7858   4.626   4.197  16.227  0.1052  0.2487  0.3116
   6123SM  H14F 7859   4.594   4.303  16.232 -2.2144 -0.2766 -1.5101
   6123SM  H14G 7860   4.536   4.137  16.252 -0.3441  0.1357 -1.4569
   6123SM  C15F 7861   4.682   4.171  16.085  0.0699 -0.1555  0.6174
   6123SM  H15F 7862   4.765   4.238  16.054 -0.5216  0.0882 -0.4752
   6123SM  H15G 7863   4.602   4.184  16.010  1.0244  0.3362 -0.3506
   6123SM  C16F 7864   4.736   4.030  16.064  0.3729  0.8383  0.9033
   6123SM  H16F 7865   4.694   3.964  16.143 -0.3685 -1.3299 -1.1693
   6123SM  H16G 7866   4.846   4.025  16.078  0.3176 -0.5187  1.0067
   6123SM  C17F 7867   4.702   3.976  15.929  0.3461 -0.5513  0.3518
   6123SM  H17F 7868   4.592   3.959  15.933  0.1585  0.7720  1.7676
   6123SM  H17G 7869   4.751   3.878  15.910  0.3101 -0.2253 -1.6504
   6123SM  C18F 7870   4.733   4.073  15.809 -0.4016 -0.0283 -0.0986
   6123SM  H18F 7871   4.842   4.095  15.816 -0.3591 -0.3574  0.3469
   6123SM  H18G 7872   4.672   4.165  15.821 -1.1051 -0.6671  1.4636
   6123SM  C19F 7873   4.706   4.014  15.670  0.3923  0.7653 -0.6508
   6123SM  H19F 7874   4.603   3.976  15.655  0.4572  1.0589 -1.8813
   6123SM  H19G 7875   4.783   3.935  15.653  1.4971  1.9868 -1.5373
   6123SM  C20F 7876   4.723   4.097  15.549  0.1508 -0.1807 -0.4229
   6123SM  H20F 7877   4.827   4.136  15.548  0.3062 -0.4965  1.5073
   6123SM  H20G 7878   4.656   4.187  15.553 -1.4058 -1.3368  3.4097
   6123SM  C21F 7879   4.713   4.021  15.419  0.0966  0.3017  0.0490
   6123SM  H21F 7880   4.609   3.982  15.411  0.0677  0.1645  0.9941
   6123SM  H21G 7881   4.782   3.935  15.431  1.0390  1.0526  0.1548
   6123SM  C22F 7882   4.747   4.094  15.291 -0.0521  0.2652  0.0434
   6123SM  H22F 7883   4.683   4.184  15.278 -0.2476 -0.1179 -1.9181
   6123SM  H22G 7884   4.722   4.021  15.211 -2.5489 -1.3096  2.1009
   6123SM  C23F 7885   4.885   4.139  15.290 -0.5894 -0.3999  0.7413
   6123SM  H23F 7886   4.907   4.186  15.191 -1.2160  1.1038  1.2782
   6123SM  H23G 7887   4.953   4.052  15.282  1.3374  1.1630 -1.6753
   6123SM  H23H 7888   4.918   4.210  15.369 -3.1760 -0.3900  1.8958
   6223SM     N 7889   5.769   4.216  17.857  0.2080 -1.3680  0.1449
   6223SM   C15 7890   5.804   4.172  17.714  0.2834 -0.1246 -0.2603
   6223SM  H15A 7891   5.753   4.238  17.645 -0.4895  0.6023  0.9833
   6223SM  H15B 7892   5.781   4.068  17.699  2.9973 -0.8311 -0.1949
   6223SM  H15C 7893   5.910   4.166  17.693  0.2336  0.6996 -0.8343
   6223SM   C14 7894   5.862   4.144  17.940  0.1772  0.5032  0.2445
   6223SM  H14A 7895   5.856   4.038  17.922 -4.5546  0.9858 -2.8865
   6223SM  H14B 7896   5.838   4.159  18.044  0.0823  0.0868  0.2838
   6223SM  H14C 7897   5.965   4.166  17.914  0.8953 -1.5140  1.1884
   6223SM   C13 7898   5.793   4.368  17.882 -0.2196 -0.3683  0.6222
   6223SM  H13A 7899   5.762   4.391  17.982  0.6094 -0.7944  0.9864
   6223SM  H13B 7900   5.734   4.424  17.810 -0.7015 -0.6630  0.7861
   6223SM  H13C 7901   5.898   4.395  17.876 -0.8056  2.0489 -0.0094
   6223SM   C12 7902   5.627   4.176  17.879  0.8811  0.5082 -0.2863
   6223SM  H12A 7903   5.559   4.250  17.840 -1.1029 -1.1011 -0.0641
   6223SM  H12B 7904   5.607   4.176  17.985  1.0430 -0.4951 -0.2395
   6223SM   C11 7905   5.577   4.033  17.818  0.1013 -0.6074  0.3395
   6223SM  H11A 7906   5.491   4.000  17.879  1.8571  0.5308  3.6395
   6223SM  H11B 7907   5.656   3.959  17.843 -0.3627 -1.1429  0.2415
   6223SM     P 7908   5.421   4.136  17.644  0.6330 -0.2938  0.3493
   6223SM   O13 7909   5.314   4.064  17.710 -0.3103  0.6501 -0.3029
   6223SM   O14 7910   5.439   4.276  17.684  0.7857 -1.3728 -0.0167
   6223SM   O11 7911   5.392   4.129  17.491 -0.2105  0.6518 -0.6043
   6223SM   O12 7912   5.553   4.046  17.679  0.6701  0.4725  0.0845
   6223SM   C1S 7913   5.456   4.025  17.413 -0.1265 -0.6358  0.0285
   6223SM   H1S 7914   5.395   3.934  17.436 -2.2683  1.0582  1.4794
   6223SM   H1T 7915   5.560   4.007  17.449  0.1571 -0.7664 -0.8300
   6223SM    NF 7916   5.497   3.927  17.186 -0.2432 -0.4526  0.2780
   6223SM   HNF 7917   5.575   3.937  17.125 -2.1766  0.0906 -2.3016
   6223SM   C2S 7918   5.454   4.041  17.258  0.5586 -0.3760 -0.5816
   6223SM   H2S 7919   5.349   4.068  17.236  0.2555  0.3608  1.5253
   6223SM   C3S 7920   5.527   4.176  17.231  0.1664 -0.3927  0.2801
   6223SM   H3S 7921   5.629   4.169  17.275  0.2153 -3.6702 -0.1089
   6223SM    O3 7922   5.464   4.287  17.303  0.6698 -0.6523  0.0001
   6223SM   HO3 7923   5.412   4.248  17.373  0.1974 -0.8672 -0.4649
   6223SM   C4S 7924   5.540   4.222  17.077 -0.1269  1.2084 -0.9165
   6223SM   H4S 7925   5.640   4.208  17.035  0.6951 -0.5690  1.4229
   6223SM   C5S 7926   5.447   4.290  17.003 -0.1071 -0.5099 -0.9562
   6223SM   H5S 7927   5.345   4.314  17.039  0.2866 -0.0089 -0.1390
   6223SM   C6S 7928   5.480   4.345  16.870 -0.1063 -0.4336  0.8110
   6223SM   H6S 7929   5.584   4.333  16.833 -1.2026 -0.5001 -2.5789
   6223SM   H6T 7930   5.470   4.456  16.870  1.0475 -0.2840  2.5219
   6223SM   C7S 7931   5.386   4.284  16.769  0.0362 -0.0725  0.4509
   6223SM   H7S 7932   5.284   4.326  16.783  1.0634  1.8801  3.0187
   6223SM   H7T 7933   5.392   4.175  16.785  0.5202 -0.3626 -1.5260
   6223SM   C8S 7934   5.443   4.317  16.626  0.0172  0.3210 -0.2927
   6223SM   H8S 7935   5.546   4.284  16.600 -0.8246 -0.9006 -2.3026
   6223SM   H8T 7936   5.443   4.428  16.620 -2.1409  0.3383 -0.5912
   6223SM   C9S 7937   5.349   4.242  16.528  0.5214  0.8043  0.9177
   6223SM   H9S 7938   5.242   4.263  16.550  0.2859  1.1231 -0.4614
   6223SM   H9T 7939   5.373   4.134  16.536  3.8489  1.3191 -0.4393
   6223SM  C10S 7940   5.347   4.299  16.384 -0.1083  0.8746  0.9235
   6223SM  H10S 7941   5.448   4.332  16.351  0.7115 -2.9965 -0.9997
   6223SM  H10T 7942   5.290   4.393  16.377 -1.3727  0.0063 -2.0359
   6223SM  C11S 7943   5.289   4.200  16.275  0.4204 -0.9499 -0.5188
   6223SM  H11S 7944   5.178   4.197  16.284  0.4333 -0.4036 -0.0614
   6223SM  H11T 7945   5.326   4.097  16.291 -2.4608 -2.0422 -0.2150
   6223SM  C12S 7946   5.321   4.247  16.131 -0.7460  0.0087 -0.1792
   6223SM  H12S 7947   5.429   4.244  16.106 -1.1663 -2.7653 -2.0574
   6223SM  H12T 7948   5.287   4.352  16.118  2.3607  1.1105 -0.1859
   6223SM  C13S 7949   5.248   4.157  16.030  0.4467  0.5217 -0.2218
   6223SM  H13S 7950   5.239   4.055  16.074  1.8933  0.0827 -0.8973
   6223SM  H13T 7951   5.306   4.148  15.936  0.0738  0.5509 -0.4580
   6223SM  C14S 7952   5.098   4.200  15.998 -0.8049  0.2822  0.5433
   6223SM  H14S 7953   5.051   4.207  16.098  1.2477  2.0793  1.4627
   6223SM  H14T 7954   5.042   4.122  15.941 -1.6802  0.9105  0.5150
   6223SM  C15S 7955   5.088   4.334  15.921  0.4803 -0.1772 -0.4481
   6223SM  H15S 7956   5.095   4.425  15.983 -1.2489 -0.6681  0.5202
   6223SM  H15T 7957   4.987   4.345  15.877  0.7708 -0.8543 -1.3417
   6223SM  C16S 7958   5.185   4.332  15.807  0.5070 -0.4016 -0.7468
   6223SM  H16S 7959   5.290   4.330  15.842  0.2381  1.0447  0.2191
   6223SM  H16T 7960   5.190   4.434  15.762 -0.2927  0.2972  0.6901
   6223SM  C17S 7961   5.164   4.230  15.696  0.1532 -0.4745 -0.1771
   6223SM  H17S 7962   5.058   4.234  15.661  0.2089 -1.4834 -0.5098
   6223SM  H17T 7963   5.176   4.126  15.734  0.8066 -0.3488 -0.0386
   6223SM  C18S 7964   5.256   4.241  15.575 -0.7953  0.6671  0.0695
   6223SM  H18S 7965   5.260   4.348  15.545 -4.2079  0.7436 -0.5388
   6223SM  H18T 7966   5.223   4.175  15.491  0.8258  1.0030 -0.8834
   6223SM  H18U 7967   5.362   4.210  15.591 -1.6540 -2.1118  0.8942
   6223SM   C1F 7968   5.437   3.809  17.183  0.2832  0.1939 -0.4303
   6223SM    OF 7969   5.333   3.790  17.245  0.1989 -0.4719  0.4027
   6223SM   C2F 7970   5.509   3.696  17.116 -0.3139 -0.2176  0.3408
   6223SM   H2F 7971   5.527   3.627  17.200 -1.4111 -0.4926  0.3606
   6223SM   H2G 7972   5.609   3.729  17.079 -0.3727 -3.0784 -2.8750
   6223SM   C3F 7973   5.423   3.650  16.999  0.3248  0.0109  0.1182
   6223SM   H3F 7974   5.402   3.742  16.940  1.3343  1.2759  1.6254
   6223SM   H3G 7975   5.327   3.605  17.034  0.4836  0.2928  0.9454
   6223SM   C4F 7976   5.492   3.542  16.907  0.0656  0.0414 -0.0321
   6223SM   H4F 7977   5.526   3.462  16.976 -0.5323 -0.5389 -0.4034
   6223SM   H4G 7978   5.581   3.586  16.856  0.8940  0.2967  1.5701
   6223SM   C5F 7979   5.399   3.478  16.804  0.6374  0.0994 -0.6916
   6223SM   H5F 7980   5.328   3.553  16.763  0.3174 -0.6232 -1.4724
   6223SM   H5G 7981   5.338   3.399  16.853 -0.5940  0.5754 -1.4084
   6223SM   C6F 7982   5.479   3.416  16.686  0.3287 -0.2183 -0.6291
   6223SM   H6F 7983   5.412   3.348  16.628 -0.3474 -0.2159  0.1373
   6223SM   H6G 7984   5.566   3.354  16.719  0.4704  0.1319 -0.3484
   6223SM   C7F 7985   5.526   3.527  16.591 -0.9186  0.4824 -0.2409
   6223SM   H7F 7986   5.609   3.577  16.644  1.0861 -2.0681 -0.7913
   6223SM   H7G 7987   5.441   3.598  16.574 -2.5153 -0.6853  2.2347
   6223SM   C8F 7988   5.571   3.478  16.455 -0.2126 -1.2691 -0.4850
   6223SM   H8F 7989   5.658   3.409  16.457  0.5550 -0.4759  3.6883
   6223SM   H8G 7990   5.607   3.566  16.398 -2.3532  0.1088  0.1889
   6223SM   C9F 7991   5.458   3.414  16.374 -0.0184 -0.6557 -0.1049
   6223SM   H9F 7992   5.366   3.472  16.399 -0.5573 -1.7906  0.6379
   6223SM   H9G 7993   5.449   3.313  16.418  1.1353  0.1939  2.2464
   6223SM  C10F 7994   5.491   3.419  16.226  0.0317  0.4751 -0.1899
   6223SM  H10F 7995   5.498   3.522  16.187 -0.2422  0.4212 -0.3824
   6223SM  H10G 7996   5.408   3.374  16.167  0.4162 -1.3626  0.5944
   6223SM  C11F 7997   5.625   3.355  16.191  0.1125  0.3243 -0.2205
   6223SM  H11F 7998   5.626   3.247  16.217 -1.4100  0.9884  3.1636
   6223SM  H11G 7999   5.703   3.407  16.250 -1.2853  1.9750  0.2642
   6223SM  C12F 8000   5.649   3.368  16.037 -0.2953  0.2472  0.4971
   6223SM  H12F 8001   5.575   3.321  15.968  0.6712 -0.3949 -0.1162
   6223SM  H12G 8002   5.735   3.304  16.008 -1.8165 -1.6912  0.0495
   6223SM  C13F 8003   5.698   3.503  15.990 -0.0073 -1.2103  0.3929
   6223SM  H13F 8004   5.787   3.527  16.052  0.9478 -1.5451 -0.8179
   6223SM  H13G 8005   5.610   3.570  16.003  1.7739  1.1249  1.0068
   6223SM  C14F 8006   5.737   3.507  15.842  0.0442 -0.4925 -0.1413
   6223SM  H14F 8007   5.828   3.451  15.813  1.1854  1.1771  0.0455
   6223SM  H14G 8008   5.755   3.612  15.811 -1.7974  0.3774  1.4829
   6223SM  C15F 8009   5.630   3.445  15.753  0.7042  0.2464 -0.3202
   6223SM  H15F 8010   5.534   3.497  15.772  0.6698  0.8268 -1.8982
   6223SM  H15G 8011   5.600   3.339  15.770  1.2650  0.1271 -0.0605
   6223SM  C16F 8012   5.656   3.458  15.597 -0.2225  0.3409  0.3109
   6223SM  H16F 8013   5.741   3.391  15.572  0.3016  1.5144 -1.2440
   6223SM  H16G 8014   5.683   3.563  15.576  0.7234  0.1756  0.6540
   6223SM  C17F 8015   5.541   3.404  15.507  0.2957  0.0579 -0.7031
   6223SM  H17F 8016   5.543   3.445  15.404 -0.0963 -0.9967 -1.1443
   6223SM  H17G 8017   5.449   3.450  15.548  0.9456 -0.2110  1.1574
   6223SM  C18F 8018   5.544   3.251  15.496 -0.0281 -0.7368  0.0565
   6223SM  H18F 8019   5.525   3.198  15.591 -1.2839  0.3629  0.4582
   6223SM  H18G 8020   5.649   3.226  15.469  0.3976  1.1209 -0.1331
   6223SM  C19F 8021   5.451   3.182  15.393  0.0082  0.2433  0.9905
   6223SM  H19F 8022   5.434   3.242  15.301  1.2154  1.2952  1.4201
   6223SM  H19G 8023   5.353   3.162  15.442 -0.2911 -0.5980  0.0856
   6223SM  C20F 8024   5.505   3.040  15.353 -0.0888 -0.7245  0.0188
   6223SM  H20F 8025   5.555   2.999  15.443  0.9916 -3.5699 -1.7345
   6223SM  H20G 8026   5.580   3.061  15.273  0.1283 -2.6758 -0.3319
   6223SM  C21F 8027   5.405   2.937  15.305 -0.4608 -0.0930  0.0031
   6223SM  H21F 8028   5.343   2.898  15.389  1.7577  0.6849  2.1093
   6223SM  H21G 8029   5.465   2.851  15.268  0.4309  0.1166  0.9119
   6223SM  C22F 8030   5.313   2.986  15.193  0.3450 -0.3209 -0.0137
   6223SM  H22F 8031   5.371   3.043  15.116 -1.9104 -0.1160 -1.6821
   6223SM  H22G 8032   5.247   3.059  15.244 -0.6521  0.1674 -1.8783
   6223SM  C23F 8033   5.220   2.890  15.136  0.5436  0.0583  0.9876
   6223SM  H23F 8034   5.164   2.942  15.055  0.9161 -0.2522  0.5217
   6223SM  H23G 8035   5.141   2.859  15.207  0.9477 -1.5994  0.7681
   6223SM  H23H 8036   5.264   2.799  15.091 -0.8847  0.1996 -0.8224
   6323SM     N 8037   4.995   4.772  18.255 -0.0993  0.0453  0.0383
   6323SM   C15 8038   5.052   4.647  18.314 -0.7792  0.3116  0.7284
   6323SM  H15A 8039   5.158   4.645  18.294 -1.1372 -0.5028 -1.4398
   6323SM  H15B 8040   5.008   4.560  18.267 -0.7461  0.2028  0.9011
   6323SM  H15C 8041   5.036   4.639  18.420  0.7271 -2.6876  0.8400
   6323SM   C14 8042   4.849   4.776  18.258  0.3740 -0.7820 -0.4730
   6323SM  H14A 8043   4.821   4.871  18.215  0.0893  0.4601  2.2944
   6323SM  H14B 8044   4.815   4.781  18.360  2.1264  1.4569  0.0592
   6323SM  H14C 8045   4.800   4.694  18.208  1.4459 -0.2944 -2.4339
   6323SM   C13 8046   5.059   4.882  18.332  0.9281 -0.4526  0.0781
   6323SM  H13A 8047   5.023   4.894  18.433 -1.3091  1.4002 -0.8660
   6323SM  H13B 8048   5.054   4.975  18.276  2.0397 -0.5845 -0.2668
   6323SM  H13C 8049   5.167   4.869  18.336  0.7790 -1.7884  0.1372
   6323SM   C12 8050   5.038   4.776  18.108 -0.2830  0.1670  0.1594
   6323SM  H12A 8051   4.992   4.689  18.065 -1.0068  0.4506  0.3443
   6323SM  H12B 8052   5.145   4.780  18.095 -0.5178  1.7852 -1.5617
   6323SM   C11 8053   4.999   4.910  18.036  0.0218  0.6057  0.2983
   6323SM  H11A 8054   4.888   4.919  18.041  0.0489  0.9362  0.2920
   6323SM  H11B 8055   5.004   4.895  17.926 -1.0719 -0.2041  0.3332
   6323SM     P 8056   5.213   5.053  18.036 -0.1140 -0.2656  0.0367
   6323SM   O13 8057   5.272   5.177  18.103 -0.1917 -0.3166 -0.1165
   6323SM   O14 8058   5.288   4.927  18.048  0.1007 -0.7311 -0.6625
   6323SM   O11 8059   5.194   5.084  17.881  0.0036 -0.2538  0.1837
   6323SM   O12 8060   5.070   5.027  18.085  0.5885 -0.2892 -0.6665
   6323SM   C1S 8061   5.300   5.066  17.784  0.4064  0.1836 -0.0662
   6323SM   H1S 8062   5.360   4.975  17.804  1.6799  1.4571  2.2697
   6323SM   H1T 8063   5.374   5.148  17.797 -0.2034  0.5094  1.7510
   6323SM    NF 8064   5.341   5.037  17.545  0.1163  0.4066  0.3731
   6323SM   HNF 8065   5.364   5.105  17.476  0.3774  0.4082  0.4610
   6323SM   C2S 8066   5.242   5.069  17.641 -0.0065 -0.1444 -0.3408
   6323SM   H2S 8067   5.161   4.993  17.642 -0.9641  0.8346  1.2571
   6323SM   C3S 8068   5.157   5.194  17.623 -0.6129 -0.7151 -0.7599
   6323SM   H3S 8069   5.228   5.280  17.627 -1.6681  0.1574  0.0707
   6323SM    O3 8070   5.065   5.241  17.724  0.2026 -0.4740  0.0992
   6323SM   HO3 8071   5.074   5.172  17.791 -1.5627  0.9807  1.9444
   6323SM   C4S 8072   5.092   5.194  17.490 -0.0131 -0.0411  0.5888
   6323SM   H4S 8073   5.160   5.228  17.410  0.1014 -1.2171  0.1499
   6323SM   C5S 8074   4.967   5.147  17.453 -0.4970 -0.0354 -0.4618
   6323SM   H5S 8075   4.909   5.112  17.540  0.9991  0.0498  0.6265
   6323SM   C6S 8076   4.902   5.142  17.321  0.0478  0.2653 -0.2415
   6323SM   H6S 8077   4.812   5.206  17.316  0.9376  1.4731 -1.4768
   6323SM   H6T 8078   4.878   5.034  17.307 -0.6503 -0.0400  2.6471
   6323SM   C7S 8079   5.001   5.176  17.198 -0.4108 -0.5367 -0.2738
   6323SM   H7S 8080   5.093   5.113  17.204  0.5580  0.9715  2.3179
   6323SM   H7T 8081   5.046   5.275  17.219  1.7018 -1.6014  0.5809
   6323SM   C8S 8082   4.942   5.162  17.057 -0.0678  0.0623 -1.0829
   6323SM   H8S 8083   4.880   5.253  17.043  2.7521  2.5356  1.1392
   6323SM   H8T 8084   4.890   5.064  17.061  1.4458 -0.7358  1.6916
   6323SM   C9S 8085   5.053   5.155  16.958 -0.1376  0.0815  0.0868
   6323SM   H9S 8086   5.118   5.066  16.965  1.7030  1.4405  1.0112
   6323SM   H9T 8087   5.119   5.242  16.977 -1.3374  0.6887  1.6883
   6323SM  C10S 8088   4.997   5.161  16.821 -0.5444 -0.6705 -0.7420
   6323SM  H10S 8089   4.945   5.259  16.819  1.3635  0.3843 -0.1033
   6323SM  H10T 8090   4.921   5.082  16.800 -0.6422 -0.5485 -0.8465
   6323SM  C11S 8091   5.100   5.161  16.704  0.0764 -0.0360 -0.1140
   6323SM  H11S 8092   5.154   5.064  16.699 -0.6515 -0.6478  2.5517
   6323SM  H11T 8093   5.163   5.252  16.712  0.8061 -0.4424 -1.0158
   6323SM  C12S 8094   5.018   5.181  16.575 -0.0664  1.1608 -0.5831
   6323SM  H12S 8095   4.987   5.287  16.576  2.8897  2.1209  0.4178
   6323SM  H12T 8096   4.925   5.120  16.572 -1.1086  2.7149 -0.6036
   6323SM  C13S 8097   5.088   5.149  16.437 -0.1679 -0.9860 -0.0151
   6323SM  H13S 8098   5.119   5.044  16.419  1.6750 -0.5135  0.1982
   6323SM  H13T 8099   5.176   5.216  16.431 -1.9788  1.4250 -1.8811
   6323SM  C14S 8100   4.991   5.190  16.329  0.3353 -0.2939  0.3953
   6323SM  H14S 8101   4.951   5.291  16.352  0.8420 -0.0127  0.0590
   6323SM  H14T 8102   4.899   5.127  16.330 -1.6391  2.3901  0.9225
   6323SM  C15S 8103   5.057   5.198  16.184  0.3024 -0.1443 -0.5799
   6323SM  H15S 8104   5.113   5.104  16.163 -0.4096 -0.3229 -1.7399
   6323SM  H15T 8105   5.134   5.277  16.196 -1.2659  1.5473 -1.1627
   6323SM  C16S 8106   4.962   5.249  16.075 -0.2755 -0.4464 -0.3384
   6323SM  H16S 8107   4.904   5.334  16.119  1.8655 -0.5016  2.9505
   6323SM  H16T 8108   4.898   5.166  16.038 -0.1889 -1.1708  1.0750
   6323SM  C17S 8109   5.026   5.311  15.954  0.7169 -0.6596 -0.0503
   6323SM  H17S 8110   5.074   5.409  15.976 -2.9262  0.9791  1.1814
   6323SM  H17T 8111   4.945   5.333  15.881  1.1241  0.9619 -0.0452
   6323SM  C18S 8112   5.128   5.221  15.897 -0.1641  0.5509  0.2266
   6323SM  H18S 8113   5.160   5.253  15.795  0.3823  0.4451  0.3606
   6323SM  H18T 8114   5.081   5.121  15.888 -0.1663  0.6428 -0.8828
   6323SM  H18U 8115   5.216   5.213  15.964  0.7899  3.3876 -0.5739
   6323SM   C1F 8116   5.398   4.918  17.536 -0.4365  0.2591 -0.4482
   6323SM    OF 8117   5.367   4.828  17.617  0.5240 -0.3082 -0.5467
   6323SM   C2F 8118   5.494   4.900  17.413 -0.3898 -0.3711 -0.4058
   6323SM   H2F 8119   5.591   4.952  17.427 -0.5490 -0.5663  1.8321
   6323SM   H2G 8120   5.435   4.949  17.332 -1.3039  1.9584  1.5026
   6323SM   C3F 8121   5.534   4.754  17.381  0.0915 -0.2510  0.2086
   6323SM   H3F 8122   5.446   4.687  17.395 -2.2875  1.8847 -2.8901
   6323SM   H3G 8123   5.610   4.724  17.455  1.1986  2.1434  0.1565
   6323SM   C4F 8124   5.590   4.738  17.240  0.0309 -0.3474 -0.2047
   6323SM   H4F 8125   5.676   4.806  17.221 -1.5169  1.3869 -1.5525
   6323SM   H4G 8126   5.509   4.754  17.165 -0.3588 -1.4136 -0.0257
   6323SM   C5F 8127   5.634   4.592  17.214  0.5935 -0.7604 -0.5873
   6323SM   H5F 8128   5.544   4.529  17.200  1.6362 -2.4182 -0.0462
   6323SM   H5G 8129   5.680   4.563  17.310  0.9600 -1.3635 -0.9416
   6323SM   C6F 8130   5.732   4.581  17.098  0.0264  0.0974 -0.3588
   6323SM   H6F 8131   5.741   4.477  17.062 -0.3561  0.3847 -1.3167
   6323SM   H6G 8132   5.826   4.628  17.134 -0.3056  1.8702 -1.6578
   6323SM   C7F 8133   5.683   4.660  16.976  0.6066 -0.2704  0.1223
   6323SM   H7F 8134   5.703   4.769  16.980 -1.2789  0.1677 -1.2089
   6323SM   H7G 8135   5.573   4.645  16.975  0.4151  0.7698  1.8676
   6323SM   C8F 8136   5.735   4.612  16.838 -0.9808  0.0245 -0.6262
   6323SM   H8F 8137   5.736   4.502  16.851 -1.9791  0.0663 -0.0280
   6323SM   H8G 8138   5.836   4.656  16.824 -1.6089  2.1991  1.0809
   6323SM   C9F 8139   5.644   4.650  16.718 -0.7842  0.1603 -0.7989
   6323SM   H9F 8140   5.632   4.760  16.720  3.4150  0.7783 -1.6817
   6323SM   H9G 8141   5.541   4.609  16.731  0.2501 -2.6543 -0.8154
   6323SM  C10F 8142   5.713   4.614  16.591 -0.6300  0.8941 -0.1065
   6323SM  H10F 8143   5.729   4.505  16.601  0.4350  1.0776  0.3893
   6323SM  H10G 8144   5.811   4.666  16.581 -1.0656  1.4420 -1.8641
   6323SM  C11F 8145   5.630   4.649  16.468 -0.3043 -0.1088  0.3316
   6323SM  H11F 8146   5.636   4.755  16.434 -0.2182 -0.8021 -1.9329
   6323SM  H11G 8147   5.520   4.630  16.472 -0.4797  0.5239 -1.0156
   6323SM  C12F 8148   5.677   4.572  16.344 -0.2716 -0.1416 -0.0723
   6323SM  H12F 8149   5.677   4.463  16.368  1.6474 -0.0674  0.3985
   6323SM  H12G 8150   5.781   4.593  16.314 -0.8083 -0.2793 -2.2004
   6323SM  C13F 8151   5.597   4.596  16.215 -0.1597  0.9395 -0.2257
   6323SM  H13F 8152   5.566   4.702  16.224 -1.5222  0.5128  0.5778
   6323SM  H13G 8153   5.500   4.544  16.232  0.9403 -1.3793 -0.6697
   6323SM  C14F 8154   5.670   4.569  16.083  0.0088  0.3560  0.5732
   6323SM  H14F 8155   5.726   4.473  16.083  0.4327  0.4733 -2.9193
   6323SM  H14G 8156   5.753   4.642  16.066  1.0118 -1.0904 -1.1172
   6323SM  C15F 8157   5.572   4.591  15.960  0.5302 -0.3005 -0.1989
   6323SM  H15F 8158   5.557   4.700  15.946  0.1175 -0.4960 -1.3850
   6323SM  H15G 8159   5.474   4.544  15.984  0.7717 -0.4229  0.5940
   6323SM  C16F 8160   5.626   4.530  15.834 -1.1449 -0.1733 -0.5411
   6323SM  H16F 8161   5.628   4.419  15.838  2.3587 -0.2381 -1.5696
   6323SM  H16G 8162   5.732   4.562  15.830 -1.1432  0.7118  2.8471
   6323SM  C17F 8163   5.556   4.568  15.709 -0.0136  0.0360 -0.2255
   6323SM  H17F 8164   5.532   4.677  15.716 -0.3480 -0.1106  1.0201
   6323SM  H17G 8165   5.457   4.520  15.698 -0.6906  1.6978 -1.9994
   6323SM  C18F 8166   5.627   4.541  15.579 -0.4683  0.1580  0.8816
   6323SM  H18F 8167   5.737   4.558  15.587 -0.6061  0.9397  1.2117
   6323SM  H18G 8168   5.594   4.602  15.493  1.1653 -1.5813 -1.0803
   6323SM  C19F 8169   5.604   4.391  15.532  0.1614 -0.0583  0.0467
   6323SM  H19F 8170   5.495   4.372  15.526  0.3375 -1.2250  0.3029
   6323SM  H19G 8171   5.646   4.326  15.612  0.0610  0.3344  0.4254
   6323SM  C20F 8172   5.682   4.359  15.401  0.2833 -0.3149  0.1978
   6323SM  H20F 8173   5.788   4.391  15.415  0.1137  0.1097  0.5255
   6323SM  H20G 8174   5.644   4.430  15.324  5.4204  1.9126 -0.7526
   6323SM  C21F 8175   5.659   4.219  15.358 -0.0975 -0.2761 -0.2380
   6323SM  H21F 8176   5.550   4.199  15.352 -0.1007 -1.5836  2.5035
   6323SM  H21G 8177   5.710   4.152  15.430  2.4105  0.5624 -1.1490
   6323SM  C22F 8178   5.722   4.180  15.223  0.1512 -0.2926  0.3719
   6323SM  H22F 8179   5.822   4.225  15.203  0.8267 -1.6583  0.5556
   6323SM  H22G 8180   5.660   4.233  15.147  1.0661  1.2654  0.6613
   6323SM  C23F 8181   5.735   4.030  15.201  0.7154 -0.6899  0.3546
   6323SM  H23F 8182   5.781   3.979  15.288 -0.5141 -1.3246  0.6478
   6323SM  H23G 8183   5.795   4.008  15.110 -0.8243 -2.3940 -0.2872
   6323SM  H23H 8184   5.639   3.977  15.188 -0.6485  1.3456  1.6117
   6423SM     N 8185   1.923   5.086  17.968  0.1328 -0.5826 -0.9292
   6423SM   C15 8186   1.882   5.101  18.109  0.2354  0.2864  0.0641
   6423SM  H15A 8187   1.903   5.195  18.156  0.0054  0.6615 -0.5639
   6423SM  H15B 8188   1.931   5.021  18.163 -0.4380 -1.8452 -2.2380
   6423SM  H15C 8189   1.777   5.082  18.123 -0.4259  3.3870  0.0266
   6423SM   C14 8190   1.801   5.130  17.881  0.0412 -0.1889  0.2316
   6423SM  H14A 8191   1.841   5.149  17.782  1.0454 -0.3179  0.6035
   6423SM  H14B 8192   1.744   5.215  17.916 -1.1220 -1.4000  1.3665
   6423SM  H14C 8193   1.739   5.044  17.863  4.1816 -3.0454 -2.0543
   6423SM   C13 8194   2.044   5.176  17.943 -0.0360 -0.2597  0.4404
   6423SM  H13A 8195   2.116   5.159  18.022  0.3134  1.1729  0.4488
   6423SM  H13B 8196   2.017   5.281  17.948 -1.1064 -0.3734 -1.6594
   6423SM  H13C 8197   2.087   5.164  17.845  0.5009  3.1045  0.1524
   6423SM   C12 8198   1.959   4.940  17.942  0.7359 -0.0155  0.2690
   6423SM  H12A 8199   2.051   4.918  17.994  1.9242 -1.7422 -2.3735
   6423SM  H12B 8200   1.978   4.937  17.836 -1.5613  0.6169 -0.2207
   6423SM   C11 8201   1.858   4.836  17.982  0.3034  0.1132  0.0318
   6423SM  H11A 8202   1.838   4.828  18.091  1.4659 -0.7909  0.1987
   6423SM  H11B 8203   1.915   4.742  17.963  0.7867 -0.1119  2.3024
   6423SM     P 8204   1.657   4.699  17.899 -0.1491  0.5993  0.2885
   6423SM   O13 8205   1.704   4.605  18.010  0.6381 -0.1755  0.7963
   6423SM   O14 8206   1.509   4.726  17.885 -0.1352 -0.1313 -0.6505
   6423SM   O11 8207   1.716   4.654  17.762  0.0122  0.5196  0.6960
   6423SM   O12 8208   1.735   4.838  17.909 -0.0606 -0.2859 -0.2915
   6423SM   C1S 8209   1.729   4.746  17.652  0.3313 -0.2468 -0.6529
   6423SM   H1S 8210   1.820   4.805  17.674 -1.0213  1.1045  1.8173
   6423SM   H1T 8211   1.652   4.826  17.646  1.0097  0.5019  0.3648
   6423SM    NF 8212   1.786   4.741  17.417 -0.0463 -0.2969 -0.1164
   6423SM   HNF 8213   1.741   4.764  17.331 -0.0999 -3.3107 -1.0061
   6423SM   C2S 8214   1.718   4.663  17.522 -0.6059 -0.1873 -0.0428
   6423SM   H2S 8215   1.784   4.574  17.532  0.5435  0.4780 -1.3760
   6423SM   C3S 8216   1.571   4.619  17.502  0.1921 -0.0294 -0.7040
   6423SM   H3S 8217   1.511   4.712  17.494 -0.7305 -0.5579 -0.1144
   6423SM    O3 8218   1.512   4.546  17.610 -0.2389  0.2922  0.6234
   6423SM   HO3 8219   1.580   4.559  17.676  0.2193  1.9093 -0.1409
   6423SM   C4S 8220   1.572   4.544  17.366 -0.3228 -0.1705  0.1293
   6423SM   H4S 8221   1.556   4.613  17.282 -0.5504 -0.6585 -0.2323
   6423SM   C5S 8222   1.608   4.411  17.348  1.4331 -0.8552 -0.6285
   6423SM   H5S 8223   1.644   4.355  17.436  0.7359 -0.9655 -0.4061
   6423SM   C6S 8224   1.603   4.329  17.223 -0.0265 -0.7763 -0.0446
   6423SM   H6S 8225   1.525   4.251  17.216 -0.0479 -0.5861 -3.0477
   6423SM   H6T 8226   1.702   4.279  17.225  0.6073  0.4444  1.1020
   6423SM   C7S 8227   1.588   4.415  17.099  1.1836  0.1094 -0.1214
   6423SM   H7S 8228   1.667   4.494  17.099  0.0452  1.3409  1.9886
   6423SM   H7T 8229   1.494   4.474  17.107  0.7959 -0.3125 -1.3177
   6423SM   C8S 8230   1.590   4.337  16.968  0.1177 -0.3280  0.9309
   6423SM   H8S 8231   1.519   4.254  16.991  1.3151 -1.4349  0.7466
   6423SM   H8T 8232   1.690   4.291  16.951 -1.0160 -2.4018 -0.6409
   6423SM   C9S 8233   1.515   4.415  16.847  0.3953  0.2847 -0.6486
   6423SM   H9S 8234   1.534   4.524  16.863  0.4130  0.0672  0.9681
   6423SM   H9T 8235   1.406   4.399  16.860 -0.0310  2.6001 -0.9508
   6423SM  C10S 8236   1.568   4.371  16.712  1.0274 -0.4576  0.0490
   6423SM  H10S 8237   1.549   4.263  16.693  1.0316 -1.2025  3.6053
   6423SM  H10T 8238   1.679   4.383  16.718  1.0244  1.3612 -2.0691
   6423SM  C11S 8239   1.513   4.456  16.601  0.4717  0.0666  1.2164
   6423SM  H11S 8240   1.506   4.561  16.637  0.0550 -0.0110  1.3616
   6423SM  H11T 8241   1.408   4.423  16.588  0.4797  0.5259 -0.1919
   6423SM  C12S 8242   1.578   4.441  16.464  0.3371 -0.3706  0.6388
   6423SM  H12S 8243   1.561   4.334  16.441  0.1098 -0.2748  0.3533
   6423SM  H12T 8244   1.688   4.448  16.479  0.5046 -0.4416 -0.4862
   6423SM  C13S 8245   1.519   4.534  16.359 -0.5211 -0.0244  0.5645
   6423SM  H13S 8246   1.549   4.640  16.372 -1.6267  0.6542 -1.7207
   6423SM  H13T 8247   1.408   4.535  16.362 -0.5349 -0.6676  0.4553
   6423SM  C14S 8248   1.555   4.478  16.222 -0.2551  0.2271  0.4623
   6423SM  H14S 8249   1.526   4.372  16.211  0.9665 -0.1106  0.3200
   6423SM  H14T 8250   1.664   4.494  16.205 -0.6971  0.6612 -2.3822
   6423SM  C15S 8251   1.508   4.561  16.106  0.6089 -0.5120  0.9014
   6423SM  H15S 8252   1.515   4.664  16.146  2.0756 -0.3999  0.4176
   6423SM  H15T 8253   1.402   4.536  16.085  1.0397 -1.3067 -0.5138
   6423SM  C16S 8254   1.604   4.548  15.991  0.7005 -0.2373 -0.0878
   6423SM  H16S 8255   1.619   4.441  15.968 -1.0366 -0.4417 -0.4056
   6423SM  H16T 8256   1.705   4.587  16.016  1.0590 -0.3105 -1.3706
   6423SM  C17S 8257   1.540   4.602  15.861  0.2217 -0.0509 -0.5143
   6423SM  H17S 8258   1.620   4.636  15.792 -0.2159  0.4316 -0.7846
   6423SM  H17T 8259   1.477   4.693  15.872  0.8093  0.4237 -0.9891
   6423SM  C18S 8260   1.455   4.497  15.783 -0.2306  0.8200 -0.5198
   6423SM  H18S 8261   1.418   4.559  15.698  1.3785  1.8336 -0.5198
   6423SM  H18T 8262   1.373   4.465  15.850  1.8189  0.0811  1.7650
   6423SM  H18U 8263   1.511   4.407  15.751 -0.5459 -0.2165  1.6824
   6423SM   C1F 8264   1.911   4.771  17.419 -0.2752 -0.2047 -0.1607
   6423SM    OF 8265   1.982   4.724  17.502  0.0304 -0.1298  0.4023
   6423SM   C2F 8266   1.972   4.856  17.306  0.3568  0.4511 -0.0666
   6423SM   H2F 8267   1.960   4.963  17.334 -0.3749  0.7979 -1.6179
   6423SM   H2G 8268   1.924   4.827  17.210 -0.9904 -0.7515  0.9207
   6423SM   C3F 8269   2.124   4.837  17.304 -0.1563 -0.4744  0.2575
   6423SM   H3F 8270   2.136   4.726  17.302  0.1519 -0.4588  0.8827
   6423SM   H3G 8271   2.184   4.873  17.390  1.8223 -1.5518 -0.5964
   6423SM   C4F 8272   2.200   4.901  17.193 -0.5800 -0.2203  0.0937
   6423SM   H4F 8273   2.308   4.884  17.212  0.1344  2.9822 -0.6176
   6423SM   H4G 8274   2.182   5.011  17.194  0.8041  0.1228 -2.7491
   6423SM   C5F 8275   2.164   4.852  17.051  0.2203  0.4865 -0.2087
   6423SM   H5F 8276   2.054   4.842  17.037  0.2644  1.7618 -1.7427
   6423SM   H5G 8277   2.199   4.748  17.036 -0.8201  0.1395 -0.3169
   6423SM   C6F 8278   2.240   4.935  16.947 -0.1453 -0.1088 -1.2244
   6423SM   H6F 8279   2.350   4.930  16.959 -0.4132 -2.4972  1.1294
   6423SM   H6G 8280   2.208   5.039  16.970 -0.3053 -0.6107  1.1112
   6423SM   C7F 8281   2.201   4.909  16.802 -0.1695  0.5539  0.1062
   6423SM   H7F 8282   2.093   4.930  16.792 -0.8210 -1.2215  2.5501
   6423SM   H7G 8283   2.219   4.801  16.784  0.3013  0.6187  0.1720
   6423SM   C8F 8284   2.270   4.991  16.695 -0.2592  0.2266 -0.4567
   6423SM   H8F 8285   2.377   4.960  16.687 -0.1969  0.5846 -1.1785
   6423SM   H8G 8286   2.277   5.094  16.737  1.3571 -0.8974  2.2925
   6423SM   C9F 8287   2.213   4.970  16.556 -0.3551 -0.2109 -0.0490
   6423SM   H9F 8288   2.102   4.962  16.559 -0.2497 -1.9454  0.4863
   6423SM   H9G 8289   2.242   4.875  16.506  0.1099 -0.7853  1.2692
   6423SM  C10F 8290   2.245   5.077  16.451 -0.3552 -0.8301 -0.0827
   6423SM  H10F 8291   2.355   5.087  16.438 -0.6106 -0.5538 -2.4348
   6423SM  H10G 8292   2.185   5.166  16.479 -2.7281 -2.1813 -0.6558
   6423SM  C11F 8293   2.197   5.033  16.313 -0.9434  0.7197  0.7221
   6423SM  H11F 8294   2.091   5.000  16.305 -0.5027 -0.5150 -0.7897
   6423SM  H11G 8295   2.252   4.945  16.273 -1.4467  1.1663 -1.0731
   6423SM  C12F 8296   2.209   5.143  16.208 -0.1920  0.4426  0.5896
   6423SM  H12F 8297   2.315   5.172  16.191 -0.8016  1.2964 -2.2525
   6423SM  H12G 8298   2.153   5.237  16.229  1.0330  0.9367  1.8143
   6423SM  C13F 8299   2.165   5.076  16.074 -0.6809 -0.0503  0.3496
   6423SM  H13F 8300   2.062   5.036  16.083 -0.8455  0.4100  0.5666
   6423SM  H13G 8301   2.234   4.992  16.056 -1.1957 -0.9330  2.2453
   6423SM  C14F 8302   2.189   5.169  15.958  0.0370  0.2433  0.4819
   6423SM  H14F 8303   2.297   5.178  15.938  0.2092  1.0470  1.6713
   6423SM  H14G 8304   2.136   5.266  15.972 -1.0842 -0.2038 -0.5230
   6423SM  C15F 8305   2.134   5.111  15.820 -0.2868 -0.4739  0.6403
   6423SM  H15F 8306   2.023   5.106  15.821 -0.4696  1.7059 -0.7573
   6423SM  H15G 8307   2.180   5.012  15.802 -0.6348 -0.1575 -2.5332
   6423SM  C16F 8308   2.173   5.194  15.703 -0.2722 -0.8644  0.5695
   6423SM  H16F 8309   2.282   5.215  15.714  0.0857 -1.2919 -1.6317
   6423SM  H16G 8310   2.110   5.284  15.715 -1.3607 -1.7607  1.9446
   6423SM  C17F 8311   2.158   5.118  15.566 -0.1220  0.0090  0.2798
   6423SM  H17F 8312   2.056   5.076  15.557  0.0735 -0.4583  0.2437
   6423SM  H17G 8313   2.216   5.024  15.570  0.3415  0.2933  0.2595
   6423SM  C18F 8314   2.195   5.191  15.434  0.6666  0.2051 -0.1146
   6423SM  H18F 8315   2.286   5.251  15.459  0.5505 -0.1174  1.1752
   6423SM  H18G 8316   2.111   5.263  15.433  0.2098 -0.2716  1.0407
   6423SM  C19F 8317   2.222   5.100  15.312  0.6642 -0.0913  0.4692
   6423SM  H19F 8318   2.126   5.044  15.305  0.4482  0.2451  0.7036
   6423SM  H19G 8319   2.299   5.022  15.329  0.9225  0.0865  0.1377
   6423SM  C20F 8320   2.246   5.176  15.178 -0.2674  1.5475 -0.0339
   6423SM  H20F 8321   2.175   5.259  15.159 -1.5709  0.5635  0.3987
   6423SM  H20G 8322   2.225   5.099  15.101  2.8351 -0.6079  1.1005
   6423SM  C21F 8323   2.389   5.236  15.170  0.7920  0.4113 -0.7757
   6423SM  H21F 8324   2.464   5.155  15.171 -0.1333 -0.5090  1.5116
   6423SM  H21G 8325   2.395   5.290  15.267  1.0619  0.5188 -0.8512
   6423SM  C22F 8326   2.400   5.343  15.069  0.2379 -0.0526 -0.0275
   6423SM  H22F 8327   2.488   5.405  15.097 -1.5316  2.0979  1.0703
   6423SM  H22G 8328   2.320   5.419  15.080  0.4628  0.1886 -0.0686
   6423SM  C23F 8329   2.423   5.312  14.925 -0.7068  0.4649 -0.0493
   6423SM  H23F 8330   2.521   5.261  14.916 -0.7985  0.2503  0.1785
   6423SM  H23G 8331   2.420   5.399  14.856  2.6385  1.1019  0.3990
   6423SM  H23H 8332   2.341   5.253  14.880 -0.4987  1.2024 -1.4311
   6523SM     N 8333   0.259   5.546  17.962  0.6828  0.1646  0.4944
   6523SM   C15 8334   0.384   5.486  18.017  0.1533 -0.2470 -0.0669
   6523SM  H15A 8335   0.409   5.525  18.114  1.4896  1.2911 -0.9741
   6523SM  H15B 8336   0.470   5.510  17.957  0.2339 -0.9199 -0.2251
   6523SM  H15C 8337   0.376   5.379  18.024 -1.5664 -0.2370 -1.0649
   6523SM   C14 8338   0.139   5.487  18.026  0.5826 -0.0601 -0.6755
   6523SM  H14A 8339   0.150   5.475  18.132  1.2951  0.7210 -0.6478
   6523SM  H14B 8340   0.117   5.389  17.987  2.1258 -0.9880  0.7056
   6523SM  H14C 8341   0.053   5.549  18.006 -0.8725 -1.8697 -0.3030
   6523SM   C13 8342   0.247   5.688  17.994  0.1176  0.1484  0.6420
   6523SM  H13A 8343   0.328   5.744  17.948 -0.1168  1.3743  1.6544
   6523SM  H13B 8344   0.252   5.708  18.100  0.5793 -0.9656  0.8428
   6523SM  H13C 8345   0.151   5.726  17.963  0.7778  0.0562 -1.7127
   6523SM   C12 8346   0.244   5.523  17.806 -0.1435  0.0199 -0.3310
   6523SM  H12A 8347   0.151   5.573  17.785 -0.3220 -0.0979  0.1582
   6523SM  H12B 8348   0.234   5.417  17.784 -0.3198  0.1223 -0.7612
   6523SM   C11 8349   0.364   5.564  17.715  0.1397 -0.1142 -0.1155
   6523SM  H11A 8350   0.318   5.563  17.614 -1.6291 -1.4156  0.6424
   6523SM  H11B 8351   0.449   5.493  17.722 -0.4618 -0.8396 -0.0947
   6523SM     P 8352   0.422   5.822  17.663 -0.2490 -0.0242 -0.2346
   6523SM   O13 8353   0.319   5.919  17.687  0.3158 -0.4126 -0.1210
   6523SM   O14 8354   0.556   5.871  17.681 -0.8388  0.0854 -0.7318
   6523SM   O11 8355   0.413   5.773  17.511  0.6305  0.1957 -0.1125
   6523SM   O12 8356   0.401   5.698  17.756  0.0465  0.3616 -0.1691
   6523SM   C1S 8357   0.510   5.691  17.448 -0.4048  0.1895 -0.3670
   6523SM   H1S 8358   0.495   5.585  17.476 -0.8115  0.3282 -0.0488
   6523SM   H1T 8359   0.616   5.708  17.476 -0.5751  1.9239 -0.6301
   6523SM    NF 8360   0.595   5.594  17.228  0.6649 -0.3585 -0.0325
   6523SM   HNF 8361   0.688   5.609  17.196  0.4591 -0.1529 -0.5440
   6523SM   C2S 8362   0.511   5.700  17.288  0.0850  0.5390  0.0149
   6523SM   H2S 8363   0.405   5.680  17.260  0.6045 -1.6546 -0.5159
   6523SM   C3S 8364   0.549   5.839  17.240 -0.4229  0.8703  0.1861
   6523SM   H3S 8365   0.656   5.863  17.260 -0.2049  1.4305 -1.5176
   6523SM    O3 8366   0.478   5.942  17.313 -0.1798  0.1892 -0.5936
   6523SM   HO3 8367   0.439   5.885  17.380  0.9875 -0.4290 -0.4040
   6523SM   C4S 8368   0.514   5.853  17.096 -0.5315  0.4205  0.0512
   6523SM   H4S 8369   0.407   5.854  17.070 -0.4646 -2.4420 -0.6721
   6523SM   C5S 8370   0.604   5.864  16.999  0.2774 -0.1484  0.3615
   6523SM   H5S 8371   0.711   5.865  17.025 -0.0326  1.5013  1.8262
   6523SM   C6S 8372   0.573   5.888  16.858 -0.1855 -0.2157 -0.4667
   6523SM   H6S 8373   0.663   5.903  16.794  0.5840  2.3460  1.0629
   6523SM   H6T 8374   0.527   5.989  16.848 -1.2738 -0.5414  1.0288
   6523SM   C7S 8375   0.481   5.782  16.794 -1.0430 -0.1430 -0.1235
   6523SM   H7S 8376   0.406   5.750  16.869 -0.6340 -0.7001  0.0442
   6523SM   H7T 8377   0.551   5.698  16.774  0.2176  0.3945  1.7637
   6523SM   C8S 8378   0.422   5.819  16.656  0.2346  0.1291  0.1681
   6523SM   H8S 8379   0.340   5.893  16.675 -0.3495 -0.3626 -0.3922
   6523SM   H8T 8380   0.380   5.725  16.615 -0.6445 -0.2203  1.7473
   6523SM   C9S 8381   0.529   5.880  16.565 -0.3363 -0.5525 -0.2768
   6523SM   H9S 8382   0.615   5.811  16.579 -1.9881 -2.2911  1.9119
   6523SM   H9T 8383   0.559   5.980  16.602 -0.5326 -1.0681  1.3637
   6523SM  C10S 8384   0.479   5.881  16.420  0.8393 -0.6078 -0.1942
   6523SM  H10S 8385   0.377   5.924  16.410  0.8272 -0.7554 -0.7166
   6523SM  H10T 8386   0.469   5.774  16.393 -0.4115 -0.1600 -1.6286
   6523SM  C11S 8387   0.570   5.960  16.326  0.7045  0.3509 -0.4509
   6523SM  H11S 8388   0.666   5.905  16.336 -0.4452 -1.6547  0.0766
   6523SM  H11T 8389   0.581   6.064  16.362  4.2506 -0.1081  0.1717
   6523SM  C12S 8390   0.531   5.964  16.173  0.0228  0.3295 -0.5758
   6523SM  H12S 8391   0.429   6.005  16.157 -0.4313 -0.4277  0.2473
   6523SM  H12T 8392   0.520   5.862  16.129 -0.4972 -0.7042  1.7664
   6523SM  C13S 8393   0.644   6.040  16.094  0.3402  0.6321 -0.3398
   6523SM  H13S 8394   0.747   6.000  16.109  0.9500  2.1404 -0.3280
   6523SM  H13T 8395   0.652   6.141  16.138  0.1300  0.6994 -0.4590
   6523SM  C14S 8396   0.609   6.034  15.942 -0.2169 -0.4860  0.3076
   6523SM  H14S 8397   0.665   6.116  15.890  0.5274 -0.5129  1.0569
   6523SM  H14T 8398   0.500   6.051  15.928  0.0683  1.3376 -0.0374
   6523SM  C15S 8399   0.656   5.910  15.870  0.6308 -0.2715  0.9420
   6523SM  H15S 8400   0.593   5.830  15.914 -0.2630  0.0371  0.2442
   6523SM  H15T 8401   0.760   5.878  15.892  0.5654 -0.4472  0.9982
   6523SM  C16S 8402   0.633   5.931  15.721 -0.2109 -0.4052 -0.1506
   6523SM  H16S 8403   0.709   6.003  15.682 -0.0758 -1.4231 -1.8560
   6523SM  H16T 8404   0.527   5.963  15.711  0.7342  2.9665 -0.6405
   6523SM  C17S 8405   0.668   5.812  15.636 -0.3502 -0.2768 -0.1232
   6523SM  H17S 8406   0.592   5.734  15.654  0.3170 -0.8259  0.3308
   6523SM  H17T 8407   0.768   5.776  15.668  1.6669  3.5189 -1.5234
   6523SM  C18S 8408   0.680   5.842  15.481 -0.0657  0.2844 -0.6460
   6523SM  H18S 8409   0.588   5.891  15.443 -2.1510  0.2459  3.7362
   6523SM  H18T 8410   0.683   5.747  15.424 -3.0388 -1.6150  2.0177
   6523SM  H18U 8411   0.768   5.906  15.459  0.6910 -0.6654 -0.4607
   6523SM   C1F 8412   0.572   5.464  17.244 -0.6300  0.3959 -0.2140
   6523SM    OF 8413   0.477   5.420  17.305 -1.0256  0.3720 -0.1359
   6523SM   C2F 8414   0.681   5.383  17.191 -0.2471  0.0633  0.0146
   6523SM   H2F 8415   0.731   5.328  17.273 -1.4382 -1.2304 -0.0893
   6523SM   H2G 8416   0.757   5.445  17.137 -0.2782  0.4470  0.4075
   6523SM   C3F 8417   0.627   5.276  17.093 -0.9795  0.1062 -0.1090
   6523SM   H3F 8418   0.541   5.219  17.132 -1.1244  0.2398 -0.2300
   6523SM   H3G 8419   0.712   5.210  17.064  0.6341  1.4618  1.3365
   6523SM   C4F 8420   0.585   5.330  16.956 -0.3297  0.5862  1.4948
   6523SM   H4F 8421   0.673   5.379  16.911  0.3240 -2.3585 -0.7753
   6523SM   H4G 8422   0.509   5.410  16.970 -0.1378  1.3608 -1.3307
   6523SM   C5F 8423   0.529   5.217  16.870  0.3364 -0.4178 -0.6914
   6523SM   H5F 8424   0.441   5.170  16.918 -0.4965  1.9159  0.1844
   6523SM   H5G 8425   0.604   5.137  16.849 -0.0505 -1.0721  0.3116
   6523SM   C6F 8426   0.480   5.267  16.731  0.5431  0.4158 -0.5374
   6523SM   H6F 8427   0.466   5.181  16.662 -1.6866 -0.4519  0.8970
   6523SM   H6G 8428   0.551   5.338  16.684  0.1257 -0.2673 -2.2632
   6523SM   C7F 8429   0.348   5.347  16.732 -0.2595  0.1116  0.1480
   6523SM   H7F 8430   0.347   5.407  16.825  0.6040  2.4698 -1.2511
   6523SM   H7G 8431   0.251   5.293  16.734 -0.2907  0.1578  2.4269
   6523SM   C8F 8432   0.345   5.452  16.621  0.1345  0.4838  0.1563
   6523SM   H8F 8433   0.436   5.515  16.625  2.9204 -3.2126  1.0313
   6523SM   H8G 8434   0.250   5.509  16.630 -0.7293 -1.0436  1.3260
   6523SM   C9F 8435   0.337   5.391  16.479 -0.3698 -0.2671 -0.6164
   6523SM   H9F 8436   0.239   5.341  16.464 -0.0710 -0.7489 -0.9831
   6523SM   H9G 8437   0.420   5.318  16.472 -0.0338  0.1638 -1.2038
   6523SM  C10F 8438   0.369   5.498  16.381 -0.0617  0.0610  0.2459
   6523SM  H10F 8439   0.476   5.524  16.395 -0.1957  0.8662 -0.1703
   6523SM  H10G 8440   0.305   5.588  16.395 -0.9274  0.1192 -3.1824
   6523SM  C11F 8441   0.361   5.456  16.233 -0.7119  0.0970  0.4799
   6523SM  H11F 8442   0.264   5.405  16.216 -2.1365  1.6148  3.3050
   6523SM  H11G 8443   0.437   5.376  16.225 -0.3888  0.5215 -1.1259
   6523SM  C12F 8444   0.389   5.566  16.126  0.5551 -0.0980  0.5796
   6523SM  H12F 8445   0.472   5.619  16.177  0.0444 -0.2806  1.6128
   6523SM  H12G 8446   0.301   5.628  16.101  0.5053 -0.8546 -1.2553
   6523SM  C13F 8447   0.431   5.512  15.989 -0.1089 -0.1486 -0.1217
   6523SM  H13F 8448   0.532   5.467  15.998 -1.5193 -3.5560  0.4159
   6523SM  H13G 8449   0.431   5.598  15.919  0.2322 -0.0655 -0.0211
   6523SM  C14F 8450   0.326   5.410  15.929 -0.0492  0.8223  0.7248
   6523SM  H14F 8451   0.220   5.435  15.947 -0.8932 -2.9734  1.9612
   6523SM  H14G 8452   0.338   5.309  15.973  0.4112 -0.0310 -1.2303
   6523SM  C15F 8453   0.335   5.393  15.776  0.3555  0.3209 -0.2783
   6523SM  H15F 8454   0.319   5.490  15.723  0.4566  0.6239  0.2420
   6523SM  H15G 8455   0.251   5.325  15.748 -0.3012 -0.0953  2.4171
   6523SM  C16F 8456   0.475   5.348  15.723  0.1528 -0.1044 -0.5056
   6523SM  H16F 8457   0.501   5.261  15.788 -1.9251 -1.7413 -1.7033
   6523SM  H16G 8458   0.541   5.434  15.746 -0.5416  0.2022  0.3678
   6523SM  C17F 8459   0.481   5.300  15.574  0.1246 -0.6185  0.2744
   6523SM  H17F 8460   0.406   5.219  15.559  0.0585 -0.4473 -0.3462
   6523SM  H17G 8461   0.576   5.245  15.556  1.3084  1.7107 -0.9191
   6523SM  C18F 8462   0.448   5.410  15.474  0.0855  0.1991 -0.0089
   6523SM  H18F 8463   0.522   5.490  15.455  0.8199 -0.5869 -0.5255
   6523SM  H18G 8464   0.358   5.466  15.510  0.6274  0.8546  0.3476
   6523SM  C19F 8465   0.410   5.357  15.335  0.4138  0.5272 -0.4307
   6523SM  H19F 8466   0.395   5.444  15.269  1.0124  1.3894  0.5412
   6523SM  H19G 8467   0.318   5.298  15.355  0.3279  0.8091  0.0258
   6523SM  C20F 8468   0.507   5.249  15.279 -0.0412  0.2988  0.4564
   6523SM  H20F 8469   0.498   5.153  15.334  3.0076  0.1961  0.9355
   6523SM  H20G 8470   0.614   5.276  15.284 -0.2407  1.8888 -1.9300
   6523SM  C21F 8471   0.475   5.216  15.132  0.3070  0.4108  0.4957
   6523SM  H21F 8472   0.482   5.310  15.075  1.1527  0.4256  0.6027
   6523SM  H21G 8473   0.374   5.172  15.123  0.2475  0.6495 -0.0173
   6523SM  C22F 8474   0.568   5.105  15.070 -0.4199 -0.4337  0.9519
   6523SM  H22F 8475   0.559   5.105  14.959 -1.0105  0.3615  0.9927
   6523SM  H22G 8476   0.540   5.004  15.107 -4.3775  0.8953  2.0318
   6523SM  C23F 8477   0.717   5.137  15.085  0.4567 -0.2727  0.0415
   6523SM  H23F 8478   0.772   5.059  15.029  1.4797  1.0941 -0.9162
   6523SM  H23G 8479   0.738   5.137  15.194  0.0405  1.6063  0.1549
   6523SM  H23H 8480   0.747   5.237  15.047  0.5779  0.0486  0.9490
   6623SM     N 8481   4.797   2.494  17.692 -0.4895  0.2991  0.0172
   6623SM   C15 8482   4.691   2.455  17.793  0.0895  0.7645  0.1968
   6623SM  H15A 8483   4.609   2.525  17.785  0.5907  1.5117  1.2874
   6623SM  H15B 8484   4.737   2.459  17.890  0.8325  1.6595 -0.1636
   6623SM  H15C 8485   4.651   2.357  17.774 -0.6378  1.0942  0.0054
   6623SM   C14 8486   4.737   2.469  17.552 -0.0205 -0.6143 -0.2515
   6623SM  H14A 8487   4.660   2.544  17.544  0.7707  0.4590  1.4147
   6623SM  H14B 8488   4.682   2.377  17.549 -3.1950  1.1614 -0.5636
   6623SM  H14C 8489   4.812   2.488  17.476 -0.8888 -1.2040 -1.2810
   6623SM   C13 8490   4.837   2.641  17.699  0.4037  0.2376  0.0698
   6623SM  H13A 8491   4.867   2.662  17.800  0.4382  3.2234 -0.4772
   6623SM  H13B 8492   4.748   2.695  17.670 -1.6322 -3.4836 -1.2879
   6623SM  H13C 8493   4.907   2.683  17.629 -0.9883  1.1798 -0.7972
   6623SM   C12 8494   4.920   2.409  17.718  0.1191  0.0125  0.1067
   6623SM  H12A 8495   4.890   2.308  17.742  0.7265 -0.4969 -1.1417
   6623SM  H12B 8496   4.964   2.442  17.811 -2.4085  1.2631  0.9490
   6623SM   C11 8497   5.032   2.403  17.615 -0.0841  0.3525 -0.5107
   6623SM  H11A 8498   5.123   2.360  17.663 -0.7623 -0.8084 -0.2325
   6623SM  H11B 8499   5.058   2.509  17.595  1.8534 -0.0778 -0.5627
   6623SM     P 8500   4.996   2.178  17.502  0.1791 -0.4785 -0.2429
   6623SM   O13 8501   5.128   2.120  17.537 -0.5192 -0.0826  0.5705
   6623SM   O14 8502   4.887   2.147  17.594  0.4055  0.5673  0.1462
   6623SM   O11 8503   4.956   2.138  17.351 -0.1895  0.3550  0.4211
   6623SM   O12 8504   5.006   2.337  17.494  0.0216  0.4572 -0.3638
   6623SM   C1S 8505   5.022   2.198  17.241  0.5824 -0.0836 -0.2554
   6623SM   H1S 8506   5.129   2.173  17.224  0.4932 -0.0186 -0.9467
   6623SM   H1T 8507   5.009   2.308  17.248 -0.2785 -0.1734 -0.3210
   6623SM    NF 8508   5.006   2.207  16.991 -0.1516 -0.3428  0.0404
   6623SM   HNF 8509   4.965   2.286  16.946 -1.7598 -0.9549  0.3548
   6623SM   C2S 8510   4.935   2.165  17.117 -0.2804 -0.8305  0.3751
   6623SM   H2S 8511   4.910   2.056  17.111 -1.5411 -0.4800 -1.4941
   6623SM   C3S 8512   4.797   2.229  17.123  0.2141  0.0668 -0.0621
   6623SM   H3S 8513   4.806   2.340  17.131 -2.4701  0.6022 -2.5070
   6623SM    O3 8514   4.729   2.208  17.245  0.2850  0.2814  0.2956
   6623SM   HO3 8515   4.803   2.188  17.304 -0.8491  0.3304  1.7813
   6623SM   C4S 8516   4.710   2.217  17.000  0.1542  0.1720  0.1961
   6623SM   H4S 8517   4.689   2.317  16.960  1.5348  0.5570  0.3882
   6623SM   C5S 8518   4.653   2.105  16.961  0.1020  0.4872  0.3451
   6623SM   H5S 8519   4.671   2.008  17.009  1.5425  0.6635  0.2064
   6623SM   C6S 8520   4.560   2.104  16.836 -0.5003 -0.1867 -0.6172
   6623SM   H6S 8521   4.457   2.104  16.878  0.1668  0.5952  1.1097
   6623SM   H6T 8522   4.560   2.013  16.773 -0.4961 -0.6123 -0.0156
   6623SM   C7S 8523   4.570   2.232  16.748 -0.1977 -0.3710  0.0475
   6623SM   H7S 8524   4.678   2.235  16.722 -0.4076 -1.1911 -1.0190
   6623SM   H7T 8525   4.540   2.323  16.803 -0.9108 -0.4474 -0.2079
   6623SM   C8S 8526   4.511   2.219  16.604 -0.5433  0.0331  0.4811
   6623SM   H8S 8527   4.401   2.230  16.603 -0.6997 -1.3656  0.3513
   6623SM   H8T 8528   4.541   2.122  16.560  1.7436  1.0648 -0.4429
   6623SM   C9S 8529   4.563   2.340  16.517 -0.2678  0.0492  0.5722
   6623SM   H9S 8530   4.657   2.302  16.471 -0.1650 -0.5979  1.2917
   6623SM   H9T 8531   4.591   2.430  16.577  3.1060 -0.5009  0.0401
   6623SM  C10S 8532   4.467   2.379  16.404 -0.7241 -0.0348 -0.1532
   6623SM  H10S 8533   4.485   2.485  16.377 -2.1306  0.2492 -0.0538
   6623SM  H10T 8534   4.359   2.366  16.425 -1.2307  3.4878 -0.0727
   6623SM  C11S 8535   4.490   2.292  16.284 -0.2903 -0.0926 -0.4599
   6623SM  H11S 8536   4.461   2.189  16.312 -1.3928  0.3914  0.2476
   6623SM  H11T 8537   4.599   2.288  16.263 -0.2684 -2.7275 -0.1865
   6623SM  C12S 8538   4.415   2.346  16.159  0.1365 -0.1119  0.8845
   6623SM  H12S 8539   4.402   2.456  16.164 -0.1685  0.1216 -2.6627
   6623SM  H12T 8540   4.310   2.308  16.160  1.2014 -3.3968  0.1206
   6623SM  C13S 8541   4.487   2.310  16.021  0.0154 -0.1543 -0.7757
   6623SM  H13S 8542   4.521   2.204  16.024  1.2607  0.2341 -0.9698
   6623SM  H13T 8543   4.574   2.378  16.011 -1.4371  2.0646  0.7268
   6623SM  C14S 8544   4.392   2.338  15.900  0.4209 -0.0397 -0.7515
   6623SM  H14S 8545   4.346   2.439  15.908 -0.1547 -0.3515 -0.1532
   6623SM  H14T 8546   4.316   2.257  15.907 -0.2135  0.6051  0.0056
   6623SM  C15S 8547   4.462   2.342  15.764 -0.5024 -1.1801  0.2346
   6623SM  H15S 8548   4.513   2.245  15.747  3.8968  0.8714  0.2865
   6623SM  H15T 8549   4.539   2.422  15.768  0.3918 -2.0763  3.0336
   6623SM  C16S 8550   4.366   2.356  15.642 -0.3597  0.2409 -0.3970
   6623SM  H16S 8551   4.296   2.442  15.654 -2.5403 -1.2608 -1.6214
   6623SM  H16T 8552   4.306   2.263  15.640 -1.2597  0.8037 -0.2097
   6623SM  C17S 8553   4.444   2.376  15.512 -0.1153  0.4029 -0.0355
   6623SM  H17S 8554   4.513   2.290  15.502 -0.8950 -0.7479  3.2055
   6623SM  H17T 8555   4.500   2.472  15.519 -0.8290  0.6949  2.7605
   6623SM  C18S 8556   4.351   2.367  15.394 -0.5454 -0.3751 -0.0368
   6623SM  H18S 8557   4.410   2.390  15.302 -0.2797  0.0500  0.2351
   6623SM  H18T 8558   4.267   2.440  15.397 -0.3438 -0.0924 -0.8642
   6623SM  H18U 8559   4.310   2.266  15.376  0.3434 -0.5457 -1.2618
   6623SM   C1F 8560   5.113   2.144  16.939 -0.3330  0.3271  0.4490
   6623SM    OF 8561   5.159   2.049  17.004 -0.6364 -0.4503 -0.4513
   6623SM   C2F 8562   5.174   2.189  16.808 -0.2164 -0.3833  0.5226
   6623SM   H2F 8563   5.226   2.287  16.810  1.5631 -1.2750 -0.2871
   6623SM   H2G 8564   5.086   2.203  16.741  0.7254 -0.1003 -0.7008
   6623SM   C3F 8565   5.262   2.075  16.746  0.5115  0.4114 -0.2726
   6623SM   H3F 8566   5.202   1.984  16.765 -0.4133  1.5004  2.4364
   6623SM   H3G 8567   5.360   2.080  16.798  0.4291  0.6814 -0.1413
   6623SM   C4F 8568   5.296   2.093  16.595  1.2164 -0.0022 -0.8616
   6623SM   H4F 8569   5.379   2.026  16.562  1.4006 -0.6836  0.8774
   6623SM   H4G 8570   5.329   2.197  16.574  0.1037  0.4255 -0.5395
   6623SM   C5F 8571   5.184   2.056  16.496 -0.3343  0.6545 -0.7501
   6623SM   H5F 8572   5.109   2.138  16.495  1.0915  2.0095 -0.3913
   6623SM   H5G 8573   5.138   1.958  16.524  2.0493 -0.0728  0.9822
   6623SM   C6F 8574   5.245   2.042  16.361 -0.8094 -0.3015  0.5308
   6623SM   H6F 8575   5.313   1.956  16.349 -0.8921 -0.0276 -2.5527
   6623SM   H6G 8576   5.299   2.139  16.351 -1.2051 -0.0071  1.1665
   6623SM   C7F 8577   5.143   2.029  16.252  0.2399  0.3827  0.3308
   6623SM   H7F 8578   5.067   2.110  16.264 -0.6345 -0.2239 -0.8977
   6623SM   H7G 8579   5.088   1.934  16.269  1.6468 -0.0504  2.9495
   6623SM   C8F 8580   5.193   2.040  16.111  0.2222  0.0913  0.5228
   6623SM   H8F 8581   5.109   2.037  16.038  1.2517  2.9733 -0.9067
   6623SM   H8G 8582   5.262   1.955  16.090  0.3068  0.3392 -0.2239
   6623SM   C9F 8583   5.257   2.178  16.074  0.6853 -0.0857  0.0527
   6623SM   H9F 8584   5.362   2.176  16.109  0.2941 -0.4825  1.2242
   6623SM   H9G 8585   5.203   2.258  16.128 -0.6259 -0.6802 -0.3472
   6623SM  C10F 8586   5.243   2.204  15.925 -0.5053  1.0568 -0.1902
   6623SM  H10F 8587   5.273   2.310  15.912 -1.3909  1.2610 -0.6020
   6623SM  H10G 8588   5.137   2.205  15.893 -1.0840  0.8675  1.6062
   6623SM  C11F 8589   5.340   2.128  15.833  0.2476 -0.1005 -0.3625
   6623SM  H11F 8590   5.318   2.020  15.836  0.7980 -0.2995 -2.0669
   6623SM  H11G 8591   5.437   2.139  15.886 -0.0389  1.1613 -0.0586
   6623SM  C12F 8592   5.355   2.171  15.691  0.3901  0.1648 -0.2184
   6623SM  H12F 8593   5.450   2.151  15.637  0.7017 -0.4284  0.5376
   6623SM  H12G 8594   5.358   2.282  15.694  1.0109  0.1375  0.5965
   6623SM  C13F 8595   5.226   2.130  15.611  0.0660  0.0307 -0.2489
   6623SM  H13F 8596   5.137   2.186  15.648  0.9734 -0.5473  3.1519
   6623SM  H13G 8597   5.210   2.021  15.625 -1.7561  0.4281  1.1186
   6623SM  C14F 8598   5.242   2.151  15.453  0.0467 -0.0441 -0.3662
   6623SM  H14F 8599   5.347   2.184  15.444 -0.0460 -0.0772 -1.9724
   6623SM  H14G 8600   5.181   2.230  15.405 -0.7868 -2.5635 -3.8812
   6623SM  C15F 8601   5.239   2.033  15.356  0.1781 -0.5527 -0.2405
   6623SM  H15F 8602   5.135   1.994  15.344  0.0149 -0.4756  0.8151
   6623SM  H15G 8603   5.294   1.953  15.410 -1.8057 -1.4566  0.5401
   6623SM  C16F 8604   5.302   2.072  15.225 -0.2050  0.0390  0.0292
   6623SM  H16F 8605   5.408   2.104  15.233 -0.3689  0.4534  0.6827
   6623SM  H16G 8606   5.239   2.158  15.193 -0.5578  0.4735  1.7699
   6623SM  C17F 8607   5.280   1.958  15.130  0.3283  0.2017  0.1741
   6623SM  H17F 8608   5.171   1.956  15.109  0.1146 -0.0726  1.2854
   6623SM  H17G 8609   5.307   1.860  15.172 -2.7862 -0.3176  1.2434
   6623SM  C18F 8610   5.339   1.972  14.986  0.3042 -0.0591 -0.5222
   6623SM  H18F 8611   5.449   1.954  14.992  0.3636  0.5658  0.5335
   6623SM  H18G 8612   5.324   2.074  14.946 -1.5795  0.9868  2.4842
   6623SM  C19F 8613   5.278   1.864  14.897  0.2913  0.7151  0.6343
   6623SM  H19F 8614   5.272   1.759  14.932  2.6137 -0.0875 -1.0952
   6623SM  H19G 8615   5.353   1.845  14.818 -1.1708 -1.5700 -0.3030
   6623SM  C20F 8616   5.144   1.910  14.846  0.2132 -0.6297 -0.0957
   6623SM  H20F 8617   5.139   2.013  14.805  0.1728 -1.0018 -1.0437
   6623SM  H20G 8618   5.073   1.911  14.932 -1.5719  3.7197 -1.3318
   6623SM  C21F 8619   5.090   1.822  14.738  0.0834  1.1353  0.2919
   6623SM  H21F 8620   5.088   1.714  14.765 -2.1450  1.2551  0.7711
   6623SM  H21G 8621   5.155   1.840  14.650  3.1028  2.9377  2.6830
   6623SM  C22F 8622   4.949   1.858  14.705 -0.1625 -0.3130 -0.0967
   6623SM  H22F 8623   4.954   1.967  14.682 -0.2867 -0.6240 -1.7486
   6623SM  H22G 8624   4.882   1.837  14.791  0.5918  0.7610  0.7748
   6623SM  C23F 8625   4.893   1.783  14.579  0.1791  0.3242 -0.2786
   6623SM  H23F 8626   4.957   1.793  14.488 -1.4572 -0.4876 -1.5663
   6623SM  H23G 8627   4.786   1.801  14.555 -0.2893 -2.5465 -0.7166
   6623SM  H23H 8628   4.903   1.674  14.595  0.0001  0.3543  0.0304
   6723SM     N 8629   5.276   6.667  17.638  0.5773  0.3948  0.1642
   6723SM   C15 8630   5.414   6.700  17.679  0.3376  0.1671  0.8326
   6723SM  H15A 8631   5.469   6.743  17.597  2.7635 -1.4704  1.4915
   6723SM  H15B 8632   5.475   6.616  17.709 -0.6364 -0.3356  1.4728
   6723SM  H15C 8633   5.405   6.768  17.762 -1.6606  0.8812  0.0961
   6723SM   C14 8634   5.214   6.567  17.738  0.0730  0.4779  0.7573
   6723SM  H14A 8635   5.108   6.551  17.722  0.6588 -2.5904 -0.7868
   6723SM  H14B 8636   5.229   6.598  17.840 -0.1471 -2.7367  1.8729
   6723SM  H14C 8637   5.252   6.469  17.712 -0.1360  0.4458  0.5656
   6723SM   C13 8638   5.197   6.795  17.634 -0.4426 -0.3392  0.6995
   6723SM  H13A 8639   5.247   6.864  17.567 -0.3916  0.1964  1.2832
   6723SM  H13B 8640   5.197   6.846  17.729 -0.3967 -1.0386  1.0845
   6723SM  H13C 8641   5.093   6.785  17.605 -0.3300 -1.2007  0.5559
   6723SM   C12 8642   5.280   6.593  17.502 -0.0533 -0.0549  0.3964
   6723SM  H12A 8643   5.178   6.565  17.480  0.0996  1.1713 -2.3104
   6723SM  H12B 8644   5.328   6.497  17.517  0.3767 -0.0786 -0.9591
   6723SM   C11 8645   5.343   6.670  17.381  0.0305 -0.0236  0.3736
   6723SM  H11A 8646   5.287   6.764  17.361  1.5309  0.9221  0.4518
   6723SM  H11B 8647   5.333   6.607  17.290 -1.4864 -0.2041  0.6458
   6723SM     P 8648   5.603   6.628  17.397 -0.4034  0.4717 -0.1380
   6723SM   O13 8649   5.720   6.710  17.349  0.2048 -0.7336  0.1303
   6723SM   O14 8650   5.618   6.556  17.523 -0.4852 -0.0481  0.2513
   6723SM   O11 8651   5.566   6.525  17.286 -0.0055 -0.2899 -0.5687
   6723SM   O12 8652   5.480   6.720  17.410  0.1344  0.6851  0.5239
   6723SM   C1S 8653   5.520   6.393  17.294  0.0401 -0.6210  0.8918
   6723SM   H1S 8654   5.410   6.390  17.312 -0.0464 -1.1590  0.2898
   6723SM   H1T 8655   5.574   6.333  17.371  2.4173  0.7191  0.3627
   6723SM    NF 8656   5.495   6.187  17.149  0.1277 -0.5547 -0.1493
   6723SM   HNF 8657   5.568   6.120  17.133  1.6860  1.0491 -0.0845
   6723SM   C2S 8658   5.547   6.323  17.151  0.0751 -0.0196  0.3117
   6723SM   H2S 8659   5.489   6.370  17.069 -0.8500 -0.8048  0.5001
   6723SM   C3S 8660   5.696   6.335  17.104 -0.0582  0.2827 -0.2066
   6723SM   H3S 8661   5.762   6.297  17.185 -0.4108 -0.3998 -0.2343
   6723SM    O3 8662   5.739   6.465  17.073  0.0839 -0.3102  0.3335
   6723SM   HO3 8663   5.677   6.516  17.126  0.2362 -0.9183  1.1205
   6723SM   C4S 8664   5.712   6.255  16.983  0.0469 -0.1311 -0.1758
   6723SM   H4S 8665   5.637   6.274  16.905 -0.6963 -0.7753  0.3610
   6723SM   C5S 8666   5.815   6.170  16.955  0.0656 -0.3124  0.0760
   6723SM   H5S 8667   5.897   6.151  17.026 -1.2247  0.5019  1.8579
   6723SM   C6S 8668   5.817   6.097  16.817  0.0726  0.0174 -0.3723
   6723SM   H6S 8669   5.729   6.030  16.812  0.7066 -0.8563 -0.0572
   6723SM   H6T 8670   5.911   6.038  16.822 -0.9949 -1.9093 -1.7452
   6723SM   C7S 8671   5.823   6.187  16.696  0.2664  0.8748 -0.1969
   6723SM   H7S 8672   5.915   6.250  16.703  2.0270 -1.5640 -0.2080
   6723SM   H7T 8673   5.740   6.261  16.689  0.6250  1.3478  0.4125
   6723SM   C8S 8674   5.850   6.091  16.572  0.5803 -0.4776 -0.2403
   6723SM   H8S 8675   5.777   6.008  16.576 -1.7612  1.5223  0.7230
   6723SM   H8T 8676   5.950   6.042  16.579  0.0938 -1.7648 -1.8195
   6723SM   C9S 8677   5.831   6.168  16.438  0.1240  0.3209  0.2596
   6723SM   H9S 8678   5.883   6.266  16.445  0.4161  0.2106 -0.3617
   6723SM   H9T 8679   5.725   6.190  16.413 -0.5973 -0.5835  2.2596
   6723SM  C10S 8680   5.877   6.089  16.317  0.5832  0.5218  0.3100
   6723SM  H10S 8681   5.829   5.988  16.324  0.9297  0.2544 -0.9983
   6723SM  H10T 8682   5.985   6.065  16.319 -0.2742 -4.4554  1.3830
   6723SM  C11S 8683   5.842   6.157  16.187 -0.2029  0.0077  1.0770
   6723SM  H11S 8684   5.899   6.252  16.183 -0.6383  0.2542 -1.4064
   6723SM  H11T 8685   5.733   6.175  16.172  0.1688  1.3208 -0.2557
   6723SM  C12S 8686   5.896   6.080  16.068  0.1962 -0.5566 -0.1691
   6723SM  H12S 8687   5.867   5.973  16.063  0.5556 -0.6656  0.0131
   6723SM  H12T 8688   6.007   6.088  16.071  0.2900  0.3183 -3.0589
   6723SM  C13S 8689   5.848   6.147  15.932 -0.3226 -0.0981  0.1215
   6723SM  H13S 8690   5.884   6.252  15.940 -2.7044  0.6752  1.5475
   6723SM  H13T 8691   5.738   6.146  15.923 -0.2466 -0.9842 -0.9808
   6723SM  C14S 8692   5.905   6.080  15.808  0.6277  0.5802  0.0421
   6723SM  H14S 8693   5.852   5.984  15.791 -0.0134  1.1148 -1.0942
   6723SM  H14T 8694   6.013   6.054  15.806  0.1426 -1.7597  1.1133
   6723SM  C15S 8695   5.878   6.170  15.682 -0.7126  0.5047 -0.0102
   6723SM  H15S 8696   5.935   6.263  15.703  1.4679 -0.9004  0.6351
   6723SM  H15T 8697   5.770   6.198  15.687 -1.3546 -1.9120  2.9596
   6723SM  C16S 8698   5.910   6.104  15.551 -0.0629 -0.6682  0.1396
   6723SM  H16S 8699   5.839   6.022  15.529  0.7266 -1.2302 -0.3787
   6723SM  H16T 8700   6.014   6.064  15.552  0.7165  1.2499  2.2558
   6723SM  C17S 8701   5.898   6.205  15.436 -0.0549  0.3174  0.4067
   6723SM  H17S 8702   5.963   6.293  15.456 -0.9458  1.2325 -0.5930
   6723SM  H17T 8703   5.789   6.227  15.442 -0.2850 -0.7889  0.5280
   6723SM  C18S 8704   5.936   6.154  15.299 -0.0725 -0.1676  0.0691
   6723SM  H18S 8705   5.896   6.221  15.220  0.1839  0.9184  0.8424
   6723SM  H18T 8706   5.891   6.054  15.283 -0.3651  0.0640 -0.5909
   6723SM  H18U 8707   6.047   6.155  15.301  0.0796 -3.5921 -0.5196
   6723SM   C1F 8708   5.366   6.155  17.151  0.2817 -0.4267 -0.4796
   6723SM    OF 8709   5.279   6.243  17.154  0.8303 -0.2385  0.4240
   6723SM   C2F 8710   5.327   6.015  17.144  0.0122 -0.0513  0.1644
   6723SM   H2F 8711   5.291   5.981  17.244  0.9658 -1.5573  0.0415
   6723SM   H2G 8712   5.414   5.946  17.141 -1.5903 -2.1154 -1.8089
   6723SM   C3F 8713   5.230   5.984  17.033  0.5136  1.0416 -0.3671
   6723SM   H3F 8714   5.134   6.038  17.048 -1.5633 -1.6715 -2.8588
   6723SM   H3G 8715   5.207   5.876  17.033  0.3195  1.0797  0.3899
   6723SM   C4F 8716   5.270   6.022  16.890 -0.2031 -0.5575  0.2176
   6723SM   H4F 8717   5.325   6.118  16.889  1.0808 -1.2331  1.6279
   6723SM   H4G 8718   5.179   6.025  16.827 -0.9328 -0.8999  1.2389
   6723SM   C5F 8719   5.363   5.910  16.821 -0.3659 -0.8366 -0.7119
   6723SM   H5F 8720   5.312   5.814  16.843 -0.5250 -0.7692 -0.7879
   6723SM   H5G 8721   5.458   5.913  16.879 -1.0256  0.6156  0.3342
   6723SM   C6F 8722   5.378   5.927  16.667 -0.0964 -0.5426 -0.3170
   6723SM   H6F 8723   5.278   5.910  16.621 -0.8810  1.2856  0.6076
   6723SM   H6G 8724   5.447   5.852  16.625  0.6103  0.1410 -0.4025
   6723SM   C7F 8725   5.422   6.070  16.626 -0.3818  0.5900 -0.7936
   6723SM   H7F 8726   5.524   6.091  16.666  0.3714  0.4749 -2.5699
   6723SM   H7G 8727   5.344   6.134  16.671 -2.1442 -0.6026 -2.0453
   6723SM   C8F 8728   5.421   6.092  16.477 -0.8054 -0.1189  0.4016
   6723SM   H8F 8729   5.471   6.189  16.455 -2.7222  1.0681  0.9646
   6723SM   H8G 8730   5.315   6.102  16.443 -0.5514 -0.4737 -0.5114
   6723SM   C9F 8731   5.494   5.994  16.381 -1.0479 -1.3328 -0.8144
   6723SM   H9F 8732   5.463   5.889  16.403 -0.4138 -1.4482 -0.4287
   6723SM   H9G 8733   5.602   6.013  16.400 -1.2061 -0.1935 -0.9996
   6723SM  C10F 8734   5.470   6.015  16.228  0.2802 -0.4562 -0.3485
   6723SM  H10F 8735   5.498   6.119  16.203  1.7628 -1.2602 -2.3153
   6723SM  H10G 8736   5.374   5.988  16.180 -1.5673  1.8615  1.7696
   6723SM  C11F 8737   5.565   5.931  16.139 -0.2786 -0.1856  0.6094
   6723SM  H11F 8738   5.565   5.820  16.152 -0.3428 -0.5196 -1.7943
   6723SM  H11G 8739   5.666   5.975  16.158  2.1342 -2.7015 -4.3005
   6723SM  C12F 8740   5.538   5.951  15.987 -0.7232  0.0664 -0.7826
   6723SM  H12F 8741   5.555   6.057  15.958  0.5941 -0.2153 -1.1128
   6723SM  H12G 8742   5.431   5.924  15.970 -0.9084  0.6068 -0.5025
   6723SM  C13F 8743   5.622   5.856  15.890  0.9734 -0.3713 -0.3593
   6723SM  H13F 8744   5.585   5.753  15.909  1.2691  0.0365  3.0481
   6723SM  H13G 8745   5.725   5.847  15.930  1.1000  1.4692 -0.1913
   6723SM  C14F 8746   5.592   5.893  15.746  0.5340 -0.2766  0.8651
   6723SM  H14F 8747   5.614   6.000  15.724 -0.0179 -0.4463 -0.5845
   6723SM  H14G 8748   5.485   5.885  15.721  0.1455  0.5057  2.1537
   6723SM  C15F 8749   5.663   5.798  15.641  0.0739  0.0797  0.3921
   6723SM  H15F 8750   5.673   5.697  15.685 -0.3543 -0.6242 -1.0645
   6723SM  H15G 8751   5.768   5.831  15.627  0.5612 -1.5806 -0.0736
   6723SM  C16F 8752   5.594   5.796  15.502  0.4496 -0.0834  0.3358
   6723SM  H16F 8753   5.499   5.741  15.515  1.3417 -1.7275  0.1931
   6723SM  H16G 8754   5.653   5.724  15.441 -0.7627 -1.7165  1.0253
   6723SM  C17F 8755   5.584   5.930  15.428 -0.0919  0.0407 -0.4859
   6723SM  H17F 8756   5.680   5.983  15.412 -0.3206  0.8975  0.8695
   6723SM  H17G 8757   5.520   5.995  15.492 -2.0930 -2.3700  0.1205
   6723SM  C18F 8758   5.509   5.901  15.296  0.1748  0.5651  0.3891
   6723SM  H18F 8759   5.413   5.850  15.319  0.1407 -0.5746 -1.9218
   6723SM  H18G 8760   5.570   5.824  15.243 -0.1788  1.5354 -1.5335
   6723SM  C19F 8761   5.492   6.031  15.217 -0.9737 -0.1415 -0.1495
   6723SM  H19F 8762   5.589   6.086  15.215 -0.1700 -1.5613 -1.9330
   6723SM  H19G 8763   5.423   6.094  15.277 -1.2930  0.7665 -1.4291
   6723SM  C20F 8764   5.432   6.019  15.079 -0.3018  0.2595 -0.0841
   6723SM  H20F 8765   5.323   6.005  15.092 -0.0864 -1.8980 -0.2801
   6723SM  H20G 8766   5.475   5.927  15.034  0.1175 -0.2634  1.3454
   6723SM  C21F 8767   5.453   6.148  14.997 -0.2994  0.5091 -0.3924
   6723SM  H21F 8768   5.562   6.153  14.976 -0.3957 -0.3069 -1.1938
   6723SM  H21G 8769   5.429   6.233  15.064 -1.3308 -0.7790  0.9513
   6723SM  C22F 8770   5.374   6.162  14.866 -0.5939 -0.0803  0.1445
   6723SM  H22F 8771   5.270   6.132  14.890 -0.4242 -0.4769  0.3978
   6723SM  H22G 8772   5.405   6.092  14.786 -1.8110  0.6308 -0.9806
   6723SM  C23F 8773   5.382   6.303  14.806  0.1763 -0.2120 -0.7053
   6723SM  H23F 8774   5.354   6.305  14.698  0.2063 -0.6938 -0.7223
   6723SM  H23G 8775   5.474   6.360  14.831 -0.5460 -0.1574  2.2345
   6723SM  H23H 8776   5.310   6.375  14.851  1.6721  1.3435 -0.7191
   6823SM     N 8777   5.511   1.248  17.247  0.2132 -0.1130 -0.6356
   6823SM   C15 8778   5.584   1.327  17.353  0.6338  0.0274 -0.0756
   6823SM  H15A 8779   5.610   1.426  17.316  0.3064 -1.0437 -3.6085
   6823SM  H15B 8780   5.674   1.283  17.391 -0.6522 -0.6167  2.4525
   6823SM  H15C 8781   5.506   1.337  17.427  0.8635 -0.7157  0.2623
   6823SM   C14 8782   5.460   1.114  17.314 -0.2483  0.4519 -0.0315
   6823SM  H14A 8783   5.539   1.063  17.368 -0.9061  0.1281  0.6406
   6823SM  H14B 8784   5.434   1.042  17.238  1.2750 -0.9715  0.7384
   6823SM  H14C 8785   5.372   1.125  17.375  0.4169  0.6610  0.9152
   6823SM   C13 8786   5.387   1.320  17.192 -0.0755 -0.0188  0.1430
   6823SM  H13A 8787   5.356   1.269  17.101  1.2299 -0.2901 -0.1760
   6823SM  H13B 8788   5.411   1.419  17.157  1.5331 -0.1869  0.6984
   6823SM  H13C 8789   5.314   1.318  17.271  0.9731  0.5257  1.1570
   6823SM   C12 8790   5.611   1.221  17.137 -0.5259  0.2383  0.0595
   6823SM  H12A 8791   5.693   1.163  17.177 -2.1540 -1.7322  0.7208
   6823SM  H12B 8792   5.661   1.312  17.109  0.9224 -0.0755  1.4554
   6823SM   C11 8793   5.571   1.131  17.017  0.3559 -0.5089  0.0676
   6823SM  H11A 8794   5.668   1.112  16.965 -0.2723  0.4146 -1.5248
   6823SM  H11B 8795   5.497   1.189  16.958 -0.7929 -1.5421  0.4566
   6823SM     P 8796   5.391   0.950  16.974 -0.0529  0.5114  0.0412
   6823SM   O13 8797   5.412   0.804  16.948 -0.7715 -0.3607 -0.4284
   6823SM   O14 8798   5.262   0.987  17.043 -0.1109 -0.0190 -0.7526
   6823SM   O11 8799   5.400   1.028  16.836 -0.1058  0.2378  0.7722
   6823SM   O12 8800   5.519   1.002  17.052 -0.1707 -0.2203  0.2584
   6823SM   C1S 8801   5.491   0.978  16.733  0.3585  0.3292 -0.1179
   6823SM   H1S 8802   5.500   0.867  16.730  0.9554  0.3508  0.6447
   6823SM   H1T 8803   5.595   1.007  16.758 -0.0277  0.0209  2.1251
   6823SM    NF 8804   5.529   0.972  16.492  0.2744  0.9913 -0.4288
   6823SM   HNF 8805   5.606   1.033  16.473  1.0984  0.5308  1.2418
   6823SM   C2S 8806   5.443   1.024  16.592 -0.4659  0.0889  0.2925
   6823SM   H2S 8807   5.345   0.980  16.563 -0.4550  0.9983 -1.2188
   6823SM   C3S 8808   5.432   1.182  16.569 -0.2325 -0.3097 -0.4604
   6823SM   H3S 8809   5.536   1.219  16.572 -0.2693 -0.2179 -0.2116
   6823SM    O3 8810   5.366   1.250  16.674 -0.2048  0.2806  0.2185
   6823SM   HO3 8811   5.364   1.181  16.740 -1.3889 -0.8240 -0.8934
   6823SM   C4S 8812   5.372   1.224  16.444  0.2114 -0.2145 -0.1599
   6823SM   H4S 8813   5.264   1.243  16.447  0.4947  1.5701  2.3282
   6823SM   C5S 8814   5.450   1.268  16.342  0.4772 -0.8179  0.1579
   6823SM   H5S 8815   5.559   1.276  16.345  0.4245  0.9879 -0.8848
   6823SM   C6S 8816   5.396   1.336  16.222  0.0056 -0.1824 -0.0758
   6823SM   H6S 8817   5.431   1.441  16.214  1.2122 -0.7528 -4.7060
   6823SM   H6T 8818   5.285   1.338  16.224 -0.1445 -2.6098 -1.8338
   6823SM   C7S 8819   5.444   1.273  16.093 -0.4804 -0.0634 -0.4658
   6823SM   H7S 8820   5.422   1.165  16.105 -0.5031 -0.0910 -0.7631
   6823SM   H7T 8821   5.551   1.292  16.074 -0.4828  2.1033  1.2125
   6823SM   C8S 8822   5.373   1.335  15.975  0.3562  0.6063  0.3287
   6823SM   H8S 8823   5.371   1.440  16.009  3.2797  0.4736  1.1727
   6823SM   H8T 8824   5.273   1.292  15.952  0.9517  0.1498 -1.5321
   6823SM   C9S 8825   5.449   1.322  15.849 -0.2717 -0.3731  0.0382
   6823SM   H9S 8826   5.490   1.222  15.826  1.5242  0.0382  1.1832
   6823SM   H9T 8827   5.539   1.387  15.861 -1.4008  1.1468  0.6019
   6823SM  C10S 8828   5.365   1.361  15.727  0.6661  0.5703 -0.1590
   6823SM  H10S 8829   5.319   1.461  15.737 -1.8010 -0.3787 -1.1141
   6823SM  H10T 8830   5.281   1.289  15.739  1.6987 -0.2262  3.9386
   6823SM  C11S 8831   5.437   1.346  15.589  0.2706  0.0910 -0.5452
   6823SM  H11S 8832   5.446   1.237  15.571  0.0018  0.5372 -4.0692
   6823SM  H11T 8833   5.542   1.381  15.602 -0.0781  0.2476  2.8503
   6823SM  C12S 8834   5.357   1.412  15.478 -0.0551  0.4697 -0.7364
   6823SM  H12S 8835   5.343   1.520  15.500 -0.1606  0.3099  0.0003
   6823SM  H12T 8836   5.257   1.364  15.470  0.7272 -1.6008  1.0789
   6823SM  C13S 8837   5.442   1.388  15.351 -0.2796  0.1890  0.4583
   6823SM  H13S 8838   5.450   1.277  15.351 -1.4790  0.0733  2.1617
   6823SM  H13T 8839   5.542   1.433  15.368 -1.1557  1.2897  3.0829
   6823SM  C14S 8840   5.376   1.444  15.225 -0.1508 -0.2362  0.3099
   6823SM  H14S 8841   5.321   1.539  15.240 -0.5440 -0.1492 -1.5510
   6823SM  H14T 8842   5.298   1.374  15.189  0.2202 -1.6823  2.1292
   6823SM  C15S 8843   5.472   1.469  15.107  0.2244 -0.5187 -0.5413
   6823SM  H15S 8844   5.395   1.494  15.030 -1.1648 -1.6154  0.4446
   6823SM  H15T 8845   5.527   1.373  15.099 -0.2931 -1.0949  2.0488
   6823SM  C16S 8846   5.570   1.581  15.139  0.1801 -0.7102  0.1960
   6823SM  H16S 8847   5.650   1.537  15.202  2.1386 -1.0865 -2.3920
   6823SM  H16T 8848   5.516   1.663  15.191  0.4077 -0.5910  0.2470
   6823SM  C17S 8849   5.632   1.646  15.014  0.0970  0.1326 -0.3804
   6823SM  H17S 8850   5.698   1.726  15.053 -1.1118  0.8855  0.2029
   6823SM  H17T 8851   5.553   1.706  14.963 -0.8264 -1.4007 -0.8096
   6823SM  C18S 8852   5.708   1.550  14.923 -0.0116 -0.4311  0.4181
   6823SM  H18S 8853   5.759   1.607  14.842 -0.7114 -1.0846 -0.5074
   6823SM  H18T 8854   5.641   1.483  14.865  0.3553  0.0297 -0.5685
   6823SM  H18U 8855   5.787   1.502  14.985  0.8427  1.5171  0.9049
   6823SM   C1F 8856   5.541   0.844  16.456  0.8997  0.2607 -0.7465
   6823SM    OF 8857   5.452   0.763  16.488  0.1123  0.4585 -0.4907
   6823SM   C2F 8858   5.669   0.804  16.389 -0.0130  0.4993 -0.6605
   6823SM   H2F 8859   5.710   0.716  16.442  1.3163 -0.0741 -2.5335
   6823SM   H2G 8860   5.739   0.886  16.416 -0.6054  0.5553  0.7445
   6823SM   C3F 8861   5.645   0.757  16.241  0.1412  0.7709 -0.8158
   6823SM   H3F 8862   5.576   0.670  16.234  2.7355 -1.3756 -1.2593
   6823SM   H3G 8863   5.743   0.710  16.220  0.2629 -0.1587  1.5383
   6823SM   C4F 8864   5.624   0.864  16.132 -0.5058 -0.2987 -0.5511
   6823SM   H4F 8865   5.713   0.932  16.136 -1.5761  1.2264 -1.4256
   6823SM   H4G 8866   5.542   0.928  16.171  0.1674 -0.4099  1.1601
   6823SM   C5F 8867   5.608   0.815  15.985 -0.2665  0.4440 -0.2856
   6823SM   H5F 8868   5.513   0.764  15.959  1.0146 -0.9904 -2.5254
   6823SM   H5G 8869   5.685   0.736  15.970  0.1325  0.9452 -0.9153
   6823SM   C6F 8870   5.644   0.925  15.886  0.4223  0.1816  0.1618
   6823SM   H6F 8871   5.743   0.968  15.911  0.4251  1.2744 -1.6165
   6823SM   H6G 8872   5.568   1.005  15.898  0.7292  0.2664  1.8229
   6823SM   C7F 8873   5.646   0.872  15.739  0.1664 -0.1790 -0.0112
   6823SM   H7F 8874   5.543   0.833  15.722 -0.1943  1.1217 -1.0396
   6823SM   H7G 8875   5.721   0.794  15.717 -0.9364 -0.7505 -2.0214
   6823SM   C8F 8876   5.662   0.979  15.631 -0.3893 -0.6239 -0.1077
   6823SM   H8F 8877   5.764   1.022  15.640 -1.5430  2.0314  1.4683
   6823SM   H8G 8878   5.589   1.060  15.654 -0.8286 -0.3185 -2.3932
   6823SM   C9F 8879   5.636   0.924  15.495 -0.4478  0.0797  0.2745
   6823SM   H9F 8880   5.538   0.872  15.500 -0.4382  0.1907  2.5638
   6823SM   H9G 8881   5.719   0.852  15.477  1.5328  2.4504 -0.7378
   6823SM  C10F 8882   5.628   1.031  15.389 -0.1009  0.5563  0.3899
   6823SM  H10F 8883   5.709   1.105  15.406  0.2144 -0.0852  1.8059
   6823SM  H10G 8884   5.538   1.096  15.402  1.1457  2.2279  0.9419
   6823SM  C11F 8885   5.632   0.972  15.245 -0.5409  0.8728 -0.1839
   6823SM  H11F 8886   5.553   0.897  15.224 -2.6428  2.6413  0.9535
   6823SM  H11G 8887   5.734   0.935  15.221 -1.4772 -0.9294 -1.6045
   6823SM  C12F 8888   5.597   1.069  15.128 -0.1553 -0.3273 -0.3956
   6823SM  H12F 8889   5.512   1.129  15.167  1.8381  1.7114  1.0174
   6823SM  H12G 8890   5.568   1.024  15.030 -0.9894  0.7351 -0.6534
   6823SM  C13F 8891   5.716   1.157  15.095  0.0501  0.3603 -0.0202
   6823SM  H13F 8892   5.784   1.156  15.183  1.3541  0.2747 -0.9982
   6823SM  H13G 8893   5.702   1.260  15.057 -1.6133 -0.3967 -1.6161
   6823SM  C14F 8894   5.802   1.098  14.977 -0.4856  0.6901  0.6622
   6823SM  H14F 8895   5.731   1.099  14.892 -0.2993 -1.1156  0.4609
   6823SM  H14G 8896   5.829   0.992  14.994 -0.5231  0.8891  2.1979
   6823SM  C15F 8897   5.936   1.171  14.950  0.5364  0.5221 -1.0080
   6823SM  H15F 8898   6.000   1.123  15.027 -0.8632 -0.3486 -0.3456
   6823SM  H15G 8899   5.941   1.277  14.981  4.7215  0.6871 -1.5748
   6823SM  C16F 8900   5.995   1.157  14.814 -0.6998 -0.0943  0.0873
   6823SM  H16F 8901   5.920   1.198  14.742  0.1230  1.7997  0.2515
   6823SM  H16G 8902   5.998   1.053  14.774 -0.5114  0.0473 -0.2708
   6823SM  C17F 8903   6.128   1.242  14.797 -0.5892  0.0320 -0.1494
   6823SM  H17F 8904   6.117   1.345  14.838  0.4925  0.4880 -0.9473
   6823SM  H17G 8905   6.148   1.252  14.688  0.6121  2.0133  0.1952
   6823SM  C18F 8906   6.253   1.173  14.858 -0.3761 -0.2657  0.1471
   6823SM  H18F 8907   6.273   1.081  14.798  0.4831 -1.5986  2.3513
   6823SM  H18G 8908   6.234   1.138  14.962 -0.2281 -0.3778  0.1375
   6823SM  C19F 8909   6.382   1.259  14.856  0.1046  0.1840  0.3478
   6823SM  H19F 8910   6.471   1.192  14.860  1.0348  1.3516 -0.4070
   6823SM  H19G 8911   6.368   1.318  14.949 -1.9820 -0.5785  0.5585
   6823SM  C20F 8912   6.407   1.349  14.734 -0.0266  0.2196 -0.2852
   6823SM  H20F 8913   6.354   1.447  14.738  0.1147  0.3061 -0.4881
   6823SM  H20G 8914   6.359   1.286  14.656 -1.1984  0.4219  0.2574
   6823SM  C21F 8915   6.554   1.374  14.696 -0.6400  0.6598 -0.3503
   6823SM  H21F 8916   6.598   1.274  14.683 -2.2103  0.0303 -1.0627
   6823SM  H21G 8917   6.602   1.432  14.778 -1.7390 -1.5139  1.9535
   6823SM  C22F 8918   6.566   1.457  14.566 -0.1180  0.6980 -0.4057
   6823SM  H22F 8919   6.536   1.563  14.583  1.2552  0.9635  0.4955
   6823SM  H22G 8920   6.497   1.411  14.493  0.3455  0.6099 -0.7910
   6823SM  C23F 8921   6.709   1.447  14.519 -0.4148  0.6203  0.2941
   6823SM  H23F 8922   6.784   1.492  14.588  1.4821 -0.7417 -0.7933
   6823SM  H23G 8923   6.718   1.505  14.425 -0.3782  0.7013  0.3467
   6823SM  H23H 8924   6.742   1.342  14.505  0.3940  1.0673 -1.4478
   6923SM     N 8925   6.479   2.973  17.630 -0.1641  0.6548 -0.6557
   6923SM   C15 8926   6.463   3.075  17.513  0.2675  0.5985 -0.7880
   6923SM  H15A 8927   6.465   3.027  17.416  0.4776  0.0736 -0.5304
   6923SM  H15B 8928   6.550   3.139  17.510 -0.4597  1.5851 -1.1216
   6923SM  H15C 8929   6.371   3.131  17.512 -0.6328 -0.6190  2.0633
   6923SM   C14 8930   6.479   3.069  17.746 -0.3698  0.0981 -0.9223
   6923SM  H14A 8931   6.391   3.132  17.738 -0.2289  0.9945  2.9769
   6923SM  H14B 8932   6.570   3.126  17.735  0.5473 -1.2753 -0.7533
   6923SM  H14C 8933   6.475   3.015  17.839  1.7746 -0.8061 -1.3076
   6923SM   C13 8934   6.360   2.888  17.638  1.1957  0.4121 -0.5038
   6923SM  H13A 8935   6.369   2.824  17.725 -0.3180 -0.6693 -1.1034
   6923SM  H13B 8936   6.332   2.841  17.545 -0.6230  0.4245 -0.0150
   6923SM  H13C 8937   6.267   2.943  17.647  0.1875 -0.7912 -2.7938
   6923SM   C12 8938   6.613   2.897  17.624 -0.3600  0.0335 -0.0459
   6923SM  H12A 8939   6.606   2.831  17.708 -3.4969  0.0863 -0.1472
   6923SM  H12B 8940   6.694   2.964  17.650 -0.8733  0.9386 -0.7037
   6923SM   C11 8941   6.652   2.813  17.509  0.0131  0.4270  0.0959
   6923SM  H11A 8942   6.571   2.738  17.509 -1.6265  2.1330  0.3810
   6923SM  H11B 8943   6.742   2.753  17.535  0.4211  1.6026  1.5449
   6923SM     P 8944   6.793   2.996  17.384  0.0993  0.3528  0.4146
   6923SM   O13 8945   6.773   3.100  17.485 -0.4725  0.4250 -0.5018
   6923SM   O14 8946   6.921   2.928  17.380 -0.1289 -0.3635 -0.2694
   6923SM   O11 8947   6.765   3.056  17.240  0.3619 -0.5213 -0.1825
   6923SM   O12 8948   6.672   2.888  17.390  0.5060 -0.4970  0.1993
   6923SM   C1S 8949   6.768   2.974  17.122  0.2067 -0.3451 -0.6193
   6923SM   H1S 8950   6.672   2.918  17.113  0.8145 -1.4596 -0.3923
   6923SM   H1T 8951   6.843   2.893  17.127  0.1218 -0.4067 -0.3164
   6923SM    NF 8952   6.738   2.982  16.877 -0.0251 -0.2236  0.1206
   6923SM   HNF 8953   6.803   2.933  16.819  1.5106  2.3564 -0.4831
   6923SM   C2S 8954   6.783   3.061  16.993  0.4328 -0.2745  0.0976
   6923SM   H2S 8955   6.725   3.154  17.004  2.1097  0.8072  0.1772
   6923SM   C3S 8956   6.931   3.112  16.971  0.0545  0.2804 -0.1917
   6923SM   H3S 8957   7.001   3.026  16.964 -1.0686 -0.5647 -1.5052
   6923SM    O3 8958   6.979   3.184  17.083 -0.0858  0.3627 -0.3852
   6923SM   HO3 8959   6.924   3.150  17.154  1.8089 -1.3360  0.3818
   6923SM   C4S 8960   6.945   3.204  16.856 -0.1731 -0.3296 -0.9702
   6923SM   H4S 8961   6.923   3.308  16.883 -1.2235 -0.7570 -0.1377
   6923SM   C5S 8962   6.964   3.176  16.726  0.1171  0.1247  0.2042
   6923SM   H5S 8963   6.980   3.074  16.687  2.0367  1.6665 -3.5905
   6923SM   C6S 8964   6.949   3.278  16.618 -0.7386 -0.2155 -0.2778
   6923SM   H6S 8965   6.968   3.379  16.658 -0.8053  0.3055 -1.5129
   6923SM   H6T 8966   6.850   3.282  16.567 -1.9253  0.0552  1.9455
   6923SM   C7S 8967   7.055   3.250  16.507  0.4315  1.5002  0.0573
   6923SM   H7S 8968   7.038   3.150  16.462 -0.7905  1.3958  0.7102
   6923SM   H7T 8969   7.153   3.250  16.560  0.1130 -1.1059  0.7858
   6923SM   C8S 8970   7.054   3.360  16.403 -0.2073  0.3327 -0.0352
   6923SM   H8S 8971   7.029   3.457  16.450 -2.0455  0.8718 -2.0030
   6923SM   H8T 8972   6.974   3.345  16.328 -1.2598 -0.5693  1.2158
   6923SM   C9S 8973   7.186   3.360  16.326 -0.6256 -0.3591 -0.2331
   6923SM   H9S 8974   7.273   3.326  16.386  0.1496 -2.6678 -2.4883
   6923SM   H9T 8975   7.206   3.461  16.284 -0.0308  0.6943  2.3392
   6923SM  C10S 8976   7.177   3.271  16.199  0.7413 -0.0590  0.8138
   6923SM  H10S 8977   7.093   3.302  16.134  1.3050 -0.4570 -0.1173
   6923SM  H10T 8978   7.154   3.168  16.233 -0.4382  0.4340  1.5938
   6923SM  C11S 8979   7.304   3.282  16.115 -0.6776  0.1631 -0.3312
   6923SM  H11S 8980   7.385   3.230  16.170 -2.1487 -0.1598  1.6390
   6923SM  H11T 8981   7.355   3.381  16.115  1.3845 -0.8295 -1.7818
   6923SM  C12S 8982   7.303   3.237  15.965 -0.4035 -0.1694  0.0139
   6923SM  H12S 8983   7.242   3.314  15.913  0.0880  0.2269  0.0122
   6923SM  H12T 8984   7.250   3.139  15.958 -2.2039  0.5611  2.1726
   6923SM  C13S 8985   7.441   3.220  15.893  0.1942  0.2418 -0.0918
   6923SM  H13S 8986   7.510   3.162  15.959 -0.1532  0.7517  0.7368
   6923SM  H13T 8987   7.489   3.318  15.871 -0.2106  0.2054 -1.1896
   6923SM  C14S 8988   7.413   3.154  15.759 -0.0945 -0.0211 -1.3513
   6923SM  H14S 8989   7.359   3.058  15.768  0.0487  0.0851  2.3779
   6923SM  H14T 8990   7.508   3.125  15.711 -0.7199 -0.3687 -2.4107
   6923SM  C15S 8991   7.346   3.258  15.663 -0.3988  1.0656 -0.0611
   6923SM  H15S 8992   7.409   3.349  15.662  1.9735 -0.4921  0.0935
   6923SM  H15T 8993   7.243   3.292  15.687  0.2846  2.1785  1.4379
   6923SM  C16S 8994   7.344   3.210  15.522  0.0070 -0.1888 -0.6629
   6923SM  H16S 8995   7.272   3.125  15.524 -0.1956 -0.0226 -0.8061
   6923SM  H16T 8996   7.442   3.167  15.490 -0.3258 -1.8792  0.4870
   6923SM  C17S 8997   7.307   3.317  15.413 -0.0792  0.0887 -0.0011
   6923SM  H17S 8998   7.319   3.285  15.307 -1.9296  0.7151 -0.4393
   6923SM  H17T 8999   7.363   3.413  15.421 -1.2684  0.8199 -0.1036
   6923SM  C18S 9000   7.158   3.355  15.420 -0.2833  0.2565 -0.0286
   6923SM  H18S 9001   7.130   3.419  15.334 -0.5297  1.1525  0.6938
   6923SM  H18T 9002   7.135   3.412  15.513  0.8508  0.8589 -0.0940
   6923SM  H18U 9003   7.094   3.264  15.424  0.0180  0.0359 -0.2359
   6923SM   C1F 9004   6.616   2.944  16.854  0.9357  0.0355 -0.6457
   6923SM    OF 9005   6.529   2.974  16.932 -0.2114  0.8362  0.3431
   6923SM   C2F 9006   6.589   2.859  16.733  0.7651  0.4868 -0.0130
   6923SM   H2F 9007   6.493   2.805  16.748 -0.0394  1.8576 -0.0753
   6923SM   H2G 9008   6.665   2.778  16.735  2.9790  2.4412  0.6477
   6923SM   C3F 9009   6.606   2.933  16.596 -0.6572  0.1070 -0.2101
   6923SM   H3F 9010   6.610   2.861  16.512  0.9807  1.5351 -1.4294
   6923SM   H3G 9011   6.710   2.970  16.598 -0.6650  0.1505  1.4911
   6923SM   C4F 9012   6.511   3.048  16.564  0.3130  0.8486 -0.4379
   6923SM   H4F 9013   6.514   3.116  16.652  0.4039 -1.1170  1.1356
   6923SM   H4G 9014   6.413   2.998  16.575  0.0120  1.8271  1.7377
   6923SM   C5F 9015   6.524   3.128  16.430 -0.2472 -0.3355  0.0200
   6923SM   H5F 9016   6.617   3.189  16.433 -0.4261 -0.0920  1.2611
   6923SM   H5G 9017   6.441   3.201  16.440  0.4364  0.3233  1.2659
   6923SM   C6F 9018   6.510   3.035  16.309 -0.7456  0.0799  0.8369
   6923SM   H6F 9019   6.419   2.972  16.311 -0.1906 -0.7846 -0.1347
   6923SM   H6G 9020   6.591   2.959  16.321  0.7911  1.4672 -0.2030
   6923SM   C7F 9021   6.532   3.098  16.171 -0.3360  0.7513  0.0226
   6923SM   H7F 9022   6.639   3.125  16.158 -0.2412  1.2298  1.5700
   6923SM   H7G 9023   6.480   3.197  16.169 -0.1940  0.8213 -1.1989
   6923SM   C8F 9024   6.496   3.003  16.049  0.1753  0.3109  0.4792
   6923SM   H8F 9025   6.386   2.985  16.047  0.2646 -0.3082  0.8222
   6923SM   H8G 9026   6.542   2.904  16.067 -0.0840  0.1081  0.0392
   6923SM   C9F 9027   6.532   3.062  15.915 -0.3576 -0.1384 -0.0300
   6923SM   H9F 9028   6.643   3.052  15.918 -0.4953 -2.6201 -1.0109
   6923SM   H9G 9029   6.503   3.168  15.901 -2.7631 -0.8851 -1.0778
   6923SM  C10F 9030   6.490   2.976  15.791  0.5760 -0.0942 -0.3936
   6923SM  H10F 9031   6.383   2.985  15.764  0.6183 -1.0178 -0.9290
   6923SM  H10G 9032   6.510   2.873  15.829 -2.8398  0.3907  3.4559
   6923SM  C11F 9033   6.567   3.004  15.669 -0.4559  0.4621 -0.1019
   6923SM  H11F 9034   6.677   2.993  15.682 -0.7765 -2.1514  0.9079
   6923SM  H11G 9035   6.554   3.112  15.644  0.9536  0.2865 -1.7836
   6923SM  C12F 9036   6.536   2.914  15.555 -0.2860  0.5037  0.0422
   6923SM  H12F 9037   6.439   2.947  15.512  1.4264  3.7967 -1.7189
   6923SM  H12G 9038   6.544   2.814  15.602 -0.3231 -0.2736 -1.5700
   6923SM  C13F 9039   6.631   2.934  15.435  0.0280 -0.5635  0.1052
   6923SM  H13F 9040   6.619   2.842  15.374 -0.4424 -1.2179  1.1431
   6923SM  H13G 9041   6.734   2.951  15.473 -1.1327  1.2716  2.7736
   6923SM  C14F 9042   6.592   3.050  15.351  0.4305 -0.7420  0.3042
   6923SM  H14F 9043   6.594   3.144  15.410  0.9024 -1.4790  1.5094
   6923SM  H14G 9044   6.488   3.034  15.315  0.7412  0.2943 -1.1417
   6923SM  C15F 9045   6.667   3.059  15.215 -0.5753  0.0549  0.6790
   6923SM  H15F 9046   6.658   2.961  15.164  1.9973  2.0476 -4.2567
   6923SM  H15G 9047   6.778   3.061  15.225 -0.4945 -0.7753  0.0043
   6923SM  C16F 9048   6.619   3.166  15.114 -0.1091  0.2275  0.1127
   6923SM  H16F 9049   6.695   3.181  15.034 -0.5619  1.6920 -0.0873
   6923SM  H16G 9050   6.611   3.257  15.177  0.5178 -0.2692  0.9264
   6923SM  C17F 9051   6.485   3.136  15.055 -0.1085 -0.4258  0.2774
   6923SM  H17F 9052   6.413   3.095  15.130  0.2159 -2.4511 -0.4386
   6923SM  H17G 9053   6.486   3.058  14.976  1.2417  1.1952 -1.3793
   6923SM  C18F 9054   6.426   3.268  15.000  0.1860  0.0766  0.4597
   6923SM  H18F 9055   6.439   3.356  15.067  0.3244 -0.4389  1.1209
   6923SM  H18G 9056   6.321   3.247  14.971  0.8287  2.0697 -4.3071
   6923SM  C19F 9057   6.494   3.290  14.868 -0.3004  0.2749  0.3680
   6923SM  H19F 9058   6.490   3.197  14.808 -0.6208  0.9588 -0.7062
   6923SM  H19G 9059   6.602   3.311  14.887  0.1827 -0.7686 -1.0613
   6923SM  C20F 9060   6.428   3.404  14.789 -0.0532  0.3255  0.0817
   6923SM  H20F 9061   6.424   3.498  14.848  0.7170 -0.5032  1.4855
   6923SM  H20G 9062   6.324   3.371  14.765  0.5124 -1.2835 -0.2374
   6923SM  C21F 9063   6.481   3.433  14.651  0.3704  0.0711 -0.8968
   6923SM  H21F 9064   6.414   3.514  14.614  0.0466  0.6304  0.8213
   6923SM  H21G 9065   6.474   3.348  14.580 -1.0835  1.3434 -2.3492
   6923SM  C22F 9066   6.627   3.491  14.663 -0.6744  0.6381  0.3245
   6923SM  H22F 9067   6.686   3.419  14.723 -1.0043  0.1615  0.0811
   6923SM  H22G 9068   6.636   3.592  14.709  1.8214  1.2040 -1.2107
   6923SM  C23F 9069   6.701   3.498  14.526  0.6048  0.0840 -0.3078
   6923SM  H23F 9070   6.773   3.582  14.535 -0.7691  1.0983  1.8774
   6923SM  H23G 9071   6.628   3.531  14.448  1.2190 -0.6994 -1.2448
   6923SM  H23H 9072   6.745   3.402  14.494  0.9533 -1.0455  3.1852
   7023SM     N 9073   4.948   1.105  17.364 -0.6105 -0.4761 -0.4630
   7023SM   C15 9074   5.028   1.128  17.492 -0.4072  0.1024 -0.3209
   7023SM  H15A 9075   4.971   1.120  17.583  1.9694 -0.7120  1.1753
   7023SM  H15B 9076   5.099   1.208  17.482  1.1227 -1.3724 -2.0104
   7023SM  H15C 9077   5.094   1.043  17.493 -0.8067 -0.2412 -1.3534
   7023SM   C14 9078   4.907   0.963  17.352  0.2321  1.1699  0.3852
   7023SM  H14A 9079   4.846   0.933  17.437  0.3770 -0.6566 -0.1149
   7023SM  H14B 9080   4.989   0.893  17.346 -1.5259 -0.9001 -2.5744
   7023SM  H14C 9081   4.854   0.930  17.264  1.0991  1.2960 -0.1914
   7023SM   C13 9082   4.825   1.190  17.361 -0.1861 -0.0381 -0.0217
   7023SM  H13A 9083   4.780   1.195  17.263  0.0238 -1.4033 -0.2083
   7023SM  H13B 9084   4.856   1.291  17.384  0.9545 -0.6371  1.2345
   7023SM  H13C 9085   4.751   1.163  17.435 -0.0615  0.3808  0.2608
   7023SM   C12 9086   5.039   1.145  17.243  0.1982  0.2869 -0.0380
   7023SM  H12A 9087   4.997   1.099  17.155  1.0350  0.7846 -0.7193
   7023SM  H12B 9088   5.135   1.094  17.253  0.8793  1.3187 -1.1225
   7023SM   C11 9089   5.062   1.300  17.220  0.6634 -0.0458 -0.1420
   7023SM  H11A 9090   4.963   1.347  17.200  0.1239 -1.4070 -0.7916
   7023SM  H11B 9091   5.111   1.311  17.121  1.4407 -3.4145 -0.2608
   7023SM     P 9092   5.084   1.485  17.405  0.1016 -0.2700 -0.0618
   7023SM   O13 9093   4.964   1.455  17.486  0.3767  0.2611 -0.3492
   7023SM   O14 9094   5.197   1.543  17.478  0.2810  0.0498 -0.1092
   7023SM   O11 9095   5.041   1.588  17.288 -0.4894  0.7006 -0.3221
   7023SM   O12 9096   5.133   1.362  17.326  0.1479  0.3559 -0.3168
   7023SM   C1S 9097   5.143   1.672  17.226 -0.0755 -0.5527  0.1037
   7023SM   H1S 9098   5.240   1.620  17.240 -0.5985 -1.3252  0.9498
   7023SM   H1T 9099   5.143   1.767  17.284  0.8719 -0.0500 -0.7019
   7023SM    NF 9100   5.219   1.775  17.018 -0.5975 -0.1544 -0.0055
   7023SM   HNF 9101   5.204   1.872  17.000  0.7294  0.1845  0.6042
   7023SM   C2S 9102   5.110   1.702  17.077 -0.7739  0.3895  0.0119
   7023SM   H2S 9103   5.111   1.606  17.021 -2.3620  1.0626 -1.2533
   7023SM   C3S 9104   4.973   1.762  17.049 -0.8979 -0.4326  0.1618
   7023SM   H3S 9105   4.985   1.867  17.082 -3.4145 -0.4540  1.4412
   7023SM    O3 9106   4.859   1.726  17.125 -0.5824 -0.0950 -0.3015
   7023SM   HO3 9107   4.901   1.688  17.203 -1.7378  1.3177  1.0831
   7023SM   C4S 9108   4.944   1.769  16.902 -0.4771  0.2334  0.4190
   7023SM   H4S 9109   4.975   1.675  16.855  1.7532  0.8773  0.4860
   7023SM   C5S 9110   4.905   1.867  16.822  0.4963 -0.1619 -0.0158
   7023SM   H5S 9111   4.880   1.966  16.863 -0.6539  0.0274 -1.1162
   7023SM   C6S 9112   4.905   1.865  16.671  0.3163  0.0028 -0.2297
   7023SM   H6S 9113   4.958   1.775  16.634 -1.0139 -0.6025 -0.7041
   7023SM   H6T 9114   4.946   1.958  16.625  0.2220  0.1810  0.0441
   7023SM   C7S 9115   4.759   1.869  16.616 -0.5504 -0.1336 -0.0696
   7023SM   H7S 9116   4.716   1.972  16.614  1.5377  0.7856  0.1818
   7023SM   H7T 9117   4.693   1.800  16.674 -0.4121  0.7960  1.2592
   7023SM   C8S 9118   4.736   1.818  16.473  0.2599 -0.5405  0.1673
   7023SM   H8S 9119   4.628   1.789  16.474  0.2430 -0.5901 -1.2087
   7023SM   H8T 9120   4.792   1.725  16.450  1.9731  0.4755  0.0758
   7023SM   C9S 9121   4.763   1.922  16.361 -0.1853 -0.1692 -0.5611
   7023SM   H9S 9122   4.861   1.968  16.387 -0.1191  0.0557 -1.1839
   7023SM   H9T 9123   4.689   2.005  16.372 -0.6656 -0.8826  2.1787
   7023SM  C10S 9124   4.777   1.864  16.220 -0.2943 -0.6590  0.3692
   7023SM  H10S 9125   4.694   1.792  16.201 -1.0817 -0.1828  1.8287
   7023SM  H10T 9126   4.875   1.812  16.214 -0.1140 -0.1723 -1.5720
   7023SM  C11S 9127   4.769   1.983  16.116 -0.4129 -0.1678  0.0163
   7023SM  H11S 9128   4.839   2.065  16.145  0.3859 -0.6656 -0.4636
   7023SM  H11T 9129   4.665   2.020  16.115  0.3576  2.1517 -0.3738
   7023SM  C12S 9130   4.807   1.954  15.970  0.2922 -0.4113 -0.9441
   7023SM  H12S 9131   4.768   1.854  15.943 -0.3659 -1.1307  2.3245
   7023SM  H12T 9132   4.918   1.940  15.968  0.4670  0.7622 -0.6657
   7023SM  C13S 9133   4.778   2.062  15.868  0.6857 -0.0072 -0.8266
   7023SM  H13S 9134   4.800   2.162  15.911  2.2850 -0.8004  0.2567
   7023SM  H13T 9135   4.673   2.060  15.831 -0.2764 -0.2844  1.7434
   7023SM  C14S 9136   4.852   2.023  15.738 -0.6626  0.0870  0.7186
   7023SM  H14S 9137   4.822   1.920  15.708 -0.7190  0.8471 -2.1240
   7023SM  H14T 9138   4.962   2.018  15.758 -0.1546  1.1341 -1.4797
   7023SM  C15S 9139   4.844   2.121  15.620  0.5259 -0.7214  0.1592
   7023SM  H15S 9140   4.916   2.203  15.637 -0.6492  0.5392 -0.7355
   7023SM  H15T 9141   4.744   2.170  15.619  0.6458 -0.4769  0.1491
   7023SM  C16S 9142   4.861   2.070  15.477 -0.1472  0.1700  0.4852
   7023SM  H16S 9143   4.793   1.982  15.463  0.1025 -0.5778  3.4349
   7023SM  H16T 9144   4.962   2.049  15.437  0.1951  2.1531  0.2343
   7023SM  C17S 9145   4.805   2.167  15.376  0.2380  0.2473  0.6029
   7023SM  H17S 9146   4.857   2.265  15.382  0.3933  0.0787  2.3654
   7023SM  H17T 9147   4.696   2.182  15.391 -0.3082 -2.7525  0.2478
   7023SM  C18S 9148   4.836   2.128  15.232  0.3400  0.7125 -0.6151
   7023SM  H18S 9149   4.946   2.119  15.223  0.4873 -0.4629  1.6447
   7023SM  H18T 9150   4.799   2.192  15.149 -0.1309 -1.5645 -2.2510
   7023SM  H18U 9151   4.782   2.033  15.212  0.1631  0.9382 -1.2511
   7023SM   C1F 9152   5.348   1.726  17.024 -0.4941  1.1533 -0.5123
   7023SM    OF 9153   5.363   1.601  17.010 -0.4530  0.1647  0.5302
   7023SM   C2F 9154   5.464   1.819  17.048 -0.4238  0.2140  0.0044
   7023SM   H2F 9155   5.486   1.790  17.152 -2.0508 -2.5960 -0.3384
   7023SM   H2G 9156   5.430   1.925  17.043 -1.9327 -0.0863  2.3460
   7023SM   C3F 9157   5.587   1.819  16.950  0.1489  0.9843  0.2551
   7023SM   H3F 9158   5.548   1.869  16.859 -0.8806  0.8855  0.6243
   7023SM   H3G 9159   5.610   1.715  16.920 -2.3542 -0.1556  1.9630
   7023SM   C4F 9160   5.702   1.898  17.013  0.6064 -0.3045  0.1658
   7023SM   H4F 9161   5.731   1.856  17.112  3.1084 -0.2655 -0.4854
   7023SM   H4G 9162   5.671   2.005  17.017 -2.7090 -1.1184 -1.0694
   7023SM   C5F 9163   5.833   1.894  16.931  0.7196  0.2797  0.6392
   7023SM   H5F 9164   5.867   1.790  16.946 -1.9520 -0.7591  0.1453
   7023SM   H5G 9165   5.905   1.967  16.973  0.9044  0.9242 -0.7426
   7023SM   C6F 9166   5.826   1.925  16.782  0.0851 -0.2770 -0.1109
   7023SM   H6F 9167   5.753   1.849  16.747 -1.1487  0.8601 -0.0720
   7023SM   H6G 9168   5.925   1.897  16.739  0.8930 -0.4906  1.7854
   7023SM   C7F 9169   5.779   2.060  16.743 -0.1112  0.0817 -0.0732
   7023SM   H7F 9170   5.867   2.128  16.737 -1.4250  1.7173 -1.9546
   7023SM   H7G 9171   5.711   2.103  16.820  2.4727  1.6217  1.5174
   7023SM   C8F 9172   5.722   2.078  16.604  0.0648 -0.2990 -0.3336
   7023SM   H8F 9173   5.716   2.184  16.571  1.7909 -0.8456 -2.6662
   7023SM   H8G 9174   5.620   2.036  16.620  0.3713 -0.3948  1.6663
   7023SM   C9F 9175   5.786   1.992  16.485  0.0777  0.1947  0.7666
   7023SM   H9F 9176   5.823   1.893  16.520  0.3588  0.7144  1.9767
   7023SM   H9G 9177   5.873   2.051  16.448 -0.0343  0.7479  1.3652
   7023SM  C10F 9178   5.688   1.986  16.367  0.1961 -0.2570  0.7702
   7023SM  H10F 9179   5.665   2.091  16.339  1.1260 -0.3454 -0.4496
   7023SM  H10G 9180   5.595   1.942  16.409 -0.5394 -2.0500 -2.3981
   7023SM  C11F 9181   5.756   1.914  16.253 -0.2991  0.8723 -0.3041
   7023SM  H11F 9182   5.779   1.811  16.285  0.7882  1.1624 -0.1006
   7023SM  H11G 9183   5.855   1.957  16.225 -0.1979  0.2616 -0.9072
   7023SM  C12F 9184   5.677   1.921  16.126  0.2333  0.5139 -0.9800
   7023SM  H12F 9185   5.747   1.917  16.040  1.7725  1.8550  0.1291
   7023SM  H12G 9186   5.627   2.020  16.120 -0.7996  0.0208 -0.6432
   7023SM  C13F 9187   5.575   1.809  16.108  0.5027 -0.0005  0.1210
   7023SM  H13F 9188   5.485   1.822  16.172 -0.6891  0.4258 -1.5660
   7023SM  H13G 9189   5.610   1.706  16.131 -0.1856 -0.6748 -1.7013
   7023SM  C14F 9190   5.528   1.796  15.955  0.2418  0.4537  0.4468
   7023SM  H14F 9191   5.490   1.890  15.909  0.8612  0.4227 -0.1519
   7023SM  H14G 9192   5.445   1.723  15.952  0.3347  0.3697 -0.0732
   7023SM  C15F 9193   5.630   1.737  15.849 -0.1209  0.7121  0.6365
   7023SM  H15F 9194   5.666   1.641  15.892  1.8464  0.9821 -0.2652
   7023SM  H15G 9195   5.719   1.803  15.836 -0.0016  0.2686 -1.0889
   7023SM  C16F 9196   5.573   1.713  15.704 -0.1747 -0.2733  0.1158
   7023SM  H16F 9197   5.524   1.807  15.670 -1.6073 -0.8609  0.4781
   7023SM  H16G 9198   5.496   1.634  15.697 -1.0914  0.7077 -1.8258
   7023SM  C17F 9199   5.679   1.674  15.592  0.6599  0.1084  0.0684
   7023SM  H17F 9200   5.692   1.564  15.594  0.4200  0.0112  3.5424
   7023SM  H17G 9201   5.769   1.733  15.618 -1.1741  3.7359 -1.0847
   7023SM  C18F 9202   5.639   1.697  15.443  0.0201  0.4722  0.1161
   7023SM  H18F 9203   5.537   1.653  15.437  0.1648  0.0419  0.7039
   7023SM  H18G 9204   5.707   1.638  15.378  0.8335  1.3732  0.1262
   7023SM  C19F 9205   5.663   1.844  15.403  0.5275  0.2476 -0.1968
   7023SM  H19F 9206   5.621   1.903  15.487 -0.9173  1.0787 -1.4599
   7023SM  H19G 9207   5.594   1.858  15.317  1.2608  0.0809 -0.8130
   7023SM  C20F 9208   5.805   1.889  15.373  0.2108  0.4610  0.3696
   7023SM  H20F 9209   5.853   1.814  15.306  1.3932  1.0420  0.5537
   7023SM  H20G 9210   5.866   1.863  15.463  1.2309  2.4155  0.3003
   7023SM  C21F 9211   5.820   2.029  15.323  0.0286  0.2537  0.7426
   7023SM  H21F 9212   5.927   2.059  15.319 -0.4184  1.7662 -0.7985
   7023SM  H21G 9213   5.762   2.089  15.396  0.1548 -0.6871  1.6466
   7023SM  C22F 9214   5.777   2.034  15.168 -0.3379  0.2488  0.6704
   7023SM  H22F 9215   5.675   1.991  15.158 -0.5753  1.1611 -1.2950
   7023SM  H22G 9216   5.847   1.967  15.114 -0.5567  2.4772 -2.6531
   7023SM  C23F 9217   5.778   2.177  15.107 -0.0001 -0.5868  0.5146
   7023SM  H23F 9218   5.689   2.235  15.138 -0.1418 -0.7188  0.3556
   7023SM  H23G 9219   5.773   2.155  14.998 -2.4594 -1.7068  0.7811
   7023SM  H23H 9220   5.875   2.228  15.125  0.7990 -2.0447  0.4499
   7123SM     N 9221   0.941   0.540  17.635  0.0961 -0.2727  0.2219
   7123SM   C15 9222   0.891   0.680  17.597  1.1176 -0.3792 -0.1967
   7123SM  H15A 9223   0.855   0.733  17.684 -1.2134 -1.9592 -0.1110
   7123SM  H15B 9224   0.811   0.671  17.524  1.5028 -0.0584 -0.6656
   7123SM  H15C 9225   0.977   0.730  17.554  0.2088  2.0280  0.5957
   7123SM   C14 9226   1.019   0.551  17.764 -0.2225  0.5201 -0.5659
   7123SM  H14A 9227   1.100   0.623  17.753 -2.1412  3.1756  1.3811
   7123SM  H14B 9228   1.069   0.458  17.787 -3.4570 -1.3011 -0.3453
   7123SM  H14C 9229   0.959   0.564  17.853 -1.2815 -1.6594 -0.9019
   7123SM   C13 9230   0.818   0.468  17.666 -0.1738 -0.6143 -0.1693
   7123SM  H13A 9231   0.760   0.515  17.744  0.8852 -0.3430  0.4867
   7123SM  H13B 9232   0.853   0.375  17.707  0.9686 -0.3131 -0.4045
   7123SM  H13C 9233   0.761   0.463  17.574  2.7138  1.4076 -2.2777
   7123SM   C12 9234   1.014   0.474  17.525  0.5314  0.9188  1.5847
   7123SM  H12A 9235   1.020   0.368  17.548 -0.2596  0.2742 -0.8777
   7123SM  H12B 9236   1.114   0.513  17.531  0.9999 -0.1379  0.9613
   7123SM   C11 9237   0.950   0.491  17.383 -0.3151  0.3748 -0.0788
   7123SM  H11A 9238   1.016   0.437  17.312  0.0548  0.7550 -0.0263
   7123SM  H11B 9239   0.966   0.592  17.341  1.0825 -0.1765 -0.9553
   7123SM     P 9240   0.709   0.516  17.289  0.3300 -0.1106  0.2440
   7123SM   O13 9241   0.578   0.452  17.306 -0.0431 -0.9574  0.2230
   7123SM   O14 9242   0.716   0.660  17.321  0.1042  0.0149  0.1946
   7123SM   O11 9243   0.772   0.501  17.148  0.2385  0.2969  0.2981
   7123SM   O12 9244   0.815   0.439  17.373 -0.1427  0.4470  0.1138
   7123SM   C1S 9245   0.820   0.369  17.088  0.8204 -0.0365  0.4762
   7123SM   H1S 9246   0.756   0.283  17.117  1.8159 -0.5383  1.2811
   7123SM   H1T 9247   0.915   0.342  17.140  0.3753 -1.7715  0.4606
   7123SM    NF 9248   0.917   0.268  16.875 -0.5388 -0.2134  0.2825
   7123SM   HNF 9249   0.983   0.298  16.807 -1.6170  0.4042 -0.5093
   7123SM   C2S 9250   0.834   0.374  16.928 -0.0118  0.3232 -0.5829
   7123SM   H2S 9251   0.736   0.355  16.879 -0.9930 -2.2337  2.1107
   7123SM   C3S 9252   0.889   0.510  16.873  0.4126  0.0743  0.3960
   7123SM   H3S 9253   0.998   0.491  16.889  0.3599 -2.8674 -2.0154
   7123SM    O3 9254   0.865   0.632  16.946 -0.0526  0.2772  0.6040
   7123SM   HO3 9255   0.821   0.606  17.027  0.3340 -0.1661  0.6751
   7123SM   C4S 9256   0.871   0.530  16.718  0.5868  0.1174 -0.4868
   7123SM   H4S 9257   0.767   0.525  16.684 -0.4078  2.0292  1.8812
   7123SM   C5S 9258   0.965   0.556  16.635  0.3417  0.3535 -0.2020
   7123SM   H5S 9259   1.064   0.562  16.682 -0.2146  0.9743  0.9620
   7123SM   C6S 9260   0.968   0.576  16.485  0.3499  0.0086 -0.3653
   7123SM   H6S 9261   1.064   0.543  16.441  0.0047 -0.2251 -0.9458
   7123SM   H6T 9262   0.968   0.686  16.472  0.4712  0.1052  0.3758
   7123SM   C7S 9263   0.843   0.533  16.401  0.0108  0.0693  0.0887
   7123SM   H7S 9264   0.750   0.583  16.436 -0.1821  0.5841 -1.0966
   7123SM   H7T 9265   0.842   0.422  16.409  0.1667 -0.2128 -2.8016
   7123SM   C8S 9266   0.862   0.570  16.256  1.4306 -0.3149  0.7814
   7123SM   H8S 9267   0.963   0.559  16.211  1.0430 -1.6085  0.1644
   7123SM   H8T 9268   0.841   0.679  16.255  2.0048 -0.1822  1.7954
   7123SM   C9S 9269   0.762   0.507  16.153 -0.1797 -0.5504 -0.5495
   7123SM   H9S 9270   0.657   0.527  16.186  0.1411 -0.5986  0.5277
   7123SM   H9T 9271   0.776   0.397  16.157 -0.3825 -0.5851 -0.7111
   7123SM  C10S 9272   0.784   0.544  16.005  1.0355  0.2649  0.0463
   7123SM  H10S 9273   0.884   0.499  15.984  1.4632  1.2132 -0.0048
   7123SM  H10T 9274   0.780   0.653  15.987  1.0908  0.2630  0.0209
   7123SM  C11S 9275   0.688   0.476  15.898 -0.0255  0.3853  0.3071
   7123SM  H11S 9276   0.584   0.515  15.899 -0.6682 -1.0925 -1.9587
   7123SM  H11T 9277   0.688   0.368  15.924  3.2888  0.1383 -0.2873
   7123SM  C12S 9278   0.748   0.488  15.761  0.2540  0.3086  0.2431
   7123SM  H12S 9279   0.779   0.388  15.723  1.1850  1.2870 -1.7061
   7123SM  H12T 9280   0.841   0.550  15.765 -0.4448  1.3750  0.2054
   7123SM  C13S 9281   0.648   0.562  15.666 -0.1564 -0.2650 -0.0192
   7123SM  H13S 9282   0.640   0.666  15.705  0.6168  0.5382 -1.9240
   7123SM  H13T 9283   0.550   0.510  15.672  0.5529 -1.6511 -0.0478
   7123SM  C14S 9284   0.692   0.562  15.521 -0.4817  0.0900 -0.6991
   7123SM  H14S 9285   0.803   0.568  15.528 -0.2736 -0.9531 -2.3672
   7123SM  H14T 9286   0.655   0.658  15.479 -1.0764  0.6744  1.0921
   7123SM  C15S 9287   0.644   0.448  15.426  0.3705  0.2168 -0.2495
   7123SM  H15S 9288   0.535   0.425  15.435  0.3809  0.5260  0.7753
   7123SM  H15T 9289   0.694   0.357  15.464 -1.3180  0.2033  2.2232
   7123SM  C16S 9290   0.687   0.481  15.282  0.8924 -0.3090 -0.8577
   7123SM  H16S 9291   0.798   0.472  15.283  0.7543 -2.8416 -1.1537
   7123SM  H16T 9292   0.655   0.583  15.252 -0.9004 -1.2128 -2.1969
   7123SM  C17S 9293   0.622   0.391  15.178 -0.2207 -0.9204 -0.6556
   7123SM  H17S 9294   0.512   0.403  15.191 -0.1748 -1.5526  0.4133
   7123SM  H17T 9295   0.639   0.284  15.200  0.1086 -0.9944 -1.2547
   7123SM  C18S 9296   0.661   0.434  15.034 -0.3492 -0.0384 -0.2627
   7123SM  H18S 9297   0.600   0.374  14.963 -1.9997  1.2368  0.0106
   7123SM  H18T 9298   0.767   0.407  15.017  0.4325  1.2794  2.1039
   7123SM  H18U 9299   0.645   0.542  15.013 -2.4652 -0.1837  0.2947
   7123SM   C1F 9300   0.889   0.134  16.903  0.1376 -0.7411  0.2857
   7123SM    OF 9301   0.801   0.093  16.982 -0.0086  0.5476  0.3083
   7123SM   C2F 9302   0.981   0.046  16.829 -0.0672  0.2074 -0.1422
   7123SM   H2F 9303   1.066   0.019  16.896  0.7295  2.1767 -0.2987
   7123SM   H2G 9304   1.023   0.096  16.739  1.4769  2.0118  1.4658
   7123SM   C3F 9305   0.916  -0.084  16.778  0.0965  0.7507 -0.7531
   7123SM   H3F 9306   0.871  -0.131  16.868 -0.4085  0.0619 -1.3499
   7123SM   H3G 9307   0.995  -0.155  16.746  0.5559  1.2168 -0.6738
   7123SM   C4F 9308   0.802  -0.076  16.672  0.3531  0.4139 -0.2362
   7123SM   H4F 9309   0.733  -0.006  16.722 -0.6293 -1.4126  1.0964
   7123SM   H4G 9310   0.748  -0.172  16.657  0.0893  0.7715 -1.6317
   7123SM   C5F 9311   0.844  -0.024  16.539  0.1240 -0.0780  0.8116
   7123SM   H5F 9312   0.933  -0.079  16.501  1.3905  1.5622  1.3076
   7123SM   H5G 9313   0.878   0.081  16.552 -1.9909  1.1124 -2.0207
   7123SM   C6F 9314   0.726  -0.034  16.443 -0.3597  0.5414 -0.3064
   7123SM   H6F 9315   0.641   0.012  16.498 -0.6373 -1.7739  1.3403
   7123SM   H6G 9316   0.691  -0.140  16.433 -3.0822  1.1615  1.4799
   7123SM   C7F 9317   0.757   0.016  16.299 -0.1458  0.2821 -0.6552
   7123SM   H7F 9318   0.834  -0.040  16.241  1.1221  1.2849  0.0095
   7123SM   H7G 9319   0.795   0.120  16.295 -1.5135  0.8048 -0.6633
   7123SM   C8F 9320   0.625   0.020  16.217  0.0850  0.6636  0.1332
   7123SM   H8F 9321   0.535   0.058  16.270  1.0984  1.8934  1.0085
   7123SM   H8G 9322   0.609  -0.090  16.211 -2.2437  0.8354  1.7829
   7123SM   C9F 9323   0.643   0.095  16.085  0.8092  0.2659  0.8573
   7123SM   H9F 9324   0.744   0.065  16.049  1.1470  2.4262 -0.1974
   7123SM   H9G 9325   0.635   0.205  16.095 -3.1614  0.2849 -0.6245
   7123SM  C10F 9326   0.541   0.056  15.971  0.0278  0.6794  0.0650
   7123SM  H10F 9327   0.441   0.101  15.986 -1.6136 -2.4145 -0.7377
   7123SM  H10G 9328   0.536  -0.055  15.983  0.1464  0.8635  2.1216
   7123SM  C11F 9329   0.587   0.092  15.824 -0.2977  0.5878  0.0187
   7123SM  H11F 9330   0.685   0.046  15.800 -1.7269 -1.7602 -1.7021
   7123SM  H11G 9331   0.596   0.202  15.808 -0.1160  0.5968  0.1885
   7123SM  C12F 9332   0.493   0.032  15.714 -0.4701  1.4137 -0.3241
   7123SM  H12F 9333   0.387   0.060  15.730 -0.6963  0.7407 -0.6045
   7123SM  H12G 9334   0.486  -0.079  15.725  1.6120  1.1392 -1.2639
   7123SM  C13F 9335   0.531   0.061  15.569  0.2062 -0.3519  0.0455
   7123SM  H13F 9336   0.622   0.004  15.542  0.8049  1.1561 -1.2627
   7123SM  H13G 9337   0.553   0.169  15.556 -4.0594  0.7337  0.3842
   7123SM  C14F 9338   0.413   0.007  15.486 -0.4830  0.7016 -0.0305
   7123SM  H14F 9339   0.333   0.083  15.475 -1.4691 -0.5153 -1.8623
   7123SM  H14G 9340   0.380  -0.084  15.540  1.0014  0.5647  0.6906
   7123SM  C15F 9341   0.459  -0.039  15.344  0.0349 -0.2223  0.2261
   7123SM  H15F 9342   0.566  -0.070  15.345  0.8420  2.1974 -0.8447
   7123SM  H15G 9343   0.476   0.053  15.284 -1.2979  0.1083  0.3297
   7123SM  C16F 9344   0.360  -0.124  15.287 -0.2622 -0.0018  1.1800
   7123SM  H16F 9345   0.262  -0.075  15.267 -0.9577 -1.3379  1.1745
   7123SM  H16G 9346   0.351  -0.215  15.350 -1.5761 -2.4846 -2.2670
   7123SM  C17F 9347   0.390  -0.174  15.141  0.3400  0.1702 -0.5689
   7123SM  H17F 9348   0.390  -0.083  15.078  0.7214  1.7647  1.6246
   7123SM  H17G 9349   0.292  -0.221  15.117 -0.2654  0.5859  0.9498
   7123SM  C18F 9350   0.505  -0.268  15.116  0.5895  0.2485 -0.0667
   7123SM  H18F 9351   0.510  -0.337  15.203 -1.6741 -0.7655 -0.6702
   7123SM  H18G 9352   0.605  -0.220  15.111  0.5039  0.3346 -1.2526
   7123SM  C19F 9353   0.487  -0.330  14.978 -0.8832  0.0663  0.4453
   7123SM  H19F 9354   0.478  -0.248  14.904 -2.3669 -0.3433  0.1289
   7123SM  H19G 9355   0.397  -0.396  14.978 -1.3282  0.6258 -1.1259
   7123SM  C20F 9356   0.607  -0.423  14.936 -0.0879  0.5638  0.6272
   7123SM  H20F 9357   0.698  -0.360  14.944 -0.5136  1.2685  0.0913
   7123SM  H20G 9358   0.595  -0.450  14.828  1.0632  0.2006  0.5735
   7123SM  C21F 9359   0.610  -0.560  15.004  0.3066 -0.1733 -0.3414
   7123SM  H21F 9360   0.508  -0.604  14.994  0.0542  0.0600  0.9319
   7123SM  H21G 9361   0.628  -0.563  15.114  0.6813  0.9358 -0.3568
   7123SM  C22F 9362   0.704  -0.654  14.929 -0.1168 -0.5981  0.8602
   7123SM  H22F 9363   0.806  -0.612  14.944  0.7596 -1.8482 -1.1999
   7123SM  H22G 9364   0.685  -0.654  14.819 -1.2287 -0.5434  1.0386
   7123SM  C23F 9365   0.701  -0.796  14.974 -0.3573  0.4732 -0.1576
   7123SM  H23F 9366   0.769  -0.858  14.912 -0.9721 -1.3182  0.8873
   7123SM  H23G 9367   0.606  -0.845  14.948  0.9857 -3.1052  1.1122
   7123SM  H23H 9368   0.735  -0.810  15.079 -1.6656 -2.6627 -0.0609
   7223SM     N 9369   1.200   3.591  17.705  0.0730  0.4309  0.0455
   7223SM   C15 9370   1.183   3.447  17.742 -0.2501 -0.6638  0.3330
   7223SM  H15A 9371   1.092   3.404  17.704  0.8344 -2.3849 -0.4238
   7223SM  H15B 9372   1.191   3.436  17.849  2.8445  1.1974  0.4221
   7223SM  H15C 9373   1.263   3.395  17.692 -0.6950 -0.8270 -0.2304
   7223SM   C14 9374   1.213   3.603  17.554 -0.6173 -0.2102  0.4893
   7223SM  H14A 9375   1.247   3.702  17.526  4.0467 -0.5149  3.7344
   7223SM  H14B 9376   1.118   3.589  17.506  0.3720  0.1975 -1.7560
   7223SM  H14C 9377   1.275   3.531  17.502 -1.0873  0.8671 -1.6590
   7223SM   C13 9378   1.069   3.649  17.750  0.4245  0.1853  0.3837
   7223SM  H13A 9379   1.071   3.755  17.729 -0.3470 -0.3760 -3.0561
   7223SM  H13B 9380   1.050   3.628  17.854  0.0379 -1.1582  0.0531
   7223SM  H13C 9381   0.984   3.604  17.702  0.1963  2.1110 -1.1603
   7223SM   C12 9382   1.320   3.646  17.768 -0.5677  0.3102  0.2987
   7223SM  H12A 9383   1.335   3.623  17.872  1.2088  2.3642  0.5771
   7223SM  H12B 9384   1.317   3.754  17.768  1.2861  0.3897  0.9366
   7223SM   C11 9385   1.455   3.598  17.717 -0.3395 -0.3117  0.3234
   7223SM  H11A 9386   1.538   3.661  17.757  1.3568  0.2687 -3.6040
   7223SM  H11B 9387   1.466   3.612  17.607 -1.3140 -0.9669  0.1268
   7223SM     P 9388   1.527   3.415  17.895  0.2034 -0.0833  0.1775
   7223SM   O13 9389   1.543   3.534  17.981  0.1486  0.0308  0.1053
   7223SM   O14 9390   1.435   3.308  17.940 -0.1069 -0.3881 -0.1399
   7223SM   O11 9391   1.671   3.356  17.866  0.1336  0.1040 -0.1342
   7223SM   O12 9392   1.479   3.466  17.748 -0.4014 -0.0197 -0.4207
   7223SM   C1S 9393   1.689   3.253  17.775 -0.4864 -0.4899 -0.7939
   7223SM   H1S 9394   1.605   3.179  17.779 -0.6612 -0.4838 -3.1115
   7223SM   H1T 9395   1.778   3.187  17.786 -0.2961 -0.3022 -1.2165
   7223SM    NF 9396   1.691   3.202  17.534  0.6464  0.7244  0.0347
   7223SM   HNF 9397   1.758   3.192  17.462 -2.3050 -0.8392 -2.7265
   7223SM   C2S 9398   1.702   3.311  17.630  0.0126 -0.9477  0.0447
   7223SM   H2S 9399   1.612   3.371  17.605 -1.5074 -2.3588  1.8267
   7223SM   C3S 9400   1.834   3.393  17.621 -0.8917 -0.2450  0.2572
   7223SM   H3S 9401   1.914   3.317  17.635  1.2628  2.0848  1.2702
   7223SM    O3 9402   1.855   3.481  17.723 -0.2766  0.0406  0.1161
   7223SM   HO3 9403   1.788   3.457  17.788  0.0650 -0.4781  0.2860
   7223SM   C4S 9404   1.843   3.463  17.489  0.3448  0.9301  0.0427
   7223SM   H4S 9405   1.918   3.409  17.429 -0.2311  2.0207 -1.7502
   7223SM   C5S 9406   1.761   3.560  17.436  0.0865  0.9124  0.1469
   7223SM   H5S 9407   1.671   3.590  17.490 -0.8029 -3.2380  1.2906
   7223SM   C6S 9408   1.770   3.601  17.295 -0.5991  0.1039  0.1114
   7223SM   H6S 9409   1.865   3.566  17.250 -0.7681  0.5750 -0.6282
   7223SM   H6T 9410   1.776   3.712  17.306  1.1823  0.1309 -0.7495
   7223SM   C7S 9411   1.649   3.560  17.205 -0.0422 -0.3782 -0.7101
   7223SM   H7S 9412   1.555   3.604  17.246 -0.7292 -1.4086 -1.1370
   7223SM   H7T 9413   1.635   3.450  17.216 -0.8344 -0.2419 -0.2352
   7223SM   C8S 9414   1.677   3.594  17.068  0.0762 -0.2579  0.5048
   7223SM   H8S 9415   1.755   3.526  17.028 -0.7076  0.0387 -1.6452
   7223SM   H8T 9416   1.705   3.701  17.067  1.1962 -0.5336  0.4812
   7223SM   C9S 9417   1.548   3.570  16.981 -0.1825 -0.1033 -0.5752
   7223SM   H9S 9418   1.474   3.652  16.992 -0.7574 -0.3196 -2.3959
   7223SM   H9T 9419   1.496   3.483  17.025  0.3944  0.5215  1.4183
   7223SM  C10S 9420   1.577   3.553  16.833  0.1831 -0.1469  0.1807
   7223SM  H10S 9421   1.653   3.474  16.814 -1.6750 -1.5398 -1.8301
   7223SM  H10T 9422   1.624   3.639  16.781 -1.7307 -0.1333 -1.6279
   7223SM  C11S 9423   1.455   3.515  16.760  0.4185  0.5863  0.2173
   7223SM  H11S 9424   1.368   3.569  16.802 -1.1533 -1.9674  0.4719
   7223SM  H11T 9425   1.429   3.408  16.772  3.4825 -0.4183 -0.9146
   7223SM  C12S 9426   1.458   3.541  16.610  0.6314 -0.0864 -0.3982
   7223SM  H12S 9427   1.454   3.651  16.591  0.2360  0.1301  0.8683
   7223SM  H12T 9428   1.360   3.506  16.571 -0.0037 -0.2463  1.2792
   7223SM  C13S 9429   1.579   3.483  16.537  0.8080  0.5062  0.5260
   7223SM  H13S 9430   1.600   3.396  16.602  0.0423  0.3585  0.5878
   7223SM  H13T 9431   1.669   3.545  16.556 -0.1149  2.3108 -0.6609
   7223SM  C14S 9432   1.559   3.447  16.387  0.0684 -0.0717  0.3543
   7223SM  H14S 9433   1.473   3.377  16.377  0.9324 -1.0478 -0.3881
   7223SM  H14T 9434   1.653   3.394  16.361 -0.7157 -0.7662 -1.1944
   7223SM  C15S 9435   1.536   3.558  16.282  0.0880 -0.4256  0.2193
   7223SM  H15S 9436   1.610   3.640  16.294 -0.1369  0.1860 -2.0414
   7223SM  H15T 9437   1.436   3.594  16.313 -0.6711 -2.2353  0.0093
   7223SM  C16S 9438   1.532   3.507  16.130  0.1820  0.2117 -0.1344
   7223SM  H16S 9439   1.467   3.417  16.130 -0.7069  0.8229 -1.0051
   7223SM  H16T 9440   1.636   3.468  16.119 -0.2161 -0.4351 -2.1243
   7223SM  C17S 9441   1.499   3.605  16.021 -0.4532 -0.5132 -0.0697
   7223SM  H17S 9442   1.568   3.691  16.025 -1.1100 -0.0161  1.1848
   7223SM  H17T 9443   1.403   3.654  16.050 -1.2278 -1.1282 -1.4751
   7223SM  C18S 9444   1.499   3.536  15.884 -0.5151 -0.3435 -0.3052
   7223SM  H18S 9445   1.417   3.461  15.885 -1.9319  1.1643 -0.3387
   7223SM  H18T 9446   1.595   3.481  15.869  0.3891  1.0310  0.2351
   7223SM  H18U 9447   1.491   3.610  15.802  0.4124  1.4651  1.1575
   7223SM   C1F 9448   1.592   3.117  17.522  0.1042 -0.6281 -0.1831
   7223SM    OF 9449   1.499   3.115  17.604 -0.6937 -0.0282 -0.1967
   7223SM   C2F 9450   1.604   3.022  17.400  0.1000 -0.4713  0.2649
   7223SM   H2F 9451   1.556   2.927  17.431 -2.2222  0.2135 -0.9542
   7223SM   H2G 9452   1.709   3.004  17.371 -0.3466  0.8671 -2.4762
   7223SM   C3F 9453   1.545   3.086  17.266  0.7539 -0.8521 -0.9324
   7223SM   H3F 9454   1.609   3.168  17.228 -1.8034  1.7567  0.0184
   7223SM   H3G 9455   1.439   3.117  17.275  0.7749 -0.8980 -0.4587
   7223SM   C4F 9456   1.539   2.988  17.150  0.3393 -0.2568 -0.0675
   7223SM   H4F 9457   1.463   2.908  17.165  1.7954 -1.7962 -0.6125
   7223SM   H4G 9458   1.639   2.939  17.143 -0.3256 -1.8718  1.1636
   7223SM   C5F 9459   1.513   3.072  17.022  0.2851  0.3635 -0.0626
   7223SM   H5F 9460   1.591   3.149  17.003 -1.9098  2.6165 -0.5359
   7223SM   H5G 9461   1.418   3.125  17.047  0.3658  0.6610 -0.3737
   7223SM   C6F 9462   1.497   2.992  16.888  0.0446  0.5197 -0.0632
   7223SM   H6F 9463   1.402   2.935  16.895  0.1186  0.5065  0.9639
   7223SM   H6G 9464   1.584   2.924  16.875  0.0383  0.6812 -1.0550
   7223SM   C7F 9465   1.492   3.085  16.762 -0.0102 -0.0462  0.5832
   7223SM   H7F 9466   1.577   3.155  16.780  1.4986 -1.8011  0.6148
   7223SM   H7G 9467   1.398   3.143  16.759  0.3677  0.5357 -1.3055
   7223SM   C8F 9468   1.517   3.006  16.628 -0.2093 -0.4273  0.3892
   7223SM   H8F 9469   1.446   2.921  16.619 -0.4238 -0.1567 -0.5169
   7223SM   H8G 9470   1.621   2.967  16.625 -0.2978 -0.5976 -2.0424
   7223SM   C9F 9471   1.502   3.095  16.505  0.2018  0.2659  0.2694
   7223SM   H9F 9472   1.539   3.199  16.514  0.1833  0.3207 -0.2544
   7223SM   H9G 9473   1.391   3.099  16.494  0.1488 -0.6355  0.3787
   7223SM  C10F 9474   1.558   3.030  16.376  0.5288 -0.3116  0.0596
   7223SM  H10F 9475   1.514   2.928  16.375 -0.8787  0.2625  0.4758
   7223SM  H10G 9476   1.667   3.012  16.382  0.6643 -0.9144 -3.0197
   7223SM  C11F 9477   1.525   3.109  16.248 -0.5161 -0.5650 -0.0900
   7223SM  H11F 9478   1.556   3.216  16.255 -3.7732  0.4130  1.0310
   7223SM  H11G 9479   1.415   3.102  16.242 -0.7599 -0.7999  3.1785
   7223SM  C12F 9480   1.596   3.042  16.124 -0.8314 -0.3136 -0.6481
   7223SM  H12F 9481   1.591   2.931  16.122 -0.0276 -0.3566 -2.8187
   7223SM  H12G 9482   1.704   3.056  16.147 -1.1815 -0.3166  1.1723
   7223SM  C13F 9483   1.538   3.091  15.989  0.5082  0.1012  0.0538
   7223SM  H13F 9484   1.501   3.196  15.995 -1.4550 -0.4651 -1.2529
   7223SM  H13G 9485   1.445   3.030  15.984  0.8249 -0.4604  0.9086
   7223SM  C14F 9486   1.632   3.068  15.871 -0.2529  0.5617 -0.9276
   7223SM  H14F 9487   1.658   2.960  15.873 -0.8291  0.4171 -1.0051
   7223SM  H14G 9488   1.729   3.120  15.879 -0.2190  0.4407 -0.5314
   7223SM  C15F 9489   1.562   3.102  15.741  0.0877  0.7391  0.1797
   7223SM  H15F 9490   1.542   3.211  15.745  0.2869  0.8151 -0.6418
   7223SM  H15G 9491   1.471   3.038  15.734  1.1472 -0.6393 -2.2582
   7223SM  C16F 9492   1.655   3.069  15.621  0.7559 -0.9186  0.2271
   7223SM  H16F 9493   1.677   2.960  15.620 -1.1292 -1.4212  2.5532
   7223SM  H16G 9494   1.744   3.127  15.653 -0.0171 -0.4885  1.6968
   7223SM  C17F 9495   1.602   3.119  15.489  0.3310  0.6150  0.4673
   7223SM  H17F 9496   1.595   3.230  15.495  0.8364  0.6289  0.9772
   7223SM  H17G 9497   1.499   3.085  15.469  0.3175 -1.3008  3.1604
   7223SM  C18F 9498   1.693   3.083  15.368 -0.4798  0.1478  0.3993
   7223SM  H18F 9499   1.706   2.973  15.354 -0.9614  0.0596  0.6376
   7223SM  H18G 9500   1.788   3.137  15.383 -0.9375  1.0624  0.0693
   7223SM  C19F 9501   1.625   3.142  15.239  0.6840 -0.0849 -0.2554
   7223SM  H19F 9502   1.595   3.247  15.258 -1.3070 -0.4778 -1.0475
   7223SM  H19G 9503   1.533   3.083  15.219  0.9563 -1.1430  1.3988
   7223SM  C20F 9504   1.716   3.130  15.120  0.3864 -0.8585 -1.0355
   7223SM  H20F 9505   1.748   3.024  15.113 -0.3089 -1.0839 -0.8812
   7223SM  H20G 9506   1.807   3.186  15.150  0.5441 -2.3707  1.6295
   7223SM  C21F 9507   1.651   3.183  14.993 -0.4178  0.3998 -0.4335
   7223SM  H21F 9508   1.725   3.178  14.910  0.1653  0.4306  0.0765
   7223SM  H21G 9509   1.628   3.290  15.012 -2.6063 -0.0946 -0.0006
   7223SM  C22F 9510   1.515   3.124  14.946 -0.4284  0.2770  0.2388
   7223SM  H22F 9511   1.434   3.135  15.021 -1.1873 -1.8992 -0.1805
   7223SM  H22G 9512   1.530   3.016  14.926 -0.1056  0.6404 -1.6503
   7223SM  C23F 9513   1.467   3.193  14.814  0.7072 -0.2372  0.3221
   7223SM  H23F 9514   1.561   3.207  14.756  2.4680  2.3074  3.4662
   7223SM  H23G 9515   1.412   3.287  14.839  0.0661 -0.2606 -0.8800
   7223SM  H23H 9516   1.400   3.119  14.765  0.7163  1.5856 -2.6777
   7323SM     N 9517   6.677   1.256  17.632  0.2845 -0.7451  0.8126
   7323SM   C15 9518   6.700   1.365  17.729  0.4829  0.1222  0.2233
   7323SM  H15A 9519   6.617   1.385  17.795 -0.0561  0.7895 -0.6425
   7323SM  H15B 9520   6.734   1.453  17.677 -0.9339 -0.1029 -1.1521
   7323SM  H15C 9521   6.781   1.344  17.798  1.2437  0.9163 -0.4032
   7323SM   C14 9522   6.814   1.231  17.571 -0.3811  0.1334  0.2008
   7323SM  H14A 9523   6.822   1.132  17.529  1.6597 -0.0911  0.9981
   7323SM  H14B 9524   6.885   1.233  17.652  0.1897  0.7533 -0.2987
   7323SM  H14C 9525   6.844   1.298  17.491 -0.9979  2.2560  1.6455
   7323SM   C13 9526   6.635   1.128  17.700 -0.5704  0.0651  0.4718
   7323SM  H13A 9527   6.630   1.048  17.627  2.0576 -0.8314  1.1477
   7323SM  H13B 9528   6.538   1.141  17.745 -0.3867  1.0141  0.6037
   7323SM  H13C 9529   6.704   1.100  17.778 -2.5003 -2.0845  1.5601
   7323SM   C12 9530   6.568   1.291  17.535 -0.7166 -0.1201 -0.0715
   7323SM  H12A 9531   6.567   1.216  17.457 -0.4547 -2.1764  1.8347
   7323SM  H12B 9532   6.589   1.387  17.490  0.7671 -0.5595 -0.3774
   7323SM   C11 9533   6.426   1.303  17.593 -0.1550 -0.1503 -0.0037
   7323SM  H11A 9534   6.410   1.235  17.680 -0.3926 -0.8111 -0.5632
   7323SM  H11B 9535   6.353   1.270  17.517 -0.5013  2.8112 -1.1175
   7323SM     P 9536   6.365   1.548  17.531 -0.0406  0.1024 -0.1161
   7323SM   O13 9537   6.221   1.580  17.549 -0.2655  0.0991 -0.1483
   7323SM   O14 9538   6.462   1.659  17.549  0.0049 -0.4252  0.0542
   7323SM   O11 9539   6.379   1.475  17.390 -0.5342 -0.3184  0.5087
   7323SM   O12 9540   6.394   1.431  17.636 -0.8188 -0.1158 -0.2042
   7323SM   C1S 9541   6.276   1.485  17.284  0.5908  0.0004 -0.0510
   7323SM   H1S 9542   6.217   1.578  17.293  0.4492  0.0416 -1.2555
   7323SM   H1T 9543   6.202   1.401  17.284 -0.1491  0.6402 -0.2848
   7323SM    NF 9544   6.244   1.518  17.033 -0.6092  0.2215  0.6053
   7323SM   HNF 9545   6.183   1.445  17.005  1.4531 -0.7901 -1.7055
   7323SM   C2S 9546   6.340   1.482  17.142  0.0935  0.2607  0.0535
   7323SM   H2S 9547   6.424   1.555  17.142  0.8613 -0.5929 -1.2982
   7323SM   C3S 9548   6.401   1.333  17.129 -0.2483  0.0694 -0.3000
   7323SM   H3S 9549   6.331   1.257  17.172  1.6288 -2.8506 -2.0253
   7323SM    O3 9550   6.512   1.315  17.210 -0.6149 -0.4635 -0.1891
   7323SM   HO3 9551   6.488   1.376  17.281 -2.3239  1.1090 -1.9701
   7323SM   C4S 9552   6.450   1.302  16.994  0.0886  1.0749 -0.8332
   7323SM   H4S 9553   6.539   1.357  16.960  1.8397 -0.3359  1.2179
   7323SM   C5S 9554   6.413   1.212  16.909 -0.4775  0.5529  0.3771
   7323SM   H5S 9555   6.336   1.139  16.937 -0.3232 -0.0618 -0.7520
   7323SM   C6S 9556   6.475   1.194  16.777 -0.1482 -0.0655 -0.8075
   7323SM   H6S 9557   6.486   1.085  16.759 -3.2341 -0.5583 -0.1872
   7323SM   H6T 9558   6.576   1.240  16.764  0.5867 -1.0687  0.9345
   7323SM   C7S 9559   6.378   1.226  16.662 -0.6703  0.3323 -0.2844
   7323SM   H7S 9560   6.335   1.328  16.675  1.4619  1.0910  1.4927
   7323SM   H7T 9561   6.292   1.157  16.665 -0.1511 -0.4256 -1.8054
   7323SM   C8S 9562   6.466   1.209  16.533  0.2383  0.2710  0.2720
   7323SM   H8S 9563   6.516   1.113  16.507  0.4468  1.0137 -2.3290
   7323SM   H8T 9564   6.537   1.294  16.533  0.8521 -0.2315  0.8939
   7323SM   C9S 9565   6.376   1.245  16.410  0.0463 -0.0482  0.3067
   7323SM   H9S 9566   6.340   1.345  16.442  1.0179  0.0851  1.0433
   7323SM   H9T 9567   6.294   1.171  16.400  2.0843 -2.3153 -0.8679
   7323SM  C10S 9568   6.450   1.232  16.275  0.2198  0.5129  1.0043
   7323SM  H10S 9569   6.488   1.128  16.264  1.2183  0.8373  1.2852
   7323SM  H10T 9570   6.539   1.295  16.254 -0.7289  0.9819 -2.0776
   7323SM  C11S 9571   6.355   1.269  16.151 -0.3182  0.2385 -0.2728
   7323SM  H11S 9572   6.314   1.372  16.156 -1.6709 -0.3242  1.2490
   7323SM  H11T 9573   6.275   1.192  16.163 -0.2311  0.2014  0.0707
   7323SM  C12S 9574   6.420   1.237  16.018  0.1407  0.9234 -0.1460
   7323SM  H12S 9575   6.474   1.140  16.015  1.4831  1.6181  0.6856
   7323SM  H12T 9576   6.501   1.311  15.999  2.2882 -1.3334 -0.2632
   7323SM  C13S 9577   6.317   1.241  15.905 -0.7814  0.7643 -0.1675
   7323SM  H13S 9578   6.263   1.338  15.897 -2.5101 -0.1326  0.1531
   7323SM  H13T 9579   6.238   1.165  15.922 -0.6993  0.7754  0.2639
   7323SM  C14S 9580   6.394   1.208  15.778  0.1008 -0.0053 -0.8901
   7323SM  H14S 9581   6.408   1.098  15.775 -1.1399 -0.2160 -4.5909
   7323SM  H14T 9582   6.493   1.257  15.788  0.2179  0.1109 -2.3857
   7323SM  C15S 9583   6.327   1.262  15.655  0.5297 -0.1749  1.0951
   7323SM  H15S 9584   6.318   1.373  15.655 -0.2008 -0.2050  2.6477
   7323SM  H15T 9585   6.230   1.209  15.661 -0.3386  0.9048 -1.6529
   7323SM  C16S 9586   6.386   1.220  15.523 -0.1612  0.2901  0.4635
   7323SM  H16S 9587   6.391   1.113  15.496 -0.5695 -0.2797  2.4582
   7323SM  H16T 9588   6.493   1.249  15.524  0.0608 -0.4901  0.2066
   7323SM  C17S 9589   6.317   1.283  15.400 -0.0140 -0.3630  0.5387
   7323SM  H17S 9590   6.310   1.394  15.407 -2.0726 -0.0921 -3.1285
   7323SM  H17T 9591   6.213   1.244  15.407  0.1685 -0.7718  1.0643
   7323SM  C18S 9592   6.383   1.236  15.264 -0.1030 -0.3774 -0.0094
   7323SM  H18S 9593   6.493   1.254  15.271 -0.0662 -1.0544  1.8440
   7323SM  H18T 9594   6.345   1.294  15.177  0.5008  2.0533  1.2476
   7323SM  H18U 9595   6.368   1.127  15.247 -1.2733 -0.1641 -0.4177
   7323SM   C1F 9596   6.211   1.646  17.005 -0.2898 -0.0054  0.5350
   7323SM    OF 9597   6.251   1.741  17.065 -0.0639  0.1240 -0.5498
   7323SM   C2F 9598   6.132   1.671  16.882  0.1188  0.4014  0.1015
   7323SM   H2F 9599   6.097   1.776  16.880 -1.1067  0.0131 -1.3573
   7323SM   H2G 9600   6.037   1.615  16.892  1.0583 -1.0046  1.5328
   7323SM   C3F 9601   6.211   1.639  16.758 -0.1234  0.0613 -0.1347
   7323SM   H3F 9602   6.252   1.536  16.749  0.6107  0.4236 -1.0823
   7323SM   H3G 9603   6.297   1.710  16.756  1.8094 -2.1670 -1.4373
   7323SM   C4F 9604   6.117   1.664  16.644  0.3889  0.1745  0.8881
   7323SM   H4F 9605   6.088   1.770  16.636 -0.8433 -0.2483 -0.7130
   7323SM   H4G 9606   6.022   1.606  16.648 -0.7173  1.8010 -0.6788
   7323SM   C5F 9607   6.168   1.629  16.498 -0.5813  0.2619  0.1201
   7323SM   H5F 9608   6.182   1.520  16.512 -3.9956 -0.3023 -0.0847
   7323SM   H5G 9609   6.262   1.688  16.485 -0.8999  1.5055  2.7644
   7323SM   C6F 9610   6.070   1.668  16.390  0.8269  0.0882  0.2015
   7323SM   H6F 9611   6.022   1.766  16.411 -2.1546  0.1368 -4.8838
   7323SM   H6G 9612   5.990   1.591  16.384 -0.5473  1.5318 -1.1561
   7323SM   C7F 9613   6.137   1.663  16.250  0.0535  0.2102 -0.2714
   7323SM   H7F 9614   6.154   1.556  16.226 -1.5960  0.2120 -1.5544
   7323SM   H7G 9615   6.236   1.713  16.255 -0.6835  1.7090 -0.1895
   7323SM   C8F 9616   6.049   1.729  16.142 -1.0310 -0.6666  0.2210
   7323SM   H8F 9617   6.035   1.836  16.167  1.2970 -0.2638 -0.0546
   7323SM   H8G 9618   5.947   1.683  16.145 -2.2078  1.8011  0.2869
   7323SM   C9F 9619   6.101   1.722  15.996 -0.1531 -0.0197  0.6294
   7323SM   H9F 9620   6.123   1.625  15.947 -1.6891 -0.1967  0.2514
   7323SM   H9G 9621   6.181   1.798  15.982 -1.5783  1.1602 -1.8057
   7323SM  C10F 9622   5.994   1.794  15.908 -0.1990  0.1485  0.0645
   7323SM  H10F 9623   5.954   1.877  15.970  2.9383  2.0905 -0.2643
   7323SM  H10G 9624   5.914   1.726  15.873  1.4856 -0.9883 -1.8379
   7323SM  C11F 9625   6.049   1.854  15.778  0.0751  0.3153  0.3054
   7323SM  H11F 9626   6.114   1.942  15.799  0.4914  0.8349 -2.7566
   7323SM  H11G 9627   5.970   1.894  15.711  0.1067  1.2201  0.7954
   7323SM  C12F 9628   6.123   1.749  15.693 -0.3083  0.2647  0.1440
   7323SM  H12F 9629   6.068   1.653  15.691  0.0806  0.0545 -0.7155
   7323SM  H12G 9630   6.223   1.725  15.734 -0.1346 -1.2368 -1.0926
   7323SM  C13F 9631   6.146   1.786  15.542 -0.4836 -0.1002  0.4090
   7323SM  H13F 9632   6.050   1.756  15.494  0.6676 -3.6778  0.0472
   7323SM  H13G 9633   6.215   1.704  15.514  0.0964 -0.4723  2.7428
   7323SM  C14F 9634   6.185   1.932  15.524  0.4494 -0.8291  0.5435
   7323SM  H14F 9635   6.271   1.952  15.593  0.7396  0.2923 -0.1208
   7323SM  H14G 9636   6.102   1.995  15.561  0.6314  0.7367 -1.5503
   7323SM  C15F 9637   6.219   1.980  15.373  0.7058  0.8277 -0.5151
   7323SM  H15F 9638   6.135   1.956  15.304  2.0740  1.0517 -2.3385
   7323SM  H15G 9639   6.305   1.917  15.341 -0.0400 -0.3315 -0.3069
   7323SM  C16F 9640   6.244   2.131  15.374 -0.1617 -0.1661 -0.2475
   7323SM  H16F 9641   6.300   2.159  15.466 -0.1120 -0.9429 -0.0303
   7323SM  H16G 9642   6.141   2.172  15.386  0.7686  1.7903  1.6852
   7323SM  C17F 9643   6.317   2.180  15.254  0.2270 -0.0781  0.0817
   7323SM  H17F 9644   6.405   2.118  15.229  0.1472  0.0770 -0.5845
   7323SM  H17G 9645   6.364   2.280  15.266 -2.2947  1.0552  1.1998
   7323SM  C18F 9646   6.224   2.195  15.139  0.3109  0.2280 -0.1647
   7323SM  H18F 9647   6.133   2.243  15.182  0.4122 -0.7921  1.2551
   7323SM  H18G 9648   6.182   2.099  15.102 -0.1510  0.4717 -0.2897
   7323SM  C19F 9649   6.295   2.270  15.032 -0.0189 -0.3075 -0.2088
   7323SM  H19F 9650   6.392   2.220  15.007 -0.0790 -0.5066 -0.0531
   7323SM  H19G 9651   6.315   2.371  15.073 -0.7645 -0.1034 -0.3449
   7323SM  C20F 9652   6.218   2.293  14.911 -0.4236 -0.0805 -0.0886
   7323SM  H20F 9653   6.127   2.345  14.946 -0.8221 -1.2645  0.6958
   7323SM  H20G 9654   6.186   2.198  14.863  1.0210 -0.1918 -0.9071
   7323SM  C21F 9655   6.295   2.392  14.822  0.7669 -0.7511 -0.2856
   7323SM  H21F 9656   6.346   2.343  14.737  1.0251 -1.1141  0.0729
   7323SM  H21G 9657   6.372   2.439  14.887 -1.4068 -2.2587  3.7729
   7323SM  C22F 9658   6.200   2.495  14.762 -0.1373 -0.4237  0.4667
   7323SM  H22F 9659   6.169   2.558  14.849  2.0405  0.5260  0.6126
   7323SM  H22G 9660   6.124   2.439  14.704  2.4326 -3.2823 -0.4228
   7323SM  C23F 9661   6.272   2.586  14.662  0.2970 -0.1249  0.1601
   7323SM  H23F 9662   6.305   2.511  14.587  0.8347  0.6936 -0.4348
   7323SM  H23G 9663   6.360   2.633  14.711  0.4233  0.1143 -0.2943
   7323SM  H23H 9664   6.201   2.658  14.616 -0.3959 -0.3437  0.8533
   7423SM     N 9665   3.355   4.500  17.852  1.1353 -0.5184  0.0407
   7423SM   C15 9666   3.409   4.406  17.747  0.2398 -0.1487 -0.0825
   7423SM  H15A 9667   3.422   4.308  17.789  0.9756 -0.0691 -0.1138
   7423SM  H15B 9668   3.504   4.435  17.703  0.4700  1.2422  1.2524
   7423SM  H15C 9669   3.339   4.390  17.666  3.1467  0.1745 -2.8658
   7423SM   C14 9670   3.245   4.428  17.918 -0.3147  0.2112 -0.0195
   7423SM  H14A 9671   3.197   4.486  17.996  1.4957 -0.3760  1.6063
   7423SM  H14B 9672   3.269   4.325  17.942 -1.3400 -0.4738 -1.7155
   7423SM  H14C 9673   3.169   4.422  17.842 -1.1614 -0.0684  0.8372
   7423SM   C13 9674   3.469   4.517  17.952  0.7079 -0.1920 -0.4011
   7423SM  H13A 9675   3.443   4.584  18.033 -1.6528  0.8566 -1.8934
   7423SM  H13B 9676   3.561   4.552  17.909  0.8103 -0.4281 -0.3771
   7423SM  H13C 9677   3.489   4.423  18.002 -2.5911 -0.6038  0.3920
   7423SM   C12 9678   3.312   4.639  17.796  0.1710  0.5353 -0.1840
   7423SM  H12A 9679   3.394   4.707  17.783 -0.5369  1.5860  0.6894
   7423SM  H12B 9680   3.249   4.686  17.870 -1.3441  3.0693 -2.8897
   7423SM   C11 9681   3.208   4.634  17.684  0.0718 -0.4357  0.7679
   7423SM  H11A 9682   3.269   4.607  17.595 -0.6608 -0.1454  0.1650
   7423SM  H11B 9683   3.179   4.736  17.653  0.0584 -0.9893 -1.1816
   7423SM     P 9684   2.954   4.586  17.673 -0.1549  0.4818  0.3179
   7423SM   O13 9685   2.868   4.468  17.660 -0.3824 -0.1331  0.4748
   7423SM   O14 9686   2.914   4.683  17.780 -0.1971 -0.0561 -0.0002
   7423SM   O11 9687   2.954   4.653  17.533  0.7335  0.4839  0.2925
   7423SM   O12 9688   3.101   4.538  17.706  0.1149 -0.0780 -0.0287
   7423SM   C1S 9689   3.003   4.577  17.422  0.0827  0.1371  0.2533
   7423SM   H1S 9690   2.959   4.474  17.429  0.2538  0.2011  4.5229
   7423SM   H1T 9691   3.113   4.564  17.424  0.1133  0.4489  0.8306
   7423SM    NF 9692   2.984   4.534  17.168  0.1857  0.1347  0.0634
   7423SM   HNF 9693   3.044   4.579  17.102  0.0719  2.0844  1.2097
   7423SM   C2S 9694   2.954   4.621  17.278  0.0089  0.1444 -0.9503
   7423SM   H2S 9695   2.844   4.621  17.292  0.2564  2.3011  1.7967
   7423SM   C3S 9696   2.987   4.772  17.255 -1.3577  0.1015 -0.4587
   7423SM   H3S 9697   3.096   4.772  17.234 -1.0110 -2.5665  1.0047
   7423SM    O3 9698   2.957   4.872  17.355 -0.7784 -0.1453  0.0328
   7423SM   HO3 9699   2.935   4.816  17.429 -0.7443 -0.9166 -0.5296
   7423SM   C4S 9700   2.913   4.803  17.119 -0.3904 -0.6592 -0.3185
   7423SM   H4S 9701   2.973   4.789  17.028 -0.9823 -0.9031 -0.6760
   7423SM   C5S 9702   2.790   4.863  17.120 -0.8579 -0.6293  0.5810
   7423SM   H5S 9703   2.746   4.898  17.214 -0.8289 -0.8462  0.6765
   7423SM   C6S 9704   2.714   4.896  16.994  0.4887  0.2185  0.3408
   7423SM   H6S 9705   2.675   5.000  16.999 -1.2060 -0.2273 -1.9376
   7423SM   H6T 9706   2.634   4.819  16.990 -1.1101  1.8215  0.4980
   7423SM   C7S 9707   2.779   4.891  16.856 -0.1486  0.2984  0.0198
   7423SM   H7S 9708   2.808   4.786  16.836 -2.9851 -0.9749  2.0560
   7423SM   H7T 9709   2.869   4.956  16.856  1.7434 -2.1290 -1.3123
   7423SM   C8S 9710   2.685   4.936  16.746 -0.4973  0.1362 -0.1017
   7423SM   H8S 9711   2.695   5.046  16.743  1.4563 -0.0200 -0.2365
   7423SM   H8T 9712   2.583   4.894  16.763 -0.1731 -0.7497 -0.3030
   7423SM   C9S 9713   2.724   4.888  16.605 -0.0788  0.0084  0.8629
   7423SM   H9S 9714   2.720   4.777  16.593 -1.2209  0.2075 -1.0469
   7423SM   H9T 9715   2.832   4.907  16.588 -0.0430 -1.6669 -1.2223
   7423SM  C10S 9716   2.630   4.957  16.504  0.3390  0.4459 -0.2037
   7423SM  H10S 9717   2.643   5.067  16.495 -0.3980  0.5756  0.2823
   7423SM  H10T 9718   2.525   4.942  16.535  0.2592  0.5619 -0.4160
   7423SM  C11S 9719   2.646   4.907  16.360  0.7019  0.2878 -0.2871
   7423SM  H11S 9720   2.609   4.802  16.373  0.9135  0.2023 -0.3662
   7423SM  H11T 9721   2.753   4.904  16.332  0.9239 -1.6465  0.5914
   7423SM  C12S 9722   2.572   4.993  16.261  0.1801 -0.2245  0.5307
   7423SM  H12S 9723   2.607   5.098  16.273 -0.2682 -0.2788  2.6316
   7423SM  H12T 9724   2.466   4.974  16.286  0.9768 -3.4133  1.9525
   7423SM  C13S 9725   2.601   4.944  16.117  0.2521 -0.4256  0.3960
   7423SM  H13S 9726   2.531   4.867  16.079  0.9274  0.0768 -2.0676
   7423SM  H13T 9727   2.708   4.916  16.100  0.0909  0.4484 -2.8192
   7423SM  C14S 9728   2.601   5.063  16.014  0.0904 -0.5481 -0.4442
   7423SM  H14S 9729   2.674   5.138  16.051 -1.2182 -0.5608  2.4669
   7423SM  H14T 9730   2.502   5.111  16.026  1.1928  2.2425 -1.7282
   7423SM  C15S 9731   2.631   5.029  15.870  0.5492  0.2390 -0.1741
   7423SM  H15S 9732   2.560   4.951  15.838  0.8931 -0.7631  1.3979
   7423SM  H15T 9733   2.737   4.998  15.861  0.5669  0.4551 -0.7257
   7423SM  C16S 9734   2.615   5.147  15.773  0.9487  0.2038  0.4844
   7423SM  H16S 9735   2.689   5.226  15.801  0.3272  0.5050  1.3148
   7423SM  H16T 9736   2.516   5.196  15.788  0.5375  0.2373 -1.8527
   7423SM  C17S 9737   2.612   5.103  15.624  0.1165 -0.1189  0.3661
   7423SM  H17S 9738   2.535   5.028  15.595 -0.0904 -0.3044  1.3471
   7423SM  H17T 9739   2.713   5.073  15.589  0.4137  1.6026 -0.4093
   7423SM  C18S 9740   2.584   5.229  15.535  0.1851 -0.2093 -0.6074
   7423SM  H18S 9741   2.494   5.282  15.574  0.2024 -0.2683 -0.4853
   7423SM  H18T 9742   2.552   5.192  15.436 -1.3879 -0.8512  0.1131
   7423SM  H18U 9743   2.665   5.304  15.527 -0.3756  0.3454 -1.2657
   7423SM   C1F 9744   2.944   4.400  17.161 -0.0922 -0.4826 -0.1056
   7423SM    OF 9745   2.877   4.353  17.252  0.1862  0.2251 -0.3364
   7423SM   C2F 9746   2.988   4.326  17.038  0.2167  0.1625 -0.3975
   7423SM   H2F 9747   3.028   4.228  17.074  1.8729  0.8941 -0.1661
   7423SM   H2G 9748   3.078   4.369  16.989 -0.2213  0.7291 -0.7174
   7423SM   C3F 9749   2.875   4.298  16.933 -0.7217 -0.4769 -0.0889
   7423SM   H3F 9750   2.829   4.397  16.915  0.2062 -0.1871 -0.9995
   7423SM   H3G 9751   2.797   4.235  16.981  0.1950 -0.1555  1.9513
   7423SM   C4F 9752   2.922   4.248  16.798 -0.6521  0.0926  0.2260
   7423SM   H4F 9753   2.978   4.157  16.828 -0.8555 -0.6270 -1.4365
   7423SM   H4G 9754   2.996   4.322  16.758 -1.0199 -0.1297 -0.9135
   7423SM   C5F 9755   2.817   4.219  16.687  0.0195  0.0590 -0.2970
   7423SM   H5F 9756   2.754   4.309  16.671 -1.5825 -0.8732  0.5199
   7423SM   H5G 9757   2.753   4.132  16.712  0.9091 -1.7838 -3.7776
   7423SM   C6F 9758   2.885   4.182  16.558  0.8356 -0.4647  0.0044
   7423SM   H6F 9759   2.929   4.081  16.572 -0.9695 -1.3807 -0.5624
   7423SM   H6G 9760   2.972   4.248  16.536  0.3894  0.5242  1.1187
   7423SM   C7F 9761   2.799   4.192  16.425  0.1439 -0.2112  1.2024
   7423SM   H7F 9762   2.753   4.293  16.424  0.1267 -0.1974 -1.1055
   7423SM   H7G 9763   2.714   4.120  16.433  0.8736 -1.2677 -0.2422
   7423SM   C8F 9764   2.876   4.177  16.289 -0.3644  0.5207 -0.2248
   7423SM   H8F 9765   2.929   4.081  16.272  0.6558  1.0798 -0.3139
   7423SM   H8G 9766   2.960   4.250  16.291 -0.3160  0.5462 -2.0654
   7423SM   C9F 9767   2.784   4.195  16.170 -0.0329 -0.6377 -0.2936
   7423SM   H9F 9768   2.714   4.281  16.177  0.7369  0.2177 -2.4194
   7423SM   H9G 9769   2.721   4.104  16.164 -0.7518 -0.0626 -2.0780
   7423SM  C10F 9770   2.866   4.200  16.040 -0.1889  0.3494 -0.6733
   7423SM  H10F 9771   2.927   4.109  16.025 -0.2541 -0.0403  1.2078
   7423SM  H10G 9772   2.936   4.284  16.059 -0.9844  0.5483  1.7088
   7423SM  C11F 9773   2.772   4.223  15.926 -0.0434 -0.0609 -0.2670
   7423SM  H11F 9774   2.739   4.327  15.949 -1.4597 -0.8175  1.3523
   7423SM  H11G 9775   2.684   4.155  15.929  1.0657 -1.5559 -0.3687
   7423SM  C12F 9776   2.836   4.222  15.790  0.2478 -0.1731  0.1295
   7423SM  H12F 9777   2.867   4.121  15.756  0.0827 -0.2123  0.0906
   7423SM  H12G 9778   2.928   4.284  15.789 -0.3333  0.8217 -2.9163
   7423SM  C13F 9779   2.753   4.283  15.677  0.2544 -0.3613  0.0941
   7423SM  H13F 9780   2.753   4.392  15.697  1.2095 -0.7890  2.7927
   7423SM  H13G 9781   2.653   4.235  15.677  1.6620 -3.5980  1.8976
   7423SM  C14F 9782   2.799   4.270  15.530  0.2627  0.1521  0.1289
   7423SM  H14F 9783   2.823   4.168  15.493  0.6954  0.8998 -1.7718
   7423SM  H14G 9784   2.900   4.316  15.541 -0.1265  0.6314  2.2620
   7423SM  C15F 9785   2.710   4.344  15.435  0.6664  0.1417  0.6449
   7423SM  H15F 9786   2.761   4.367  15.339 -0.3053  1.2514  0.3781
   7423SM  H15G 9787   2.671   4.442  15.469  2.4060  1.1755 -0.1699
   7423SM  C16F 9788   2.575   4.273  15.417 -0.4284 -0.5033  0.6339
   7423SM  H16F 9789   2.516   4.325  15.339 -0.4231 -0.7998  0.4307
   7423SM  H16G 9790   2.524   4.284  15.515 -0.0650 -0.4022  0.8148
   7423SM  C17F 9791   2.581   4.122  15.382  0.2548  0.7598 -0.1538
   7423SM  H17F 9792   2.629   4.077  15.472  2.6498  1.9754 -0.7208
   7423SM  H17G 9793   2.653   4.112  15.298  1.8333  0.1220  1.2135
   7423SM  C18F 9794   2.455   4.065  15.337  0.5719  0.4727  0.3461
   7423SM  H18F 9795   2.418   4.092  15.236 -0.5004  1.8896  1.0764
   7423SM  H18G 9796   2.371   4.104  15.400 -0.3066  1.7693 -1.5333
   7423SM  C19F 9797   2.445   3.911  15.344  0.5663 -0.0483 -0.0292
   7423SM  H19F 9798   2.495   3.880  15.437  1.5790  0.7505 -0.2952
   7423SM  H19G 9799   2.495   3.870  15.254  1.4446  3.4661 -1.2919
   7423SM  C20F 9800   2.291   3.873  15.347 -0.2906  0.3708 -0.4658
   7423SM  H20F 9801   2.239   3.924  15.263 -1.2092 -0.8153 -0.6480
   7423SM  H20G 9802   2.240   3.894  15.444  1.1912 -2.5105  1.0812
   7423SM  C21F 9803   2.278   3.723  15.309  0.0800 -0.1904 -0.2979
   7423SM  H21F 9804   2.282   3.662  15.402  0.4229  0.6627  0.2620
   7423SM  H21G 9805   2.355   3.692  15.236  4.2830  3.7275  1.9774
   7423SM  C22F 9806   2.138   3.692  15.252 -0.4947  0.2828  0.4581
   7423SM  H22F 9807   2.055   3.734  15.314 -1.7775  0.5933 -1.3803
   7423SM  H22G 9808   2.117   3.583  15.243  1.7463 -0.0808 -1.0734
   7423SM  C23F 9809   2.116   3.749  15.106 -0.3827  0.2112  0.1767
   7423SM  H23F 9810   2.166   3.678  15.037 -0.4206 -0.7372  1.1112
   7423SM  H23G 9811   2.162   3.850  15.098 -0.0825  0.0822  0.2909
   7423SM  H23H 9812   2.006   3.756  15.088 -0.7472 -0.6394  1.9432
   7523SM     N 9813   1.374   5.783  17.903  0.4997  0.2510 -1.0186
   7523SM   C15 9814   1.355   5.922  17.835  0.4397 -0.1252  0.3842
   7523SM  H15A 9815   1.268   5.915  17.771  1.3126  1.1753 -1.0215
   7523SM  H15B 9816   1.431   5.954  17.765  0.9399 -0.3683  0.8067
   7523SM  H15C 9817   1.349   5.996  17.913  0.0559 -1.0090  1.2079
   7523SM   C14 9818   1.508   5.792  17.976  0.9656 -0.1022  0.0184
   7523SM  H14A 9819   1.521   5.877  18.041  0.0993  0.2408 -0.2492
   7523SM  H14B 9820   1.582   5.817  17.901 -0.4653  1.1919 -1.0143
   7523SM  H14C 9821   1.526   5.697  18.025  0.1151  0.0302  0.6008
   7523SM   C13 9822   1.259   5.774  18.000  0.6033 -0.1920  0.6727
   7523SM  H13A 9823   1.260   5.679  18.052  1.8714 -0.8638 -0.5047
   7523SM  H13B 9824   1.164   5.779  17.948  1.6949  1.0301 -1.3084
   7523SM  H13C 9825   1.256   5.849  18.078  0.4805  1.5015 -0.8954
   7523SM   C12 9826   1.382   5.665  17.803  0.0354 -0.3406 -0.3736
   7523SM  H12A 9827   1.284   5.659  17.758 -0.0697  1.1507 -0.4124
   7523SM  H12B 9828   1.396   5.573  17.858  0.5514  0.4986  0.9627
   7523SM   C11 9829   1.490   5.673  17.695 -0.1949 -0.1216 -0.3058
   7523SM  H11A 9830   1.512   5.775  17.659  2.6539 -1.0221 -1.4126
   7523SM  H11B 9831   1.469   5.628  17.595  1.7243  2.2210 -1.8872
   7523SM     P 9832   1.639   5.471  17.777  0.2889  0.1691 -0.1370
   7523SM   O13 9833   1.770   5.466  17.854 -0.0821 -0.4668  0.3045
   7523SM   O14 9834   1.520   5.405  17.848  0.2755  0.1412  0.2050
   7523SM   O11 9835   1.671   5.398  17.639 -0.2107 -0.1538 -0.4633
   7523SM   O12 9836   1.608   5.622  17.751  0.0689  0.9453  0.1779
   7523SM   C1S 9837   1.774   5.443  17.547  0.3832  0.1924 -0.3108
   7523SM   H1S 9838   1.863   5.382  17.574  0.6537  0.0018 -1.5484
   7523SM   H1T 9839   1.788   5.552  17.557  0.0852  0.0392  2.3889
   7523SM    NF 9840   1.849   5.460  17.310  0.4049  0.1301  0.4476
   7523SM   HNF 9841   1.834   5.531  17.241 -0.8108 -0.9498 -0.4282
   7523SM   C2S 9842   1.742   5.421  17.393  0.0930  0.4724 -0.2308
   7523SM   H2S 9843   1.730   5.311  17.378 -0.8093  0.5520 -0.1920
   7523SM   C3S 9844   1.602   5.491  17.364 -0.0778 -0.2468  0.0473
   7523SM   H3S 9845   1.604   5.586  17.422 -1.9873 -0.4560  0.5297
   7523SM    O3 9846   1.488   5.424  17.429  0.3839  0.1204  0.4172
   7523SM   HO3 9847   1.535   5.363  17.487 -0.4027 -1.9144 -0.9869
   7523SM   C4S 9848   1.587   5.507  17.214  0.1167  0.1223 -0.5785
   7523SM   H4S 9849   1.645   5.591  17.172 -0.9150  0.3535 -1.6075
   7523SM   C5S 9850   1.521   5.440  17.116 -0.2672 -0.5681  0.4798
   7523SM   H5S 9851   1.456   5.361  17.157 -0.5485  0.1858  1.5145
   7523SM   C6S 9852   1.521   5.479  16.970  0.5338  0.2570 -0.2901
   7523SM   H6S 9853   1.513   5.390  16.904  1.0541  1.4522 -2.0213
   7523SM   H6T 9854   1.613   5.532  16.939  0.7634 -0.8694 -1.6410
   7523SM   C7S 9855   1.395   5.566  16.927 -0.2176  0.1266  0.6054
   7523SM   H7S 9856   1.402   5.663  16.981  0.9662 -0.5887  1.7903
   7523SM   H7T 9857   1.301   5.515  16.956  0.1712 -0.3818  0.9722
   7523SM   C8S 9858   1.387   5.583  16.775  0.0163  1.0785 -0.0832
   7523SM   H8S 9859   1.489   5.588  16.731  0.1128 -0.1410 -0.0459
   7523SM   H8T 9860   1.328   5.672  16.747 -0.3205  0.5942 -0.9473
   7523SM   C9S 9861   1.320   5.461  16.706 -0.3559 -0.3168  0.5617
   7523SM   H9S 9862   1.213   5.464  16.734 -0.2100  1.1494  1.0432
   7523SM   H9T 9863   1.368   5.365  16.733 -0.0444 -0.0453  0.9781
   7523SM  C10S 9864   1.322   5.462  16.553 -1.1275  0.1442 -0.3980
   7523SM  H10S 9865   1.431   5.461  16.533 -0.6257  0.3021  2.0072
   7523SM  H10T 9866   1.283   5.562  16.524 -0.1026  1.2346  1.7480
   7523SM  C11S 9867   1.238   5.355  16.486 -0.1395  0.0870 -0.4638
   7523SM  H11S 9868   1.140   5.372  16.535  0.0225 -0.5682  0.0946
   7523SM  H11T 9869   1.282   5.255  16.505  2.2538  1.0870 -0.3110
   7523SM  C12S 9870   1.205   5.372  16.334  0.0817 -0.3992 -0.0513
   7523SM  H12S 9871   1.296   5.385  16.272 -0.6559  0.9972 -0.8977
   7523SM  H12T 9872   1.156   5.472  16.330 -0.5001 -0.7174 -1.4423
   7523SM  C13S 9873   1.105   5.265  16.289  0.2486 -0.2932  0.5269
   7523SM  H13S 9874   1.003   5.286  16.330  0.3344 -0.3201  0.7543
   7523SM  H13T 9875   1.127   5.167  16.335 -1.1629  0.3201  2.6872
   7523SM  C14S 9876   1.095   5.253  16.135 -0.2423  0.1217  0.0437
   7523SM  H14S 9877   1.053   5.345  16.091 -1.8139 -0.5420  0.0957
   7523SM  H14T 9878   1.028   5.171  16.101  1.4974 -0.8754 -1.1337
   7523SM  C15S 9879   1.234   5.219  16.064  0.2710 -0.5169 -0.4057
   7523SM  H15S 9880   1.286   5.140  16.123  3.1201  0.8081 -0.9898
   7523SM  H15T 9881   1.296   5.311  16.061 -0.7126  0.1912  0.2802
   7523SM  C16S 9882   1.218   5.163  15.929  0.1389  0.2102  0.6947
   7523SM  H16S 9883   1.139   5.085  15.926 -0.2186  0.5984 -0.6220
   7523SM  H16T 9884   1.315   5.118  15.901 -0.5031 -1.2090  0.6547
   7523SM  C17S 9885   1.188   5.262  15.815  0.0671 -0.0108  0.4196
   7523SM  H17S 9886   1.238   5.358  15.839 -1.5798  1.2167 -0.8179
   7523SM  H17T 9887   1.080   5.289  15.805  0.7045  2.0921 -1.3923
   7523SM  C18S 9888   1.220   5.207  15.678 -0.4185  0.6204  0.3936
   7523SM  H18S 9889   1.133   5.159  15.629 -2.1922  1.6743  2.3340
   7523SM  H18T 9890   1.304   5.135  15.687  0.1764  0.8990 -2.0668
   7523SM  H18U 9891   1.253   5.285  15.606 -0.4573  0.0269 -0.2775
   7523SM   C1F 9892   1.968   5.397  17.302 -0.3080 -0.8268 -0.6552
   7523SM    OF 9893   1.993   5.303  17.376 -0.1762  0.2275  0.2560
   7523SM   C2F 9894   2.054   5.451  17.200  0.1695  0.4066  0.4391
   7523SM   H2F 9895   2.112   5.371  17.149 -0.5526 -0.4155  0.8790
   7523SM   H2G 9896   2.132   5.512  17.250 -0.5278  0.3503  1.6378
   7523SM   C3F 9897   1.981   5.514  17.083 -0.0193 -0.2963 -0.7059
   7523SM   H3F 9898   1.921   5.600  17.120  1.8346  0.2242  1.2990
   7523SM   H3G 9899   1.908   5.442  17.040  0.4345 -1.7223  0.8228
   7523SM   C4F 9900   2.081   5.564  16.971 -0.0631  0.0936 -0.1025
   7523SM   H4F 9901   2.175   5.506  16.984 -0.7587 -0.8039  1.2089
   7523SM   H4G 9902   2.093   5.672  16.994  1.1346 -0.2744  1.1391
   7523SM   C5F 9903   2.015   5.551  16.834  0.6396  0.5281  0.2759
   7523SM   H5F 9904   1.913   5.594  16.843  0.2408 -0.2463 -0.4379
   7523SM   H5G 9905   1.994   5.442  16.820  0.4765  0.2745  2.1921
   7523SM   C6F 9906   2.088   5.598  16.709 -0.4457  0.4495 -0.1973
   7523SM   H6F 9907   2.185   5.544  16.715 -0.9198 -0.4972 -0.7244
   7523SM   H6G 9908   2.103   5.707  16.697  1.2018  0.3470  0.7488
   7523SM   C7F 9909   2.026   5.550  16.574 -0.4585 -0.1026 -0.2989
   7523SM   H7F 9910   1.924   5.592  16.589  0.0048  2.2377 -2.7969
   7523SM   H7G 9911   2.025   5.439  16.567 -0.7031 -0.1379  0.2713
   7523SM   C8F 9912   2.092   5.616  16.450  0.0033  0.3447 -0.4951
   7523SM   H8F 9913   2.201   5.608  16.470  0.0299  1.0792 -0.2900
   7523SM   H8G 9914   2.077   5.726  16.456 -0.3655  0.2479  0.7817
   7523SM   C9F 9915   2.039   5.547  16.325 -0.9399 -1.0994  0.1570
   7523SM   H9F 9916   1.930   5.531  16.337 -1.5203  1.7520 -0.7698
   7523SM   H9G 9917   2.083   5.445  16.321 -1.1983 -1.1547 -2.6105
   7523SM  C10F 9918   2.078   5.617  16.195  0.0184  0.6685  0.1413
   7523SM  H10F 9919   2.185   5.605  16.171 -0.3396 -1.3489 -0.5922
   7523SM  H10G 9920   2.042   5.719  16.224  1.7164  1.0751  0.9389
   7523SM  C11F 9921   1.986   5.562  16.084 -0.0817  0.4242 -0.0170
   7523SM  H11F 9922   1.877   5.568  16.107 -1.0302 -3.7339 -2.3764
   7523SM  H11G 9923   2.008   5.454  16.079 -1.8971 -0.1155  2.0373
   7523SM  C12F 9924   1.994   5.621  15.945 -0.1313 -0.0531 -0.0450
   7523SM  H12F 9925   2.100   5.633  15.912 -0.3928  1.0211 -0.5496
   7523SM  H12G 9926   1.956   5.725  15.950  2.5590  1.0789 -1.0085
   7523SM  C13F 9927   1.917   5.540  15.840 -0.4698  0.8827  0.3705
   7523SM  H13F 9928   1.826   5.500  15.891 -0.5596 -0.0019 -0.4652
   7523SM  H13G 9929   1.975   5.447  15.821 -0.7189  0.2706  2.3290
   7523SM  C14F 9930   1.879   5.607  15.706  0.3382 -0.2684 -0.0345
   7523SM  H14F 9931   1.815   5.697  15.719 -0.3883 -0.7654 -0.0706
   7523SM  H14G 9932   1.829   5.542  15.631 -0.7800 -0.4162  0.8147
   7523SM  C15F 9933   1.999   5.669  15.631 -0.1587  0.1731 -0.4774
   7523SM  H15F 9934   2.057   5.585  15.587 -0.8275 -0.1329 -0.7863
   7523SM  H15G 9935   2.060   5.730  15.700 -1.2235  0.8497 -0.1050
   7523SM  C16F 9936   1.945   5.755  15.512  0.0835  0.3466  0.6629
   7523SM  H16F 9937   2.022   5.814  15.458 -1.2629  3.5856  1.9660
   7523SM  H16G 9938   1.881   5.829  15.566  0.9657  1.6851 -0.0675
   7523SM  C17F 9939   1.856   5.689  15.406 -0.0322  0.4681  0.1618
   7523SM  H17F 9940   1.850   5.757  15.318 -1.6433  0.0955 -0.0530
   7523SM  H17G 9941   1.755   5.667  15.446 -0.4280 -0.5849 -1.3163
   7523SM  C18F 9942   1.912   5.556  15.343 -0.6110  0.4228 -0.1716
   7523SM  H18F 9943   1.829   5.502  15.294 -0.4890  0.9430 -0.9741
   7523SM  H18G 9944   1.933   5.488  15.428 -1.6353  2.3539  1.7173
   7523SM  C19F 9945   2.032   5.579  15.254  0.2376  0.1305 -0.7618
   7523SM  H19F 9946   2.107   5.498  15.266 -0.7958 -0.7392  0.0143
   7523SM  H19G 9947   2.084   5.673  15.283 -0.2045 -0.8389  4.0523
   7523SM  C20F 9948   1.992   5.588  15.108 -0.3404 -0.4375  0.1677
   7523SM  H20F 9949   1.903   5.655  15.111 -0.0121 -0.0237  1.9162
   7523SM  H20G 9950   1.966   5.485  15.076 -1.4476  0.4187 -1.9229
   7523SM  C21F 9951   2.106   5.636  15.022  0.8460 -0.4830 -0.9665
   7523SM  H21F 9952   2.194   5.572  15.042  1.5322  0.7831  0.1898
   7523SM  H21G 9953   2.131   5.734  15.067 -1.4753 -0.1065 -0.3813
   7523SM  C22F 9954   2.082   5.654  14.869 -0.3422  0.3549 -0.1267
   7523SM  H22F 9955   2.173   5.709  14.837 -2.3454  2.5099 -2.6140
   7523SM  H22G 9956   2.002   5.728  14.845  1.5663  2.1443 -1.2813
   7523SM  C23F 9957   2.078   5.521  14.796 -0.2422  0.7555  0.3787
   7523SM  H23F 9958   1.998   5.454  14.834  1.3979 -0.6014  1.6119
   7523SM  H23G 9959   2.174   5.467  14.810 -0.9188 -0.7422 -0.5363
   7523SM  H23H 9960   2.072   5.534  14.686  4.7095  0.9303 -0.1142
   7623SM     N 9961   3.121   5.472  17.789  1.1423 -0.4477  0.0851
   7623SM   C15 9962   3.230   5.491  17.681 -0.3251 -0.6806 -0.4693
   7623SM  H15A 9963   3.294   5.577  17.693 -0.9836 -0.1756 -0.5268
   7623SM  H15B 9964   3.183   5.497  17.584  1.1448 -2.1898 -1.3227
   7623SM  H15C 9965   3.296   5.406  17.695 -0.0818 -0.3049  0.7364
   7623SM   C14 9966   3.035   5.595  17.780 -0.6835 -0.0354 -0.1940
   7623SM  H14A 9967   2.979   5.602  17.688 -1.1751 -1.1849 -0.0067
   7623SM  H14B 9968   3.083   5.690  17.796  1.2874 -0.8870 -0.6750
   7623SM  H14C 9969   2.959   5.579  17.855  0.3846 -1.7870  0.5766
   7623SM   C13 9970   3.038   5.355  17.764 -0.2202 -0.1477 -0.2695
   7623SM  H13A 9971   2.973   5.349  17.850  0.4350 -0.1650  0.2289
   7623SM  H13B 9972   3.097   5.266  17.748 -1.7426 -0.9481 -1.7499
   7623SM  H13C 9973   2.983   5.358  17.671 -0.9404 -0.2183  0.1497
   7623SM   C12 9974   3.192   5.447  17.916 -0.0071  0.0251  0.7580
   7623SM  H12A 9975   3.123   5.438  17.999 -2.4133  0.0959 -1.1105
   7623SM  H12B 9976   3.244   5.539  17.938 -1.6607  1.4162 -0.7891
   7623SM   C11 9977   3.307   5.342  17.929  0.1634  0.1247 -0.0326
   7623SM  H11A 9978   3.350   5.353  18.030 -0.4604  0.5557  0.1911
   7623SM  H11B 9979   3.388   5.363  17.856  0.5783  2.0211  0.9181
   7623SM     P 9980   3.348   5.089  17.896 -0.0189  0.3793  0.0135
   7623SM   O13 9981   3.474   5.131  17.945  0.2805  0.0123 -0.1578
   7623SM   O14 9982   3.282   4.974  17.966 -0.1691  0.6200 -0.2612
   7623SM   O11 9983   3.361   5.057  17.740 -0.1436 -0.4792 -0.6405
   7623SM   O12 9984   3.245   5.215  17.903 -0.3896 -0.1057 -0.4765
   7623SM   C1S 9985   3.251   5.080  17.653  0.1052 -0.5349  0.8457
   7623SM   H1S 9986   3.221   5.187  17.657  1.1665 -0.2613  2.9847
   7623SM   H1T 9987   3.164   5.018  17.683  0.4773 -0.7790  1.4334
   7623SM    NF 9988   3.170   5.079  17.420  0.0005  0.5175  0.1644
   7623SM   HNF 9989   3.110   5.005  17.391  1.0291 -0.1219 -0.3639
   7623SM   C2S 9990   3.289   5.058  17.501 -0.2449 -0.0168  0.6329
   7623SM   H2S 9991   3.366   5.138  17.487  0.1538 -0.6415 -1.1351
   7623SM   C3S 9992   3.358   4.922  17.473 -0.1745  0.4031  0.1392
   7623SM   H3S 9993   3.275   4.852  17.451 -1.8285  2.2460  0.2274
   7623SM    O3 9994   3.431   4.871  17.577  0.2044  0.3322 -0.2675
   7623SM   HO3 9995   3.403   4.926  17.651  0.1586  2.5568 -1.8424
   7623SM   C4S 9996   3.441   4.926  17.347 -0.9710  0.1104  0.7472
   7623SM   H4S 9997   3.522   5.001  17.351 -1.4324  0.5699  1.9657
   7623SM   C5S 9998   3.425   4.856  17.233  0.4941  0.3523  0.3031
   7623SM   H5S 9999   3.346   4.779  17.230 -0.5955  1.3575  1.9953
   7623SM   C6S10000   3.506   4.859  17.111  0.3491  0.0427  0.2695
   7623SM   H6S10001   3.447   4.867  17.017  1.2944 -0.0960 -0.3503
   7623SM   H6T10002   3.550   4.758  17.108 -0.8828 -0.5174  0.4546
   7623SM   C7S10003   3.619   4.966  17.107 -0.5393  0.4554 -0.6841
   7623SM   H7S10004   3.689   4.958  17.193 -0.7499 -0.3466 -0.5763
   7623SM   H7T10005   3.573   5.067  17.116  0.4852  0.8175  0.9405
   7623SM   C8S10006   3.710   4.973  16.974  0.8728 -0.0554 -0.1122
   7623SM   H8S10007   3.786   4.892  16.970  0.6925 -0.3517  1.7189
   7623SM   H8T10008   3.771   5.066  16.974  0.1296  0.4601  0.9821
   7623SM   C9S10009   3.626   4.972  16.846 -0.4468  0.3546  0.3647
   7623SM   H9S10010   3.537   5.037  16.846 -0.5248  0.2926 -1.5409
   7623SM   H9T10011   3.586   4.868  16.844 -1.5214  0.7719 -0.7869
   7623SM  C10S10012   3.704   5.003  16.716  0.1319 -0.1696 -0.1421
   7623SM  H10S10013   3.803   4.955  16.732  0.1187 -0.2133 -0.1950
   7623SM  H10T10014   3.728   5.111  16.702 -0.2023 -0.0463  0.2222
   7623SM  C11S10015   3.637   4.934  16.595  0.2830  0.0221  0.0811
   7623SM  H11S10016   3.532   4.966  16.577  0.2585 -1.7443 -3.8893
   7623SM  H11T10017   3.638   4.826  16.618 -2.0619 -0.2829 -1.0025
   7623SM  C12S10018   3.715   4.954  16.465  0.1064 -0.2267 -0.6720
   7623SM  H12S10019   3.809   4.895  16.462  0.9713  0.9724  1.1323
   7623SM  H12T10020   3.742   5.061  16.451 -1.0287  0.3070  0.9130
   7623SM  C13S10021   3.638   4.901  16.347  0.0183  1.2255  0.1075
   7623SM  H13S10022   3.540   4.953  16.343 -0.2296  0.8523  0.9917
   7623SM  H13T10023   3.612   4.797  16.378  2.3741  0.8926  1.2121
   7623SM  C14S10024   3.702   4.904  16.206 -0.2450 -0.0523 -0.1640
   7623SM  H14S10025   3.802   4.856  16.201  0.0424  0.3833  1.1422
   7623SM  H14T10026   3.719   5.012  16.185  2.3778 -0.4096 -0.1340
   7623SM  C15S10027   3.619   4.839  16.096 -0.4903 -0.0780 -0.4569
   7623SM  H15S10028   3.511   4.865  16.099 -0.5948 -0.4560 -0.8253
   7623SM  H15T10029   3.633   4.729  16.098  0.5701 -0.0985 -3.3862
   7623SM  C16S10030   3.676   4.866  15.955 -0.4304  0.0834  0.1564
   7623SM  H16S10031   3.769   4.813  15.928  0.2796  1.8246 -1.0457
   7623SM  H16T10032   3.699   4.975  15.946 -0.6045  0.2343  1.3417
   7623SM  C17S10033   3.579   4.825  15.845  0.0916 -0.3877 -0.2185
   7623SM  H17S10034   3.631   4.849  15.750 -0.4525  1.3720 -0.1149
   7623SM  H17T10035   3.484   4.881  15.862 -0.1992 -1.0673  0.4445
   7623SM  C18S10036   3.528   4.685  15.830  0.0257  1.0362 -0.0573
   7623SM  H18S10037   3.446   4.682  15.755 -1.0951 -1.1728  1.1532
   7623SM  H18T10038   3.484   4.661  15.929 -0.4781  2.4150  0.0866
   7623SM  H18U10039   3.608   4.610  15.812 -0.8560  0.0441  0.0652
   7623SM   C1F10040   3.121   5.208  17.397  0.4448  0.4658  0.1902
   7623SM    OF10041   3.197   5.304  17.399 -0.8684  0.8559  0.7612
   7623SM   C2F10042   2.972   5.225  17.366 -0.2058  0.0946 -0.0655
   7623SM   H2F10043   2.922   5.282  17.447 -0.1388 -2.2046  1.6859
   7623SM   H2G10044   2.928   5.127  17.338 -0.4725 -0.2087  1.3378
   7623SM   C3F10045   2.943   5.321  17.239 -0.1661  0.1290  0.2630
   7623SM   H3F10046   3.017   5.403  17.237  1.7418 -1.4857  1.3293
   7623SM   H3G10047   2.838   5.354  17.256 -0.0539  0.9972 -0.6203
   7623SM   C4F10048   2.952   5.247  17.105  0.7370  0.1210  0.1823
   7623SM   H4F10049   2.896   5.298  17.022 -0.1497  1.5664  1.6049
   7623SM   H4G10050   2.900   5.149  17.113 -1.4021  1.2154  0.6707
   7623SM   C5F10051   3.094   5.208  17.063 -0.2993  0.5484 -0.1095
   7623SM   H5F10052   3.161   5.151  17.131  0.8417  1.1808 -0.6707
   7623SM   H5G10053   3.147   5.305  17.057  1.9149 -0.5222  0.9881
   7623SM   C6F10054   3.104   5.127  16.934  0.5212 -0.2750 -0.3780
   7623SM   H6F10055   3.069   5.023  16.950  1.6529 -0.5180  0.7507
   7623SM   H6G10056   3.211   5.119  16.903  0.5490  0.4799 -0.4928
   7623SM   C7F10057   3.020   5.190  16.816 -0.0688 -0.1680  0.2112
   7623SM   H7F10058   3.053   5.296  16.821 -0.6756 -0.0280  2.9642
   7623SM   H7G10059   2.910   5.192  16.836  0.2826  0.0175  2.3581
   7623SM   C8F10060   3.059   5.128  16.681 -0.5795 -0.3708  0.1891
   7623SM   H8F10061   3.036   5.019  16.681 -2.5142  0.0115 -0.2479
   7623SM   H8G10062   3.165   5.135  16.646  0.3026 -2.5311  2.1801
   7623SM   C9F10063   2.981   5.192  16.564  0.4793  0.2587  0.2444
   7623SM   H9F10064   2.991   5.302  16.574 -2.2524  0.5201  1.0166
   7623SM   H9G10065   2.870   5.187  16.568  0.4262 -1.6698 -1.5174
   7623SM  C10F10066   3.022   5.142  16.428 -0.3575  0.3589  0.3494
   7623SM  H10F10067   2.991   5.036  16.435  2.2381 -0.4570  0.7391
   7623SM  H10G10068   3.131   5.144  16.406 -0.1407 -0.4166  1.2838
   7623SM  C11F10069   2.930   5.202  16.325 -0.7258 -0.0888 -0.3181
   7623SM  H11F10070   2.952   5.311  16.317 -0.6534  0.3541  3.8249
   7623SM  H11G10071   2.823   5.188  16.352 -1.4775  2.8282 -1.3627
   7623SM  C12F10072   2.955   5.145  16.180  0.2332 -0.3109  0.7291
   7623SM  H12F10073   2.856   5.127  16.132 -0.0119  2.1697  0.1814
   7623SM  H12G10074   3.004   5.045  16.179 -0.8168 -0.8402  0.6631
   7623SM  C13F10075   3.021   5.255  16.092 -0.2800 -0.1474  0.5582
   7623SM  H13F10076   3.129   5.249  16.117  0.5950 -1.8986 -2.8790
   7623SM  H13G10077   2.976   5.353  16.118  0.1142 -0.2134  1.5345
   7623SM  C14F10078   3.001   5.240  15.940  0.4699  0.0353  0.5816
   7623SM  H14F10079   2.893   5.242  15.915  0.5850  1.8514  0.1223
   7623SM  H14G10080   3.040   5.141  15.906  0.9120  0.8691 -1.5354
   7623SM  C15F10081   3.051   5.353  15.856 -0.5705  0.3367  0.0531
   7623SM  H15F10082   3.158   5.372  15.881 -0.1696  0.1718 -1.4319
   7623SM  H15G10083   2.996   5.443  15.891  1.8461  2.0408 -0.2849
   7623SM  C16F10084   3.027   5.338  15.703 -0.2433  0.2449  0.1229
   7623SM  H16F10085   3.048   5.436  15.655  0.0430 -0.8160 -2.0412
   7623SM  H16G10086   2.923   5.312  15.676  0.5367 -1.9047 -1.1151
   7623SM  C17F10087   3.100   5.226  15.637  0.4530  0.0991 -0.0214
   7623SM  H17F10088   3.137   5.152  15.711  1.5328 -0.3641 -0.9974
   7623SM  H17G10089   3.198   5.268  15.606 -0.2962  1.0124 -1.2272
   7623SM  C18F10090   3.018   5.170  15.520 -0.5826  0.4661 -0.4888
   7623SM  H18F10091   2.919   5.129  15.549 -0.7635 -0.4698 -2.3095
   7623SM  H18G10092   3.081   5.090  15.475 -0.4820 -1.5731  2.9404
   7623SM  C19F10093   2.993   5.273  15.413  0.5200  0.1181 -0.3171
   7623SM  H19F10094   3.091   5.305  15.372  0.4281  1.5320  0.5181
   7623SM  H19G10095   2.951   5.360  15.468 -1.0649 -2.1399  2.2816
   7623SM  C20F10096   2.900   5.231  15.296 -0.3904 -1.2971  0.6421
   7623SM  H20F10097   2.806   5.176  15.319 -0.9418 -0.6456 -0.0058
   7623SM  H20G10098   2.967   5.156  15.248  3.2952  0.5435  2.5362
   7623SM  C21F10099   2.874   5.347  15.195 -0.0978 -0.4982 -0.1190
   7623SM  H21F10100   2.966   5.387  15.146 -0.1702 -0.5608 -0.3074
   7623SM  H21G10101   2.833   5.433  15.251  1.1336 -0.9653  1.6111
   7623SM  C22F10102   2.772   5.307  15.088  0.0286  1.0311  0.1509
   7623SM  H22F10103   2.745   5.385  15.013  0.3268 -0.3241 -1.4197
   7623SM  H22G10104   2.681   5.260  15.130 -0.2101  1.7069  0.3959
   7623SM  C23F10105   2.833   5.195  14.996 -0.0489  0.0237  0.2131
   7623SM  H23F10106   2.849   5.095  15.042 -1.1444 -0.9422 -1.3921
   7623SM  H23G10107   2.921   5.232  14.940 -0.4826 -0.0911 -0.5562
   7623SM  H23H10108   2.756   5.160  14.924  1.5346  1.0404 -2.0707
   7723SM     N10109   2.252   2.145  17.402 -0.8352 -0.0374  0.0396
   7723SM   C1510110   2.345   2.088  17.504  0.1059  0.3568 -0.1117
   7723SM  H15A10111   2.417   2.031  17.447  0.4290  0.3436  0.3138
   7723SM  H15B10112   2.291   2.017  17.565  0.4812  0.2938  0.1468
   7723SM  H15C10113   2.387   2.169  17.562  1.4159  1.0320 -1.9036
   7723SM   C1410114   2.186   2.039  17.327 -0.1632  0.1103 -0.2062
   7723SM  H14A10115   2.265   1.990  17.272 -0.7172 -0.7037 -0.2973
   7723SM  H14B10116   2.113   2.077  17.257 -2.6001 -1.2411  1.4807
   7723SM  H14C10117   2.132   1.972  17.393 -0.0991 -1.4408 -1.6422
   7723SM   C1310118   2.154   2.238  17.466  0.0632 -0.0091  0.3539
   7723SM  H13A10119   2.084   2.189  17.533 -0.5271  0.8914  0.4220
   7723SM  H13B10120   2.090   2.286  17.393 -0.9134 -0.3303  0.9695
   7723SM  H13C10121   2.205   2.308  17.532  0.8718 -1.3660  1.2173
   7723SM   C1210122   2.343   2.237  17.309 -0.0404  0.0699  0.2665
   7723SM  H12A10123   2.391   2.318  17.364 -0.7448  0.0427  0.9435
   7723SM  H12B10124   2.274   2.291  17.246  0.9889  1.9939  0.7121
   7723SM   C1110125   2.442   2.157  17.221  0.7752  0.2078 -0.0265
   7723SM  H11A10126   2.481   2.235  17.152  2.0327  0.3928  0.8616
   7723SM  H11B10127   2.387   2.078  17.166  0.2123  1.2582 -1.0140
   7723SM     P10128   2.684   2.159  17.343 -0.1963  0.2042  0.2497
   7723SM   O1310129   2.669   2.259  17.453 -0.6964  0.1575 -0.0529
   7723SM   O1410130   2.785   2.053  17.359  0.2084 -0.4428 -0.3137
   7723SM   O1110131   2.720   2.240  17.205  0.0416 -0.1373  0.6771
   7723SM   O1210132   2.545   2.096  17.305 -0.0144 -0.1711 -0.0702
   7723SM   C1S10133   2.751   2.172  17.083 -0.3524  0.4892 -0.7245
   7723SM   H1S10134   2.655   2.126  17.051 -0.7522  0.9253 -0.1660
   7723SM   H1T10135   2.832   2.097  17.094  0.3959  1.3668 -0.1261
   7723SM    NF10136   2.853   2.193  16.856 -0.0216  0.4025 -0.0860
   7723SM   HNF10137   2.943   2.160  16.829 -1.3481 -0.6186 -3.7640
   7723SM   C2S10138   2.824   2.262  16.982  0.0108  0.3674 -0.9023
   7723SM   H2S10139   2.753   2.344  16.956 -0.3083  0.1775 -0.6302
   7723SM   C3S10140   2.948   2.330  17.054  0.1370 -0.3499 -0.4804
   7723SM   H3S10141   3.019   2.263  17.108 -0.2285 -0.2982  0.0687
   7723SM    O310142   2.908   2.422  17.159 -0.0868  0.1852 -0.6002
   7723SM   HO310143   2.812   2.421  17.167 -0.0210 -1.2661  0.3439
   7723SM   C4S10144   3.034   2.396  16.948  0.2998 -0.1334 -0.3797
   7723SM   H4S10145   3.088   2.316  16.894  1.0723 -0.6419  1.0849
   7723SM   C5S10146   3.036   2.521  16.897  0.2734  0.3557  0.0807
   7723SM   H5S10147   2.950   2.587  16.918  1.8616  2.8846 -0.8888
   7723SM   C6S10148   3.122   2.575  16.792 -0.4894 -0.1522 -0.1984
   7723SM   H6S10149   3.205   2.640  16.825  0.6156 -1.2911 -0.6498
   7723SM   H6T10150   3.072   2.645  16.722  0.5785  1.5269  0.6602
   7723SM   C7S10151   3.182   2.469  16.692  0.3951  0.2565  0.2438
   7723SM   H7S10152   3.251   2.392  16.735 -0.2530 -0.4381  0.0705
   7723SM   H7T10153   3.238   2.533  16.621 -0.8628  1.5174  0.3566
   7723SM   C8S10154   3.077   2.410  16.599  0.4014  0.1845  0.7433
   7723SM   H8S10155   3.023   2.496  16.553  0.5762 -0.2558 -0.3083
   7723SM   H8T10156   3.002   2.347  16.652 -0.5033 -1.4810 -2.2830
   7723SM   C9S10157   3.134   2.315  16.501  0.2876 -0.1061  0.4763
   7723SM   H9S10158   3.188   2.242  16.564  1.3509  1.8890  1.9881
   7723SM   H9T10159   3.215   2.372  16.451  0.6167 -0.3421  0.7375
   7723SM  C10S10160   3.044   2.263  16.384  0.2360 -0.5172 -0.3187
   7723SM  H10S10161   2.951   2.241  16.441  0.5313  2.3715  1.4734
   7723SM  H10T10162   3.095   2.170  16.350  1.1242 -0.0331 -0.3464
   7723SM  C11S10163   3.038   2.353  16.262  0.3071 -0.4840  0.8792
   7723SM  H11S10164   3.131   2.411  16.244 -0.9352  1.0321 -1.0274
   7723SM  H11T10165   2.958   2.430  16.274 -0.0757 -0.6459 -0.4866
   7723SM  C12S10166   2.998   2.276  16.129 -0.1737  0.1083 -0.3517
   7723SM  H12S10167   2.890   2.252  16.140 -0.1944 -0.0372 -0.8469
   7723SM  H12T10168   3.063   2.187  16.117  0.9063  0.8103  0.1529
   7723SM  C13S10169   3.010   2.369  16.016  0.1316  0.4387  0.2940
   7723SM  H13S10170   3.113   2.408  16.006  0.3217 -0.3613 -1.2827
   7723SM  H13T10171   2.947   2.460  16.022  1.2893  1.3067 -0.3207
   7723SM  C14S10172   2.953   2.309  15.887 -0.0714 -0.3761  0.2847
   7723SM  H14S10173   2.844   2.289  15.892  0.1276 -1.3746  0.8401
   7723SM  H14T10174   3.013   2.217  15.873 -1.4051 -1.5186  1.7012
   7723SM  C15S10175   2.967   2.396  15.758  0.0466  0.4095  0.0040
   7723SM  H15S10176   3.075   2.414  15.740 -0.6199  3.0651 -1.9311
   7723SM  H15T10177   2.923   2.495  15.780 -0.7826 -0.1270  0.8776
   7723SM  C16S10178   2.901   2.340  15.632  0.0984 -0.0423  0.1783
   7723SM  H16S10179   2.814   2.276  15.658 -1.1583  1.2106 -0.8143
   7723SM  H16T10180   2.980   2.288  15.573 -0.7324 -0.6425 -0.4257
   7723SM  C17S10181   2.843   2.449  15.532  0.1363  0.3956 -0.0343
   7723SM  H17S10182   2.932   2.507  15.500  0.1389  0.4905  0.1429
   7723SM  H17T10183   2.787   2.524  15.592 -0.9701 -1.9750  2.0949
   7723SM  C18S10184   2.774   2.394  15.404 -0.2152 -0.4940 -0.4191
   7723SM  H18S10185   2.844   2.319  15.361  1.7975  0.0465  1.6942
   7723SM  H18T10186   2.758   2.480  15.335  0.3288 -0.7274 -0.8444
   7723SM  H18U10187   2.677   2.343  15.421 -0.9506  0.3778 -1.7899
   7723SM   C1F10188   2.746   2.153  16.781 -0.0904 -0.0373  0.0164
   7723SM    OF10189   2.631   2.188  16.814  0.6974  0.0570  0.5859
   7723SM   C2F10190   2.767   2.062  16.665  0.8286  0.4614  0.6566
   7723SM   H2F10191   2.711   1.968  16.685  2.6462 -1.7121 -3.2576
   7723SM   H2G10192   2.875   2.037  16.660  0.8136  0.0988  1.7737
   7723SM   C3F10193   2.709   2.114  16.534 -0.0071 -0.3709 -0.0846
   7723SM   H3F10194   2.765   2.207  16.508 -1.0583 -0.0089 -1.1243
   7723SM   H3G10195   2.604   2.149  16.538  0.3021  0.6264 -0.3404
   7723SM   C4F10196   2.726   2.010  16.425  0.4621  0.0242 -0.3247
   7723SM   H4F10197   2.658   1.923  16.440  0.0489 -0.0124 -2.1804
   7723SM   H4G10198   2.834   1.989  16.435  0.3750  0.3054  1.7757
   7723SM   C5F10199   2.691   2.072  16.294  0.2129  0.0693 -0.1442
   7723SM   H5F10200   2.742   2.171  16.295 -0.2206  0.2888  0.7180
   7723SM   H5G10201   2.581   2.073  16.283  0.3410 -0.0033 -1.7578
   7723SM   C6F10202   2.747   1.981  16.176 -0.5972  0.4876  0.3219
   7723SM   H6F10203   2.721   1.876  16.204 -0.1011 -0.0506 -1.1522
   7723SM   H6G10204   2.857   1.977  16.183 -0.6712 -1.4393  1.2575
   7723SM   C7F10205   2.688   2.026  16.044 -0.0135 -0.1971 -0.1716
   7723SM   H7F10206   2.695   2.137  16.037  1.9500 -0.2747  0.0055
   7723SM   H7G10207   2.582   1.997  16.057  0.1997 -0.1603  1.9400
   7723SM   C8F10208   2.775   1.975  15.925  0.9215 -0.3934  0.0383
   7723SM   H8F10209   2.774   1.863  15.928  4.8044 -0.6017 -0.6556
   7723SM   H8G10210   2.883   2.002  15.927  0.5082  1.4436  3.0082
   7723SM   C9F10211   2.713   2.016  15.793  0.6612  0.5312  0.6501
   7723SM   H9F10212   2.722   2.125  15.810 -0.2947  0.6755  0.2907
   7723SM   H9G10213   2.610   1.977  15.778  0.8619  0.0039  0.6177
   7723SM  C10F10214   2.805   1.981  15.679 -0.4453 -0.1063  0.7474
   7723SM  H10F10215   2.829   1.873  15.677  0.2035  0.0450 -0.2563
   7723SM  H10G10216   2.903   2.032  15.689 -0.4980  0.2278 -0.3264
   7723SM  C11F10217   2.746   2.019  15.543 -0.4923 -0.1531 -0.3184
   7723SM  H11F10218   2.817   1.991  15.462 -0.3026 -1.7466  0.3741
   7723SM  H11G10219   2.722   2.127  15.533  0.6142 -0.0292 -2.2272
   7723SM  C12F10220   2.620   1.941  15.497  0.0583  0.8432  0.7813
   7723SM  H12F10221   2.530   1.990  15.540  0.7901  1.1033  2.0637
   7723SM  H12G10222   2.641   1.838  15.532 -0.0968  1.0746  1.5726
   7723SM  C13F10223   2.617   1.925  15.347 -0.3132 -0.7686  0.8326
   7723SM  H13F10224   2.537   1.858  15.309  0.2118 -0.7035 -0.4274
   7723SM  H13G10225   2.714   1.886  15.311 -1.3563 -1.0667 -1.8376
   7723SM  C14F10226   2.588   2.060  15.279  0.2828  0.3683 -0.1172
   7723SM  H14F10227   2.655   2.139  15.319 -1.8843  1.5012  1.5130
   7723SM  H14G10228   2.485   2.096  15.302 -0.0433 -0.8538  0.4270
   7723SM  C15F10229   2.599   2.064  15.120  0.0679  0.0494 -0.0477
   7723SM  H15F10230   2.514   2.015  15.067 -0.7827  1.0849  0.3371
   7723SM  H15G10231   2.690   2.004  15.097  0.1794  0.1617  0.0979
   7723SM  C16F10232   2.628   2.206  15.069  0.3083 -0.1819  0.8145
   7723SM  H16F10233   2.682   2.199  14.972  0.3505 -1.9895  0.9348
   7723SM  H16G10234   2.689   2.272  15.134  1.5380 -1.0201  0.5446
   7723SM  C17F10235   2.488   2.274  15.035  0.5326 -0.1220 -0.0296
   7723SM  H17F10236   2.490   2.385  15.042  1.6864 -0.1949  1.1509
   7723SM  H17G10237   2.431   2.254  15.128  0.2250  2.4797  0.4142
   7723SM  C18F10238   2.416   2.233  14.902 -0.2364 -1.1904  0.1754
   7723SM  H18F10239   2.461   2.139  14.864 -0.1738 -1.3292  0.5911
   7723SM  H18G10240   2.448   2.312  14.831 -2.3334  0.5022  0.9800
   7723SM  C19F10241   2.259   2.227  14.909 -0.0389  0.3660  0.2485
   7723SM  H19F10242   2.236   2.139  14.972 -0.9764 -0.6867 -1.4769
   7723SM  H19G10243   2.206   2.204  14.814  0.3476 -0.6843  0.2614
   7723SM  C20F10244   2.200   2.356  14.978  0.3794 -0.0141 -0.6602
   7723SM  H20F10245   2.209   2.433  14.899  0.8052 -0.5333 -1.1264
   7723SM  H20G10246   2.261   2.378  15.068 -1.0667  0.9418  0.1235
   7723SM  C21F10247   2.050   2.352  15.012  0.6435  0.0303  0.0916
   7723SM  H21F10248   2.044   2.346  15.122  0.3487 -1.0031  0.0339
   7723SM  H21G10249   2.004   2.260  14.969 -0.1804 -0.0419  1.1022
   7723SM  C22F10250   1.970   2.480  14.979 -0.3009 -0.2278 -0.1593
   7723SM  H22F10251   2.017   2.575  15.011 -2.0229 -0.3344  3.1036
   7723SM  H22G10252   1.878   2.473  15.041  0.0731  1.3878  0.6297
   7723SM  C23F10253   1.916   2.501  14.835 -0.1541  0.3570 -0.8841
   7723SM  H23F10254   1.830   2.433  14.817  0.7594 -0.9625 -0.4223
   7723SM  H23G10255   1.996   2.483  14.759  0.7196  0.3501  0.0150
   7723SM  H23H10256   1.879   2.605  14.833 -4.8881 -0.8734  3.2272
   7823SM     N10257   3.512   1.156  17.016 -0.1633 -0.1400 -0.5210
   7823SM   C1510258   3.449   1.027  17.060  0.0954  0.0091  0.2973
   7823SM  H15A10259   3.342   1.039  17.068  0.1518  0.7385 -0.0120
   7823SM  H15B10260   3.485   0.982  17.151  1.1760  1.0235  0.4012
   7823SM  H15C10261   3.471   0.958  16.980  0.6594  1.1986 -0.5938
   7823SM   C1410262   3.584   1.128  16.886  0.1389 -0.0564  0.0222
   7823SM  H14A10263   3.548   1.036  16.842 -0.8738 -0.8283  2.2862
   7823SM  H14B10264   3.687   1.105  16.906 -0.6143 -2.6549  1.3401
   7823SM  H14C10265   3.568   1.208  16.815  2.0907 -0.1272 -0.5445
   7823SM   C1310266   3.413   1.266  16.996  0.0985 -0.5492 -0.4834
   7823SM  H13A10267   3.460   1.354  16.956 -0.2646 -1.3077 -2.7556
   7823SM  H13B10268   3.368   1.292  17.091  1.5694  3.7312 -0.7837
   7823SM  H13C10269   3.331   1.234  16.933  1.4958 -1.0579 -2.1130
   7823SM   C1210270   3.613   1.209  17.122  0.5951  0.4458 -0.4311
   7823SM  H12A10271   3.558   1.229  17.213  0.5961  0.0447 -0.3435
   7823SM  H12B10272   3.651   1.304  17.086 -1.1417  1.8654  1.2301
   7823SM   C1110273   3.734   1.118  17.141  0.4344  0.0262 -0.9573
   7823SM  H11A10274   3.709   1.010  17.146 -1.8050  0.5287  0.1698
   7823SM  H11B10275   3.771   1.151  17.241  0.5491 -0.7109 -0.7462
   7823SM     P10276   3.971   1.198  17.049  0.1010  0.8074  0.2220
   7823SM   O1310277   3.971   1.306  17.147 -0.3079 -0.0516  0.5180
   7823SM   O1410278   4.083   1.099  17.047 -0.1063  0.0188  0.3100
   7823SM   O1110279   3.975   1.273  16.917  0.0279  0.3550  0.0429
   7823SM   O1210280   3.833   1.140  17.043 -0.2003 -0.0717  0.1963
   7823SM   C1S10281   3.953   1.217  16.792 -0.3589 -0.5345  0.7404
   7823SM   H1S10282   3.867   1.147  16.789 -2.1539  1.5407  1.0265
   7823SM   H1T10283   4.046   1.169  16.755  2.2536  2.9093  2.2057
   7823SM    NF10284   3.871   1.263  16.556 -0.5519 -0.1717 -0.0581
   7823SM   HNF10285   3.946   1.255  16.491  0.7383 -1.4282  1.4896
   7823SM   C2S10286   3.908   1.321  16.687  0.1627  0.4407 -0.5995
   7823SM   H2S10287   3.824   1.375  16.737  0.3364  1.5305 -1.4656
   7823SM   C3S10288   4.027   1.430  16.679 -0.5545 -0.6572 -0.1848
   7823SM   H3S10289   4.106   1.371  16.629 -0.0085  1.0100 -1.3979
   7823SM    O310290   4.072   1.481  16.801 -0.6866 -0.2671  0.4140
   7823SM   HO310291   4.052   1.410  16.863  0.5083 -1.5866 -0.6380
   7823SM   C4S10292   3.984   1.545  16.589  0.4123  0.7233 -0.3462
   7823SM   H4S10293   4.009   1.521  16.484  1.0124 -0.4639  0.0461
   7823SM   C5S10294   3.923   1.658  16.627  0.1571  0.1282  0.7224
   7823SM   H5S10295   3.913   1.670  16.735  1.8265 -2.3946  1.2647
   7823SM   C6S10296   3.869   1.754  16.527  0.2186 -0.5644  0.0816
   7823SM   H6S10297   3.940   1.839  16.519  0.6902 -0.9426  0.2114
   7823SM   H6T10298   3.769   1.794  16.553  0.0397 -0.6552 -0.4445
   7823SM   C7S10299   3.863   1.707  16.374  1.0345 -0.0084 -0.2460
   7823SM   H7S10300   3.808   1.611  16.357 -0.5528  1.0299 -1.2544
   7823SM   H7T10301   3.968   1.700  16.338  0.6316  1.4296 -1.8436
   7823SM   C8S10302   3.786   1.806  16.282  0.4156  0.3141  0.4037
   7823SM   H8S10303   3.831   1.907  16.286 -0.2313  0.5745  1.6706
   7823SM   H8T10304   3.680   1.817  16.314 -0.3446 -4.5367  0.2717
   7823SM   C9S10305   3.776   1.756  16.137  1.0234  0.3232  0.0330
   7823SM   H9S10306   3.702   1.674  16.130 -0.9114  1.9773 -0.0260
   7823SM   H9T10307   3.878   1.725  16.105  1.2147  0.2356  0.7114
   7823SM  C10S10308   3.723   1.865  16.044  0.5236  0.2199  0.1938
   7823SM  H10S10309   3.777   1.961  16.062  0.6308 -0.0215  1.2359
   7823SM  H10T10310   3.615   1.881  16.068  0.4164  0.7825 -0.6120
   7823SM  C11S10311   3.725   1.821  15.900  0.3932  0.2765  0.1528
   7823SM  H11S10312   3.670   1.725  15.901  1.6818 -0.5670  3.5273
   7823SM  H11T10313   3.829   1.792  15.871  0.9544  0.1722  2.1459
   7823SM  C12S10314   3.657   1.923  15.801  0.1359  0.2660  0.1216
   7823SM  H12S10315   3.689   2.018  15.849 -1.8723  0.5646  0.9728
   7823SM  H12T10316   3.547   1.917  15.811  0.1423 -1.0280 -0.3985
   7823SM  C13S10317   3.706   1.903  15.661 -1.0501 -1.1151  0.3898
   7823SM  H13S10318   3.726   1.799  15.628  4.0964 -1.3765  3.3336
   7823SM  H13T10319   3.802   1.958  15.653 -1.1125 -1.0096  0.3542
   7823SM  C14S10320   3.602   1.960  15.557  0.4798 -0.7934  0.1919
   7823SM  H14S10321   3.603   2.071  15.568 -2.4429 -0.8867  2.5374
   7823SM  H14T10322   3.501   1.917  15.572 -0.2923  0.8492 -0.0488
   7823SM  C15S10323   3.638   1.932  15.408  0.0135 -0.3830 -0.3016
   7823SM  H15S10324   3.609   1.827  15.390 -0.0125 -0.6027  0.9001
   7823SM  H15T10325   3.746   1.940  15.385  0.5747 -3.0880  1.0375
   7823SM  C16S10326   3.571   2.030  15.303  0.4724 -0.0737 -0.2308
   7823SM  H16S10327   3.623   2.128  15.296 -0.6936  0.7896  2.0241
   7823SM  H16T10328   3.465   2.047  15.332  1.0213  0.4644  1.6577
   7823SM  C17S10329   3.560   1.968  15.164  0.4598 -0.0776 -0.3575
   7823SM  H17S10330   3.520   1.867  15.187  2.3330 -0.4587  1.6582
   7823SM  H17T10331   3.661   1.943  15.125 -0.4888 -0.0642 -2.9730
   7823SM  C18S10332   3.469   2.042  15.062  0.5292  0.4643 -0.6616
   7823SM  H18S10333   3.489   1.991  14.965 -0.8933  1.8193 -1.7181
   7823SM  H18T10334   3.494   2.150  15.054  2.3249  0.1911  0.4842
   7823SM  H18U10335   3.366   2.021  15.097  1.0178  1.2532  1.3481
   7823SM   C1F10336   3.743   1.231  16.534 -0.2557 -0.5841  0.5996
   7823SM    OF10337   3.657   1.236  16.623 -0.1326 -0.1633  0.1031
   7823SM   C2F10338   3.705   1.184  16.395 -0.2374 -0.0064 -0.0126
   7823SM   H2F10339   3.773   1.221  16.315 -1.2788  1.5535 -0.2220
   7823SM   H2G10340   3.600   1.215  16.377 -0.5681 -0.6978  0.6709
   7823SM   C3F10341   3.715   1.030  16.397 -0.3127 -0.1896  0.0148
   7823SM   H3F10342   3.655   0.988  16.481 -0.2657 -3.0860 -1.2927
   7823SM   H3G10343   3.822   1.005  16.411 -0.0864 -0.5498 -2.0969
   7823SM   C4F10344   3.655   0.970  16.266  0.0915  0.4735  1.0165
   7823SM   H4F10345   3.547   0.996  16.259  0.1078  0.1080 -1.1493
   7823SM   H4G10346   3.663   0.860  16.270  1.4637  0.4750 -0.7827
   7823SM   C5F10347   3.725   1.013  16.141  0.7701 -1.1590  0.4733
   7823SM   H5F10348   3.829   0.973  16.141  1.2926  0.1555  0.8021
   7823SM   H5G10349   3.724   1.121  16.115 -2.2423 -1.2656 -0.1668
   7823SM   C6F10350   3.661   0.945  16.014 -0.4795 -0.1148 -0.5564
   7823SM   H6F10351   3.553   0.971  16.008 -0.1587  1.2642 -0.8900
   7823SM   H6G10352   3.668   0.834  16.014 -2.0474 -0.2343 -0.5695
   7823SM   C7F10353   3.744   0.982  15.887 -0.0631  0.2511 -0.3261
   7823SM   H7F10354   3.844   0.940  15.909 -0.6059 -0.1303  1.5770
   7823SM   H7G10355   3.747   1.093  15.898  1.2940  0.4486 -2.2015
   7823SM   C8F10356   3.679   0.954  15.750  0.5402  0.0690 -0.5741
   7823SM   H8F10357   3.568   0.958  15.756  0.5483 -0.7660  0.4000
   7823SM   H8G10358   3.702   0.849  15.725  0.1640 -0.1412 -0.0575
   7823SM   C9F10359   3.735   1.040  15.634 -0.0712  0.2198  0.3196
   7823SM   H9F10360   3.844   1.021  15.625 -0.3456 -2.4778  1.7300
   7823SM   H9G10361   3.718   1.149  15.647 -0.3726  0.1035  0.9456
   7823SM  C10F10362   3.656   1.016  15.506 -0.1674  0.1233 -0.0413
   7823SM  H10F10363   3.558   1.068  15.506  0.6948  1.8101 -0.7704
   7823SM  H10G10364   3.629   0.909  15.498 -2.6417  0.6353  0.7091
   7823SM  C11F10365   3.741   1.048  15.383 -0.7762 -0.0719  0.4403
   7823SM  H11F10366   3.842   1.003  15.391 -2.0494 -3.3987 -0.3449
   7823SM  H11G10367   3.761   1.156  15.368  1.3536 -0.4224  0.4567
   7823SM  C12F10368   3.682   0.990  15.255  0.2055 -0.7425  0.1734
   7823SM  H12F10369   3.573   1.009  15.241  0.7036  2.3492 -0.2947
   7823SM  H12G10370   3.697   0.880  15.255  2.4841 -0.4847  0.9594
   7823SM  C13F10371   3.738   1.045  15.122 -0.0229 -0.8804  0.3210
   7823SM  H13F10372   3.841   1.011  15.101  0.7439  1.0018  0.7720
   7823SM  H13G10373   3.742   1.155  15.139  0.8589 -1.2045  2.5349
   7823SM  C14F10374   3.658   1.010  14.994  0.1198 -0.0616  0.2410
   7823SM  H14F10375   3.671   0.901  14.982  1.7796  0.0301  1.0150
   7823SM  H14G10376   3.705   1.077  14.919 -0.1191  2.1353  1.9518
   7823SM  C15F10377   3.508   1.041  14.986  0.6460 -0.0234  0.6182
   7823SM  H15F10378   3.455   0.979  15.062  1.3578  0.2785  1.3775
   7823SM  H15G10379   3.483   1.004  14.885  1.8409 -0.1028  0.3335
   7823SM  C16F10380   3.468   1.191  14.998 -0.0464 -0.8488  0.0041
   7823SM  H16F10381   3.479   1.237  15.099  0.5479  0.3356 -0.5700
   7823SM  H16G10382   3.360   1.197  14.973 -0.1901 -1.4399  0.4572
   7823SM  C17F10383   3.547   1.287  14.908 -0.1552  0.0489  0.5647
   7823SM  H17F10384   3.542   1.233  14.811 -0.1965 -0.9340  1.1063
   7823SM  H17G10385   3.653   1.299  14.939  0.6444  0.9801 -2.2196
   7823SM  C18F10386   3.468   1.411  14.883 -0.3287  0.0400  0.0513
   7823SM  H18F10387   3.369   1.387  14.839 -1.5428 -0.6970  2.9847
   7823SM  H18G10388   3.523   1.472  14.808  1.7910 -0.2852  1.2718
   7823SM  C19F10389   3.452   1.500  15.005  0.4078 -0.0038  0.6564
   7823SM  H19F10390   3.556   1.515  15.041  0.4465 -0.0357  0.5589
   7823SM  H19G10391   3.395   1.444  15.083 -0.0878 -0.7936 -0.2497
   7823SM  C20F10392   3.382   1.634  14.981 -0.3505 -0.3385  0.8593
   7823SM  H20F10393   3.422   1.683  14.889 -3.1236 -2.1283 -1.5208
   7823SM  H20G10394   3.397   1.695  15.073 -0.1937 -0.7613  1.1137
   7823SM  C21F10395   3.234   1.610  14.952 -0.0426 -0.0938 -0.3424
   7823SM  H21F10396   3.190   1.544  15.030  2.0858 -0.1186  0.9004
   7823SM  H21G10397   3.232   1.561  14.852  0.5618  0.3456 -0.5771
   7823SM  C22F10398   3.163   1.747  14.930  0.3583 -0.0067  0.2095
   7823SM  H22F10399   3.151   1.807  15.022 -1.5108  1.0645 -0.6594
   7823SM  H22G10400   3.055   1.734  14.907  0.5411 -0.0140 -0.7000
   7823SM  C23F10401   3.221   1.842  14.825  0.4074 -0.6391 -0.6671
   7823SM  H23F10402   3.222   1.808  14.719  1.8171  4.5904 -2.6328
   7823SM  H23G10403   3.328   1.860  14.851  0.6122 -2.1469 -0.3142
   7823SM  H23H10404   3.167   1.939  14.819 -0.6895 -1.3100 -2.4030
   7923SM     N10405   0.258   2.139  17.399 -0.0160 -0.1927 -0.0267
   7923SM   C1510406   0.112   2.155  17.437  0.2574 -0.5338  0.6055
   7923SM  H15A10407   0.100   2.205  17.532 -0.4126  2.0652 -0.7266
   7923SM  H15B10408   0.063   2.060  17.422  2.0309 -1.9406  3.1010
   7923SM  H15C10409   0.065   2.226  17.369  1.4400  0.3572  0.6870
   7923SM   C1410410   0.266   2.127  17.242  0.4542 -0.2287 -0.3772
   7923SM  H14A10411   0.214   2.034  17.225  1.2637 -0.7617  0.0297
   7923SM  H14B10412   0.367   2.104  17.211  0.2219 -0.8820 -0.6772
   7923SM  H14C10413   0.231   2.212  17.186  1.1108  0.9145  0.8972
   7923SM   C1310414   0.327   2.265  17.450 -0.2895 -0.3684  0.1587
   7923SM  H13A10415   0.312   2.263  17.557  0.8077  0.0079  0.3358
   7923SM  H13B10416   0.276   2.355  17.418 -2.7083 -0.8021  2.4667
   7923SM  H13C10417   0.432   2.271  17.424  0.2183 -1.2386  1.8598
   7923SM   C1210418   0.330   2.018  17.466 -0.8293  0.1095 -1.1691
   7923SM  H12A10419   0.346   2.036  17.571 -1.2746  0.0321 -1.0881
   7923SM  H12B10420   0.432   2.007  17.432 -0.5986  0.1177 -0.5011
   7923SM   C1110421   0.270   1.873  17.461  0.4278  1.1786 -0.3123
   7923SM  H11A10422   0.165   1.881  17.496  0.0606 -0.1489 -1.0543
   7923SM  H11B10423   0.325   1.798  17.523 -2.9952 -2.5207 -1.3252
   7923SM     P10424   0.401   1.756  17.267 -0.3452 -0.4494 -0.2473
   7923SM   O1310425   0.502   1.861  17.241 -0.3445 -0.0562 -0.0954
   7923SM   O1410426   0.444   1.643  17.350  0.2349  0.8403 -0.1217
   7923SM   O1110427   0.360   1.698  17.127  0.2186 -0.1176  0.2397
   7923SM   O1210428   0.270   1.826  17.329  0.3644 -0.2186  0.2536
   7923SM   C1S10429   0.321   1.775  17.015 -0.1831  0.0095 -0.1972
   7923SM   H1S10430   0.414   1.811  16.967  0.7256 -0.3814  1.2051
   7923SM   H1T10431   0.254   1.861  17.037 -0.9922 -0.2017 -1.6631
   7923SM    NF10432   0.210   1.772  16.788  0.2435  0.3564 -0.0243
   7923SM   HNF10433   0.130   1.830  16.799 -0.5136 -0.8917  1.3925
   7923SM   C2S10434   0.231   1.691  16.916  0.0614  0.2879  0.0044
   7923SM   H2S10435   0.282   1.595  16.889  0.5279  0.6512 -0.4191
   7923SM   C3S10436   0.093   1.643  16.982  0.1302 -0.4052 -0.2603
   7923SM   H3S10437   0.037   1.735  17.010 -1.5345 -0.4296 -3.0889
   7923SM    O310438   0.120   1.572  17.105  0.6160  0.3473 -0.3719
   7923SM   HO310439   0.212   1.587  17.129  0.0805  1.2773  1.2805
   7923SM   C4S10440   0.020   1.562  16.884  0.2476 -0.1978  0.4660
   7923SM   H4S10441   0.067   1.466  16.857  1.2924  0.6300 -0.7930
   7923SM   C5S10442  -0.090   1.605  16.827 -0.1376  0.3605  0.8586
   7923SM   H5S10443  -0.118   1.710  16.846 -1.8751 -0.3631  2.7066
   7923SM   C6S10444  -0.156   1.534  16.705  0.2377  0.0287 -0.0350
   7923SM   H6S10445  -0.255   1.496  16.739 -0.2989  1.2181 -0.1862
   7923SM   H6T10446  -0.103   1.441  16.676 -0.2326 -0.9748  2.1591
   7923SM   C7S10447  -0.199   1.622  16.587 -0.4654  0.0159 -0.4172
   7923SM   H7S10448  -0.277   1.699  16.608 -0.1587  0.1977  0.0554
   7923SM   H7T10449  -0.250   1.554  16.515  1.4549 -0.8733 -1.0043
   7923SM   C8S10450  -0.084   1.684  16.502 -0.5491 -0.4207  0.3010
   7923SM   H8S10451  -0.003   1.612  16.477  0.3706  0.9561 -0.8446
   7923SM   H8T10452  -0.029   1.763  16.557 -1.5055  0.1169  0.5077
   7923SM   C9S10453  -0.140   1.745  16.370 -0.0509 -0.3333  0.1908
   7923SM   H9S10454  -0.063   1.802  16.315 -1.3896  1.0516 -0.3192
   7923SM   H9T10455  -0.210   1.822  16.407 -0.9053 -1.0539  0.1196
   7923SM  C10S10456  -0.185   1.637  16.265  0.4581 -0.5961 -0.0877
   7923SM  H10S10457  -0.282   1.599  16.305  0.0397  2.6052  2.3275
   7923SM  H10T10458  -0.100   1.566  16.251  0.7412 -0.0179 -1.4418
   7923SM  C11S10459  -0.208   1.697  16.128 -0.4417 -0.1777 -0.0552
   7923SM  H11S10460  -0.114   1.734  16.083 -0.1354 -3.4384 -2.4551
   7923SM  H11T10461  -0.280   1.782  16.127 -1.1906 -0.7669  1.0426
   7923SM  C12S10462  -0.260   1.585  16.041 -0.3686  0.3247  0.4534
   7923SM  H12S10463  -0.349   1.546  16.094  0.2588 -0.1877  1.1744
   7923SM  H12T10464  -0.181   1.506  16.042 -1.8979 -1.2666  1.4003
   7923SM  C13S10465  -0.307   1.626  15.900 -0.5260 -0.3464 -0.2261
   7923SM  H13S10466  -0.364   1.719  15.881 -0.3760 -0.2981 -0.4442
   7923SM  H13T10467  -0.367   1.542  15.859  0.3485 -1.9728  1.6697
   7923SM  C14S10468  -0.186   1.660  15.807  0.0709  0.9555  0.0132
   7923SM  H14S10469  -0.132   1.564  15.813 -2.6736 -0.6708  0.9140
   7923SM  H14T10470  -0.128   1.744  15.852  0.9612 -0.0248  0.7339
   7923SM  C15S10471  -0.242   1.690  15.671 -0.1431 -0.2035 -0.4186
   7923SM  H15S10472  -0.316   1.772  15.674 -0.9393 -0.9049 -0.7259
   7923SM  H15T10473  -0.308   1.603  15.654  1.5271 -1.4429 -0.7962
   7923SM  C16S10474  -0.137   1.690  15.558  0.0593  0.0663  0.2566
   7923SM  H16S10475  -0.062   1.608  15.567  0.2624  0.4513  2.5374
   7923SM  H16T10476  -0.073   1.779  15.574  0.9424 -0.8053  1.8421
   7923SM  C17S10477  -0.196   1.719  15.417 -0.6226  0.7062  0.2480
   7923SM  H17S10478  -0.117   1.724  15.339  0.5852 -0.2332  1.3887
   7923SM  H17T10479  -0.241   1.821  15.414 -0.1518  0.8987 -1.0235
   7923SM  C18S10480  -0.296   1.609  15.371 -0.4130 -0.5168  0.2960
   7923SM  H18S10481  -0.395   1.661  15.368  0.2461  0.8138  0.6157
   7923SM  H18T10482  -0.309   1.535  15.453 -0.8756 -1.3387 -0.5087
   7923SM  H18U10483  -0.267   1.558  15.277  1.8985  1.6457 -0.2673
   7923SM   C1F10484   0.302   1.799  16.697  0.5047 -0.7903  0.3478
   7923SM    OF10485   0.410   1.750  16.710 -0.6351 -0.5115 -0.1509
   7923SM   C2F10486   0.270   1.898  16.591 -0.8738  0.2098 -0.8911
   7923SM   H2F10487   0.357   1.967  16.598 -0.7056 -0.1439  1.6147
   7923SM   H2G10488   0.173   1.941  16.626  0.1806  0.7959  1.6081
   7923SM   C3F10489   0.270   1.828  16.457 -0.0951 -0.9791  0.7707
   7923SM   H3F10490   0.217   1.731  16.455 -0.7365 -0.6418 -0.8167
   7923SM   H3G10491   0.376   1.820  16.424  0.3031  1.3834  1.2505
   7923SM   C4F10492   0.205   1.908  16.343 -0.8534  0.0401 -1.0507
   7923SM   H4F10493   0.253   2.004  16.317 -0.2690  0.4361  1.3002
   7923SM   H4G10494   0.097   1.930  16.356 -0.1948  3.1532 -0.1576
   7923SM   C5F10495   0.214   1.823  16.211  0.2417 -0.4934  0.0370
   7923SM   H5F10496   0.155   1.730  16.213 -1.3772  0.5014  0.7562
   7923SM   H5G10497   0.318   1.798  16.180  1.4074  2.5161  1.0451
   7923SM   C6F10498   0.184   1.920  16.096  0.1694 -0.0049 -0.1730
   7923SM   H6F10499   0.264   1.997  16.086 -0.9451  1.0940 -0.8658
   7923SM   H6G10500   0.095   1.982  16.118 -0.3019 -0.8126  0.2261
   7923SM   C7F10501   0.162   1.850  15.964  0.5249 -0.3368  0.2152
   7923SM   H7F10502   0.072   1.784  15.963  0.1044  0.2301  0.4292
   7923SM   H7G10503   0.250   1.789  15.932  0.9770  0.4320 -0.0342
   7923SM   C8F10504   0.140   1.961  15.861 -0.1282 -0.2910  0.2222
   7923SM   H8F10505   0.208   2.047  15.872 -0.6979  0.4264 -1.4539
   7923SM   H8G10506   0.036   1.999  15.868 -0.9631 -2.0494 -1.5795
   7923SM   C9F10507   0.154   1.907  15.714  0.2052 -0.0634 -0.3817
   7923SM   H9F10508   0.106   1.970  15.636  0.4434 -0.3658 -0.7754
   7923SM   H9G10509   0.103   1.810  15.697 -0.7958  0.5048 -0.7620
   7923SM  C10F10510   0.297   1.886  15.661 -0.0520 -0.1250  0.0411
   7923SM  H10F10511   0.349   1.800  15.708 -0.3153 -0.0902  0.4035
   7923SM  H10G10512   0.354   1.981  15.674  0.7279 -0.4622 -0.7936
   7923SM  C11F10513   0.302   1.869  15.512  0.5115 -0.2987  1.0024
   7923SM  H11F10514   0.258   1.959  15.464  1.1081  0.8920  2.5632
   7923SM  H11G10515   0.263   1.770  15.482  2.7046 -1.6362  2.2548
   7923SM  C12F10516   0.446   1.863  15.466 -0.8945  0.0433  0.3892
   7923SM  H12F10517   0.489   1.763  15.489 -0.4020 -0.0499 -0.8699
   7923SM  H12G10518   0.511   1.944  15.506 -1.2080  0.6459 -0.2809
   7923SM  C13F10519   0.466   1.870  15.309  0.0149 -0.3277 -0.5675
   7923SM  H13F10520   0.418   1.963  15.272  2.8195  2.5912  2.4814
   7923SM  H13G10521   0.419   1.775  15.275 -2.5999  1.1138 -1.2791
   7923SM  C14F10522   0.611   1.872  15.259 -0.8589 -0.4019 -0.0498
   7923SM  H14F10523   0.668   1.791  15.307  0.0876  0.8380  0.9687
   7923SM  H14G10524   0.662   1.967  15.287 -0.1071 -0.4402 -1.2263
   7923SM  C15F10525   0.615   1.857  15.105  0.4217 -0.6425 -0.1266
   7923SM  H15F10526   0.513   1.823  15.078 -0.5402 -0.2890  2.7775
   7923SM  H15G10527   0.687   1.776  15.078  2.4192  0.0735  2.5735
   7923SM  C16F10528   0.648   1.989  15.037  0.0516  0.0927 -0.6526
   7923SM  H16F10529   0.751   2.011  15.072  0.3342  0.7134 -1.8331
   7923SM  H16G10530   0.578   2.067  15.072 -0.0160 -1.5092  3.2995
   7923SM  C17F10531   0.649   1.979  14.886  0.6178 -0.3124 -0.0610
   7923SM  H17F10532   0.549   1.949  14.847  0.0446  1.7979 -0.3109
   7923SM  H17G10533   0.717   1.898  14.851 -0.4841 -0.2833 -2.4645
   7923SM  C18F10534   0.705   2.099  14.820 -0.2078  0.0146  0.3134
   7923SM  H18F10535   0.815   2.090  14.827 -0.2342 -0.2657  0.3674
   7923SM  H18G10536   0.657   2.182  14.876 -1.9796 -0.5359 -0.3153
   7923SM  C19F10537   0.660   2.106  14.671  0.7446  0.7180 -0.1831
   7923SM  H19F10538   0.549   2.094  14.668  0.4329  3.2709 -1.0551
   7923SM  H19G10539   0.685   2.021  14.605 -2.4739 -0.0873 -0.5527
   7923SM  C20F10540   0.683   2.248  14.610  0.2273 -0.0251 -0.3840
   7923SM  H20F10541   0.779   2.297  14.636  0.4815 -0.7071 -0.0005
   7923SM  H20G10542   0.616   2.322  14.658  1.6905  0.6688  0.6562
   7923SM  C21F10543   0.666   2.244  14.458  0.1290 -0.0088  0.0705
   7923SM  H21F10544   0.607   2.336  14.439  2.6030  1.6394 -0.0839
   7923SM  H21G10545   0.596   2.161  14.436 -1.2201  0.6933  1.5045
   7923SM  C22F10546   0.803   2.238  14.385 -0.1536 -0.2466  0.4841
   7923SM  H22F10547   0.862   2.154  14.426  1.3784  0.4311 -0.2613
   7923SM  H22G10548   0.861   2.331  14.404 -0.2415 -0.1459  0.2665
   7923SM  C23F10549   0.787   2.210  14.222  0.2694 -0.8810 -0.7199
   7923SM  H23F10550   0.747   2.299  14.169  0.9243 -0.2198 -0.1263
   7923SM  H23G10551   0.732   2.117  14.199  0.6471 -0.8765 -1.6908
   7923SM  H23H10552   0.890   2.195  14.182  0.4663 -2.0144  0.1730
   8023SM     N10553   2.471   1.675  17.309  0.2782 -0.3033  0.5361
   8023SM   C1510554   2.504   1.650  17.449 -0.3888 -0.2713  0.0283
   8023SM  H15A10555   2.532   1.742  17.497  2.2971 -1.1370  0.3151
   8023SM  H15B10556   2.593   1.591  17.468 -0.3376  0.4691  2.4393
   8023SM  H15C10557   2.416   1.604  17.493  0.0516 -0.5875  0.6052
   8023SM   C1410558   2.454   1.547  17.230 -0.3246  0.2806  0.2240
   8023SM  H14A10559   2.446   1.559  17.122  0.6091  1.5290  0.2689
   8023SM  H14B10560   2.362   1.503  17.265 -0.9883  0.0970 -1.6279
   8023SM  H14C10561   2.536   1.482  17.254 -0.2369 -0.3264 -1.5464
   8023SM   C1310562   2.347   1.754  17.291  0.6059 -0.3554 -0.1325
   8023SM  H13A10563   2.260   1.701  17.327  0.2164  0.5577  0.3147
   8023SM  H13B10564   2.330   1.778  17.187  0.8796 -0.2201 -0.1461
   8023SM  H13C10565   2.339   1.842  17.353 -2.1883 -1.4332  1.1871
   8023SM   C1210566   2.578   1.758  17.239 -0.5699 -0.2747 -0.4269
   8023SM  H12A10567   2.584   1.858  17.280  4.5890  0.1849 -1.6568
   8023SM  H12B10568   2.539   1.771  17.139 -0.7341 -0.7028 -0.4192
   8023SM   C1110569   2.722   1.717  17.227  0.0261 -0.3700  0.1880
   8023SM  H11A10570   2.774   1.732  17.324  2.9703  0.1986 -1.3865
   8023SM  H11B10571   2.764   1.791  17.156 -0.8855 -1.1651 -1.2370
   8023SM     P10572   2.797   1.465  17.227  0.1995  0.3942  0.0308
   8023SM   O1310573   2.843   1.492  17.366  0.4212  0.2372 -0.5423
   8023SM   O1410574   2.716   1.336  17.208  0.6970 -0.1751  0.2016
   8023SM   O1110575   2.924   1.456  17.136  0.5370  0.1544  0.6549
   8023SM   O1210576   2.721   1.588  17.165 -0.2285 -0.5565 -0.1098
   8023SM   C1S10577   2.928   1.388  17.008  0.2349  0.1016 -0.7740
   8023SM   H1S10578   2.844   1.322  16.979  2.1550 -1.8075 -2.3370
   8023SM   H1T10579   3.016   1.321  17.018 -0.3308 -0.3187  2.1800
   8023SM    NF10580   2.954   1.412  16.768  0.2851  0.2222 -0.2441
   8023SM   HNF10581   3.046   1.404  16.728 -0.0700 -1.0992 -0.8583
   8023SM   C2S10582   2.936   1.486  16.889 -0.2259 -0.1199 -0.3467
   8023SM   H2S10583   2.846   1.550  16.876 -0.8271 -1.0730 -1.0181
   8023SM   C3S10584   3.051   1.588  16.914 -0.1129  0.0730 -0.1875
   8023SM   H3S10585   3.139   1.533  16.954 -0.0358  1.4434  1.6622
   8023SM    O310586   3.031   1.684  17.012 -0.2874  0.0711 -0.0106
   8023SM   HO310587   2.952   1.658  17.059  0.0202 -2.2502 -0.6305
   8023SM   C4S10588   3.086   1.653  16.781  0.3606 -0.3323 -0.0933
   8023SM   H4S10589   3.173   1.608  16.731  1.7239  1.4517  0.5439
   8023SM   C5S10590   3.004   1.740  16.716  0.1178 -0.1396 -0.1186
   8023SM   H5S10591   2.906   1.770  16.756 -0.9978  0.0464 -2.7739
   8023SM   C6S10592   3.039   1.774  16.570 -0.0072  0.7564  0.3493
   8023SM   H6S10593   3.139   1.729  16.548 -0.9409 -1.1388 -0.3058
   8023SM   H6T10594   3.040   1.884  16.560 -4.6298  0.9498 -0.3198
   8023SM   C7S10595   2.955   1.701  16.465  0.0325 -0.2860 -0.3297
   8023SM   H7S10596   2.852   1.717  16.503  0.5560  1.6796  0.3823
   8023SM   H7T10597   2.980   1.593  16.471  0.1012 -0.1973  1.2605
   8023SM   C8S10598   2.970   1.740  16.318 -0.4808  0.1075 -0.1707
   8023SM   H8S10599   2.978   1.850  16.305  0.0433  0.0117 -0.6963
   8023SM   H8T10600   2.886   1.704  16.254 -0.3777  0.9535 -0.7857
   8023SM   C9S10601   3.100   1.679  16.251 -0.2791  0.7275 -0.7077
   8023SM   H9S10602   3.082   1.571  16.268 -3.3058  1.1046 -0.8191
   8023SM   H9T10603   3.187   1.720  16.306 -1.7683  2.0195  0.7849
   8023SM  C10S10604   3.112   1.704  16.102  0.0797 -0.0816  0.3938
   8023SM  H10S10605   3.023   1.652  16.059  2.2248 -3.7775  0.0429
   8023SM  H10T10606   3.200   1.645  16.070  0.6903  1.6888 -1.3855
   8023SM  C11S10607   3.129   1.854  16.064 -0.9958 -0.7638 -0.3339
   8023SM  H11S10608   3.220   1.887  16.118 -2.3235  0.8854  0.9899
   8023SM  H11T10609   3.043   1.915  16.099  0.1681  1.0796 -0.5763
   8023SM  C12S10610   3.148   1.874  15.911  0.3167  0.4233  0.1206
   8023SM  H12S10611   3.045   1.876  15.868 -1.2154 -0.2175  3.4329
   8023SM  H12T10612   3.221   1.796  15.879  1.1399  0.7391  1.1967
   8023SM  C13S10613   3.213   2.006  15.888 -0.1856  0.3446 -0.6306
   8023SM  H13S10614   3.317   1.992  15.925 -0.2844 -0.3117 -0.5791
   8023SM  H13T10615   3.168   2.091  15.945 -1.9830 -1.1268  0.2832
   8023SM  C14S10616   3.201   2.053  15.743 -0.8182  0.6245 -0.3541
   8023SM  H14S10617   3.100   2.079  15.704 -0.3305 -0.1522 -2.2572
   8023SM  H14T10618   3.228   1.970  15.674 -1.9030  3.0591 -4.0070
   8023SM  C15S10619   3.296   2.168  15.709  0.2566  0.0012  0.5214
   8023SM  H15S10620   3.400   2.158  15.747 -0.2399  0.4460  2.0509
   8023SM  H15T10621   3.239   2.258  15.741 -0.1990  0.7987 -2.2516
   8023SM  C16S10622   3.305   2.174  15.558  0.8628 -0.3504 -0.1666
   8023SM  H16S10623   3.205   2.179  15.510 -0.0857 -1.8444  1.5429
   8023SM  H16T10624   3.359   2.082  15.527  2.7809  0.8208 -0.4797
   8023SM  C17S10625   3.390   2.297  15.515  0.4060  0.4229 -0.5385
   8023SM  H17S10626   3.497   2.272  15.526 -0.1709 -1.4415  1.9593
   8023SM  H17T10627   3.354   2.372  15.589  1.7243  2.3559 -1.7766
   8023SM  C18S10628   3.361   2.345  15.374 -0.0892 -0.3363  0.0295
   8023SM  H18S10629   3.425   2.436  15.369 -1.2787  0.5194  0.0360
   8023SM  H18T10630   3.252   2.359  15.362 -0.1974 -1.0805  0.0877
   8023SM  H18U10631   3.388   2.273  15.294  0.9813  1.5214 -1.3447
   8023SM   C1F10632   2.849   1.344  16.712 -0.5017 -0.7452 -0.2173
   8023SM    OF10633   2.741   1.323  16.767  0.0577  0.1669 -0.5562
   8023SM   C2F10634   2.864   1.305  16.572  0.6031  0.2907 -0.4181
   8023SM   H2F10635   2.954   1.357  16.533  1.9491 -0.4076  1.6134
   8023SM   H2G10636   2.770   1.338  16.521  0.0807 -0.7237 -0.1257
   8023SM   C3F10637   2.887   1.154  16.564 -0.1131 -0.5028 -0.8442
   8023SM   H3F10638   2.821   1.093  16.630 -0.4051  0.1174 -0.5650
   8023SM   H3G10639   2.994   1.152  16.594 -0.3095 -1.3000 -0.1499
   8023SM   C4F10640   2.877   1.091  16.419 -0.4742 -0.3410  0.4414
   8023SM   H4F10641   2.781   1.106  16.366 -0.0567 -2.2205 -0.9462
   8023SM   H4G10642   2.888   0.981  16.435 -0.7730 -0.3477  0.6190
   8023SM   C5F10643   2.982   1.146  16.325 -0.5849  0.1405  0.1056
   8023SM   H5F10644   3.082   1.101  16.341 -0.0883 -0.6444 -3.9812
   8023SM   H5G10645   3.001   1.251  16.356 -2.6322  0.5528  0.1157
   8023SM   C6F10646   2.966   1.136  16.175  0.3835  0.3863 -1.0914
   8023SM   H6F10647   2.856   1.122  16.163  0.2388 -0.3406  0.7315
   8023SM   H6G10648   3.016   1.048  16.131  0.8873 -0.6827  1.4623
   8023SM   C7F10649   3.010   1.257  16.097 -0.6637 -0.4281  0.4458
   8023SM   H7F10650   3.116   1.263  16.129 -0.3278  2.6600 -0.8859
   8023SM   H7G10651   2.970   1.358  16.123  2.0950  1.1994 -1.1161
   8023SM   C8F10652   2.994   1.254  15.947 -0.8580  0.0956  0.3059
   8023SM   H8F10653   2.890   1.234  15.914  0.0550  0.2394 -3.0810
   8023SM   H8G10654   3.051   1.172  15.897 -2.1171 -0.0291 -1.0005
   8023SM   C9F10655   3.035   1.392  15.889 -0.4330 -0.0295 -0.2064
   8023SM   H9F10656   3.145   1.407  15.897 -0.4461  0.0468 -0.1699
   8023SM   H9G10657   2.974   1.474  15.933 -0.7058  0.1809 -0.9564
   8023SM  C10F10658   3.006   1.414  15.738  0.0111  0.4890 -0.2236
   8023SM  H10F10659   2.897   1.413  15.716  0.1433 -0.1973 -0.9349
   8023SM  H10G10660   3.036   1.326  15.677  0.7939  1.4565 -1.2768
   8023SM  C11F10661   3.071   1.540  15.687  0.5256 -0.0942 -0.0594
   8023SM  H11F10662   3.181   1.533  15.672  0.8225  0.1207  1.7812
   8023SM  H11G10663   3.039   1.619  15.758 -0.5616 -1.3271  0.8777
   8023SM  C12F10664   3.018   1.595  15.553  0.1677  0.1750  0.2760
   8023SM  H12F10665   2.914   1.628  15.575  0.1093  0.8448 -0.9711
   8023SM  H12G10666   3.002   1.519  15.474  1.5803 -0.4962  0.6090
   8023SM  C13F10667   3.092   1.717  15.497  0.1665  0.1826  0.2542
   8023SM  H13F10668   3.192   1.682  15.463 -0.9855  0.0876 -3.4779
   8023SM  H13G10669   3.100   1.792  15.579 -1.0035 -0.5449  1.0625
   8023SM  C14F10670   3.021   1.781  15.371  0.1882  1.1525 -0.3493
   8023SM  H14F10671   2.918   1.812  15.399 -0.3231  0.0537 -0.9547
   8023SM  H14G10672   2.996   1.718  15.283 -0.3089 -0.1325  0.6755
   8023SM  C15F10673   3.104   1.900  15.319 -0.2706  0.1976  0.3470
   8023SM  H15F10674   3.172   1.856  15.243 -0.0713  2.1606 -0.6847
   8023SM  H15G10675   3.167   1.944  15.399 -0.0073  3.4474 -1.4660
   8023SM  C16F10676   3.021   2.004  15.243 -0.3554 -0.1503  0.0778
   8023SM  H16F10677   2.959   2.054  15.320  2.4062  1.5376  1.3758
   8023SM  H16G10678   2.955   1.945  15.176  0.5916 -0.5526 -0.5249
   8023SM  C17F10679   3.101   2.113  15.170  0.1857 -0.2042  0.6052
   8023SM  H17F10680   3.164   2.055  15.099 -1.1067  1.1641 -1.8097
   8023SM  H17G10681   3.161   2.167  15.246 -2.5132 -0.5323  3.1567
   8023SM  C18F10682   3.004   2.211  15.092 -0.4837 -0.0307  0.0042
   8023SM  H18F10683   2.931   2.258  15.161  1.7814 -1.0779  3.3429
   8023SM  H18G10684   2.955   2.149  15.014 -2.7625  0.2777  1.1019
   8023SM  C19F10685   3.095   2.325  15.036 -0.0687  0.2650 -0.1402
   8023SM  H19F10686   3.189   2.282  14.997 -0.5825  1.1063 -2.4852
   8023SM  H19G10687   3.116   2.385  15.127 -1.3832  0.4434  0.0687
   8023SM  C20F10688   3.016   2.400  14.928 -0.2714  0.0749 -0.7037
   8023SM  H20F10689   2.966   2.330  14.858 -0.5499  0.2053 -0.6361
   8023SM  H20G10690   3.086   2.454  14.861  1.2151  0.1796  0.8462
   8023SM  C21F10691   2.919   2.502  15.005  0.2457 -1.0537  0.4851
   8023SM  H21F10692   2.973   2.581  15.060 -1.2249  0.3825 -0.0456
   8023SM  H21G10693   2.875   2.436  15.083  1.2271 -1.6122  0.5838
   8023SM  C22F10694   2.813   2.568  14.907 -0.4601 -0.3661 -0.0311
   8023SM  H22F10695   2.875   2.633  14.841  0.2787 -2.4346 -1.4882
   8023SM  H22G10696   2.731   2.625  14.956 -0.2950 -0.1401 -0.0165
   8023SM  C23F10697   2.752   2.464  14.813 -0.8546 -1.1313 -0.2071
   8023SM  H23F10698   2.678   2.516  14.747 -0.7765  0.3186  0.8032
   8023SM  H23G10699   2.692   2.389  14.870 -0.2016 -2.0126 -0.6629
   8023SM  H23H10700   2.827   2.417  14.747 -0.1703  0.6266 -0.7516
   8123SM     N10701   5.964   5.005  12.122  0.1888 -0.0671 -0.6007
   8123SM   C1510702   6.021   4.894  12.208  0.7193 -0.6952  0.5516
   8123SM  H15A10703   6.082   4.837  12.140  1.7313  1.4465 -0.4131
   8123SM  H15B10704   5.938   4.836  12.247 -1.5334  0.9117 -1.5257
   8123SM  H15C10705   6.093   4.930  12.280  0.0933  0.6832  0.5229
   8123SM   C1410706   6.075   5.092  12.079  0.2890 -0.1686 -0.1645
   8123SM  H14A10707   6.145   5.107  12.159  3.3629  1.2615 -2.8949
   8123SM  H14B10708   6.027   5.188  12.065 -0.6165 -0.5632  0.1418
   8123SM  H14C10709   6.127   5.062  11.989 -0.6673 -4.9927  0.6445
   8123SM   C1310710   5.885   4.952  12.002 -0.5298 -0.3334 -0.0158
   8123SM  H13A10711   5.806   5.020  11.976  0.0792 -0.6972 -3.2302
   8123SM  H13B10712   5.836   4.860  12.030 -0.8713 -0.3222 -0.5739
   8123SM  H13C10713   5.947   4.930  11.916 -1.3002  2.1122 -1.3015
   8123SM   C1210714   5.870   5.086  12.203  0.0437  0.3650 -0.2781
   8123SM  H12A10715   5.788   5.021  12.230  0.6426 -1.1690 -1.9762
   8123SM  H12B10716   5.823   5.160  12.139 -0.8392  0.4823  0.4741
   8123SM   C1110717   5.924   5.152  12.329 -0.6084 -0.6453 -0.9925
   8123SM  H11A10718   5.838   5.207  12.374  0.8941  1.4276 -0.5123
   8123SM  H11B10719   5.993   5.236  12.304 -0.7812 -0.3086 -0.3656
   8123SM     P10720   6.098   5.105  12.517  0.1129 -0.0063  0.1665
   8123SM   O1310721   6.219   5.020  12.497  0.4861  0.2204 -0.6535
   8123SM   O1410722   6.130   5.246  12.491 -0.5753  0.4507 -0.4712
   8123SM   O1110723   6.033   5.084  12.662  0.1807  0.1365 -0.1912
   8123SM   O1210724   5.974   5.073  12.429 -0.2862  0.1755  0.5242
   8123SM   C1S10725   5.894   5.102  12.696 -0.0191  0.1791 -0.1653
   8123SM   H1S10726   5.830   5.015  12.671  0.8209 -0.5319  0.0621
   8123SM   H1T10727   5.853   5.188  12.639 -0.9802  1.0346  1.7220
   8123SM    NF10728   5.730   5.146  12.870  0.0659 -0.1827 -0.6950
   8123SM   HNF10729   5.699   5.240  12.868  1.8095  0.4289 -0.3133
   8123SM   C2S10730   5.870   5.131  12.847  0.3074  0.0165  0.2017
   8123SM   H2S10731   5.907   5.041  12.902 -1.1184 -0.3040  0.6869
   8123SM   C3S10732   5.960   5.258  12.886 -0.1069  0.2076  0.5717
   8123SM   H3S10733   5.933   5.342  12.819 -0.5699  0.1734  0.7104
   8123SM    O310734   6.098   5.233  12.869 -0.2077  0.0386 -0.7646
   8123SM   HO310735   6.102   5.145  12.829 -2.4407 -0.6852  0.4169
   8123SM   C4S10736   5.923   5.294  13.019  0.0095 -0.1111  0.4937
   8123SM   H4S10737   5.870   5.390  13.017 -2.3582 -1.3619 -1.1405
   8123SM   C5S10738   5.933   5.217  13.127 -0.0772  0.5452 -1.4646
   8123SM   H5S10739   5.960   5.111  13.131 -0.6281  0.4317  0.9734
   8123SM   C6S10740   5.880   5.267  13.262  0.6034  0.4117  0.0554
   8123SM   H6S10741   5.810   5.189  13.300  2.3119 -3.4735 -3.9012
   8123SM   H6T10742   5.821   5.360  13.248  1.3173  0.5484 -2.4931
   8123SM   C7S10743   5.977   5.313  13.371  0.1283  0.0239 -0.1646
   8123SM   H7S10744   6.035   5.401  13.336  0.9484 -0.6340 -0.4955
   8123SM   H7T10745   6.058   5.240  13.393  0.4030  0.6123  0.8525
   8123SM   C8S10746   5.910   5.336  13.507  0.1070  0.3321  0.2454
   8123SM   H8S10747   5.840   5.252  13.528  1.6177 -1.2295 -0.7574
   8123SM   H8T10748   5.837   5.420  13.509 -0.6305 -0.2239 -1.6537
   8123SM   C9S10749   6.002   5.336  13.630 -0.0690  0.2693 -0.3885
   8123SM   H9S10750   6.063   5.427  13.615 -0.4131  0.2236 -2.2402
   8123SM   H9T10751   6.068   5.247  13.631 -0.6256 -0.1640 -1.0855
   8123SM  C10S10752   5.919   5.333  13.760  0.2778 -0.4418  0.2830
   8123SM  H10S10753   5.857   5.241  13.754  2.2976 -1.9005  0.7656
   8123SM  H10T10754   5.855   5.424  13.768  0.1332 -0.4336 -0.7633
   8123SM  C11S10755   6.010   5.323  13.879 -0.3197 -0.0803  1.0540
   8123SM  H11S10756   6.087   5.403  13.887 -1.1254  0.9715 -1.0675
   8123SM  H11T10757   6.066   5.227  13.869  0.1685  0.2346  0.7293
   8123SM  C12S10758   5.930   5.314  14.011  0.2544 -0.7437  0.1854
   8123SM  H12S10759   5.890   5.210  14.006 -0.5107 -0.3972 -1.1859
   8123SM  H12T10760   5.846   5.387  14.010  1.3968  0.5920 -0.1701
   8123SM  C13S10761   6.023   5.310  14.136  0.4119  0.0858 -0.6585
   8123SM  H13S10762   6.092   5.396  14.127 -2.7445  2.6010 -3.0095
   8123SM  H13T10763   6.081   5.215  14.141 -0.5647 -0.4757  1.4644
   8123SM  C14S10764   5.932   5.321  14.264 -0.1340 -0.0240  0.2007
   8123SM  H14S10765   5.870   5.231  14.285  0.7946 -0.8216 -0.3959
   8123SM  H14T10766   5.864   5.408  14.251 -0.4706 -0.5735 -1.9939
   8123SM  C15S10767   6.000   5.367  14.391 -0.5212  0.1621 -0.0161
   8123SM  H15S10768   6.050   5.460  14.358  1.3909 -1.6561 -2.6983
   8123SM  H15T10769   6.072   5.286  14.417 -0.6101  0.5198  1.4438
   8123SM  C16S10770   5.915   5.412  14.512 -0.1393  0.6843  0.1764
   8123SM  H16S10771   5.840   5.334  14.534 -0.0688 -1.0912 -4.6863
   8123SM  H16T10772   5.859   5.505  14.486 -4.5774 -1.7414  0.0655
   8123SM  C17S10773   6.005   5.432  14.626 -0.4603  0.4330  0.3398
   8123SM  H17S10774   6.096   5.491  14.599 -0.0649 -0.4133 -0.2047
   8123SM  H17T10775   6.058   5.338  14.651  1.8851  0.8388 -2.4788
   8123SM  C18S10776   5.943   5.492  14.752 -0.2358  0.9518 -0.2577
   8123SM  H18S10777   5.841   5.452  14.771  0.4728 -0.1781  1.4469
   8123SM  H18T10778   5.929   5.602  14.746  1.4963  1.2260  0.1377
   8123SM  H18U10779   6.005   5.465  14.841 -1.7934  2.2553  1.3193
   8123SM   C1F10780   5.659   5.031  12.889 -0.1257  0.2187  0.4484
   8123SM    OF10781   5.709   4.921  12.864  0.0570 -0.2503 -0.0785
   8123SM   C2F10782   5.512   5.042  12.923 -0.3672 -0.2636 -0.4360
   8123SM   H2F10783   5.447   5.011  12.839 -0.7089 -1.4714  0.2547
   8123SM   H2G10784   5.483   5.149  12.927 -1.5983 -0.5364 -1.4501
   8123SM   C3F10785   5.484   4.960  13.053 -0.0303  0.2944 -0.3257
   8123SM   H3F10786   5.481   4.855  13.018  1.2424  0.1732 -0.1127
   8123SM   H3G10787   5.383   4.960  13.099  0.7233 -2.5744  1.5732
   8123SM   C4F10788   5.585   4.969  13.168 -0.1512 -0.0198 -0.3146
   8123SM   H4F10789   5.594   5.075  13.202 -2.5994 -0.2614  1.3775
   8123SM   H4G10790   5.685   4.932  13.136  0.3992  1.6009 -0.5994
   8123SM   C5F10791   5.554   4.881  13.290  0.3657 -0.1010  0.4892
   8123SM   H5F10792   5.569   4.771  13.275  0.3940  0.0930 -1.0658
   8123SM   H5G10793   5.450   4.906  13.321  1.2516  2.7445  1.4677
   8123SM   C6F10794   5.632   4.907  13.412 -0.3782 -0.1969  0.0855
   8123SM   H6F10795   5.630   5.014  13.441  1.9472  0.0397 -0.4241
   8123SM   H6G10796   5.736   4.870  13.397 -0.4924 -0.8211  0.7705
   8123SM   C7F10797   5.577   4.818  13.529  0.0043  0.3897  0.0211
   8123SM   H7F10798   5.466   4.829  13.528 -0.1074 -0.2965  1.6762
   8123SM   H7G10799   5.621   4.847  13.626  0.2740 -2.3121  0.7746
   8123SM   C8F10800   5.615   4.670  13.504 -0.0004  0.1072  0.2412
   8123SM   H8F10801   5.720   4.657  13.472  0.4164  2.2165  0.6140
   8123SM   H8G10802   5.553   4.621  13.426  2.2895 -1.6486 -0.5786
   8123SM   C9F10803   5.595   4.585  13.629 -0.2675 -0.5088  0.0984
   8123SM   H9F10804   5.488   4.585  13.660 -0.5442 -2.0868 -0.8108
   8123SM   H9G10805   5.638   4.639  13.717 -1.1708 -2.5887  1.9147
   8123SM  C10F10806   5.628   4.444  13.620 -0.1890  0.3694 -0.2277
   8123SM  H10F10807   5.738   4.432  13.616 -0.2150 -0.1962  0.5911
   8123SM  H10G10808   5.597   4.406  13.520 -1.8433 -0.4836  0.5735
   8123SM  C11F10809   5.580   4.342  13.725 -0.0979  0.1469 -0.0489
   8123SM  H11F10810   5.623   4.242  13.710 -0.5063 -0.0591  0.1255
   8123SM  H11G10811   5.469   4.334  13.714 -0.0251 -0.1746 -0.5845
   8123SM  C12F10812   5.608   4.373  13.876  0.2857 -1.1079  0.6036
   8123SM  H12F10813   5.565   4.295  13.943 -2.5823 -0.0263  0.2060
   8123SM  H12G10814   5.554   4.468  13.897  1.5248 -0.3480  0.4261
   8123SM  C13F10815   5.751   4.398  13.912 -0.1865  0.0876  0.4114
   8123SM  H13F10816   5.812   4.443  13.831  1.7497 -0.3655  1.5728
   8123SM  H13G10817   5.800   4.302  13.938 -0.3404 -0.4628 -1.1872
   8123SM  C14F10818   5.755   4.482  14.038 -0.5830 -0.4997 -0.2903
   8123SM  H14F10819   5.720   4.583  14.007 -1.5285 -1.3749 -2.1991
   8123SM  H14G10820   5.860   4.492  14.072 -1.6398  1.2554  3.0025
   8123SM  C15F10821   5.680   4.429  14.164 -0.3761 -0.7306 -0.1958
   8123SM  H15F10822   5.716   4.325  14.174 -0.6294 -0.7377  0.7153
   8123SM  H15G10823   5.574   4.419  14.134 -0.4389 -0.2643 -0.1380
   8123SM  C16F10824   5.710   4.499  14.297  0.3681  0.1463  0.2011
   8123SM  H16F10825   5.673   4.604  14.291  1.6110  0.6416  0.8887
   8123SM  H16G10826   5.819   4.493  14.317  0.8110 -1.7305 -2.3358
   8123SM  C17F10827   5.630   4.441  14.413 -0.0419  0.3412 -0.2456
   8123SM  H17F10828   5.650   4.333  14.433  1.6242  0.9120  1.4494
   8123SM  H17G10829   5.521   4.448  14.392 -0.3399  0.4040  1.2194
   8123SM  C18F10830   5.669   4.528  14.544 -0.0785 -0.1759  0.1010
   8123SM  H18F10831   5.575   4.564  14.592  0.5429  1.6407  0.0341
   8123SM  H18G10832   5.724   4.616  14.505 -1.5082  1.1229  0.8938
   8123SM  C19F10833   5.749   4.448  14.645 -0.4729  0.1741 -0.3314
   8123SM  H19F10834   5.840   4.401  14.602  0.7107  1.1894  0.9778
   8123SM  H19G10835   5.685   4.368  14.687  0.6671  0.6197  2.4627
   8123SM  C20F10836   5.798   4.537  14.760  0.1463 -0.7914  0.5477
   8123SM  H20F10837   5.811   4.642  14.726 -0.9269  0.5464  3.8711
   8123SM  H20G10838   5.902   4.515  14.791  0.0629 -1.3504  0.4351
   8123SM  C21F10839   5.705   4.527  14.881 -0.1474  0.4180  0.0732
   8123SM  H21F10840   5.705   4.423  14.920  1.1924  0.0571 -0.8034
   8123SM  H21G10841   5.603   4.550  14.841 -0.2320  0.6330  0.4127
   8123SM  C22F10842   5.736   4.629  14.987 -0.0217  0.0143  0.1839
   8123SM  H22F10843   5.695   4.725  14.950  1.1182 -0.1289 -1.5318
   8123SM  H22G10844   5.846   4.640  14.995  0.3222 -1.9436 -1.1020
   8123SM  C23F10845   5.692   4.585  15.124 -0.1833  0.3926  0.7634
   8123SM  H23F10846   5.583   4.567  15.132 -0.5191  2.1296  0.4839
   8123SM  H23G10847   5.728   4.659  15.199  2.2868 -0.2417  0.2845
   8123SM  H23H10848   5.740   4.488  15.148 -2.2442 -0.6332  0.9448
   8223SM     N10849   4.895   5.013  12.620 -0.3165 -0.3963 -1.1389
   8223SM   C1510850   4.910   5.113  12.514  0.1861 -0.0829  0.7785
   8223SM  H15A10851   4.863   5.209  12.530  0.8346  0.7241 -1.7292
   8223SM  H15B10852   4.873   5.070  12.422 -0.5122 -3.4186  2.4535
   8223SM  H15C10853   5.011   5.138  12.485  0.2243 -1.7373 -0.7436
   8223SM   C1410854   4.751   4.994  12.647 -0.0332 -0.0609  0.0127
   8223SM  H14A10855   4.700   4.954  12.561  2.0512 -2.1923 -0.3673
   8223SM  H14B10856   4.704   5.088  12.670  0.0955 -0.1385  0.6078
   8223SM  H14C10857   4.733   4.929  12.732 -2.8833 -0.8487 -1.0973
   8223SM   C1310858   4.957   4.886  12.582 -0.2557 -1.0927  0.8389
   8223SM  H13A10859   5.057   4.919  12.557 -1.2875  0.9395 -0.9709
   8223SM  H13B10860   4.922   4.839  12.491 -0.3700 -0.2620  0.4396
   8223SM  H13C10861   4.969   4.813  12.660  0.9508 -0.6334  1.1026
   8223SM   C1210862   4.966   5.067  12.747 -0.4163  0.4582 -1.0111
   8223SM  H12A10863   4.954   4.998  12.829 -0.6958  2.4858  0.7554
   8223SM  H12B10864   4.912   5.151  12.789  1.6283  0.6524  1.5110
   8223SM   C1110865   5.124   5.098  12.738  0.4845 -0.4444  0.0343
   8223SM  H11A10866   5.174   5.001  12.713 -0.9237 -0.9939 -0.7368
   8223SM  H11B10867   5.151   5.108  12.846 -0.7802  1.8870  0.1899
   8223SM     P10868   5.119   5.357  12.691  0.2870 -0.1893 -0.1451
   8223SM   O1310869   5.188   5.447  12.594  0.2083 -0.0638  0.5845
   8223SM   O1410870   4.973   5.365  12.696 -0.1519 -0.5697  0.8719
   8223SM   O1110871   5.168   5.385  12.841  0.5165 -0.0266  0.0954
   8223SM   O1210872   5.163   5.212  12.659 -0.0675  0.6950 -0.3087
   8223SM   C1S10873   5.083   5.340  12.951 -0.5252 -0.4468  0.2551
   8223SM   H1S10874   5.012   5.258  12.924  0.8821 -1.0608 -1.7801
   8223SM   H1T10875   5.013   5.423  12.978  0.6783  1.4527 -2.0406
   8223SM    NF10876   5.089   5.256  13.182  0.0293 -0.8709  0.1328
   8223SM   HNF10877   5.049   5.329  13.237  2.0446  0.6375 -0.2995
   8223SM   C2S10878   5.174   5.308  13.077  0.9294 -0.3481  0.1848
   8223SM   H2S10879   5.250   5.231  13.052 -1.0605 -2.6800  0.8610
   8223SM   C3S10880   5.261   5.424  13.120 -0.7071 -0.7111  0.5023
   8223SM   H3S10881   5.190   5.508  13.130 -1.1673 -0.1536 -4.6382
   8223SM    O310882   5.354   5.461  13.012 -0.1966  0.0661  0.4961
   8223SM   HO310883   5.311   5.426  12.933  0.5298 -0.9555  0.5175
   8223SM   C4S10884   5.341   5.412  13.251 -0.1019  0.5018 -0.3737
   8223SM   H4S10885   5.267   5.402  13.332 -0.1400 -2.6090 -0.6449
   8223SM   C5S10886   5.471   5.414  13.273 -0.6218  0.0555 -0.6805
   8223SM   H5S10887   5.545   5.410  13.191  1.0696 -4.1641  0.7698
   8223SM   C6S10888   5.541   5.381  13.407 -0.1145 -0.4564 -0.4149
   8223SM   H6S10889   5.568   5.478  13.454 -0.9061 -0.1140 -0.6548
   8223SM   H6T10890   5.644   5.342  13.388  0.5202  0.3357  1.2813
   8223SM   C7S10891   5.477   5.281  13.511 -0.1329 -0.0825  1.0714
   8223SM   H7S10892   5.488   5.189  13.449  2.0329  1.3462 -0.8251
   8223SM   H7T10893   5.372   5.315  13.518 -0.2449 -0.1975  0.0403
   8223SM   C8S10894   5.566   5.262  13.633 -0.1448 -0.1821 -0.1893
   8223SM   H8S10895   5.623   5.356  13.648  2.3390 -1.6460 -0.0598
   8223SM   H8T10896   5.642   5.186  13.605  0.9353  1.3124 -1.4670
   8223SM   C9S10897   5.496   5.215  13.758 -0.4897  0.2809  0.4132
   8223SM   H9S10898   5.451   5.115  13.739  0.7761 -0.3156  0.4809
   8223SM   H9T10899   5.409   5.277  13.790 -0.2520  0.1845  1.2562
   8223SM  C10S10900   5.582   5.212  13.880 -0.5072 -0.3238  0.2152
   8223SM  H10S10901   5.652   5.298  13.892  0.1932 -0.6381 -1.3572
   8223SM  H10T10902   5.653   5.128  13.868  0.1360  0.3189 -0.6566
   8223SM  C11S10903   5.503   5.190  14.006 -0.0677 -1.0107  0.0577
   8223SM  H11S10904   5.444   5.095  14.002 -1.7198 -0.0122 -0.3213
   8223SM  H11T10905   5.432   5.275  14.008  1.3092  0.3025 -2.4540
   8223SM  C12S10906   5.594   5.190  14.133  0.4419  0.6892 -0.2325
   8223SM  H12S10907   5.663   5.277  14.126  3.3655 -1.5801 -1.5184
   8223SM  H12T10908   5.661   5.102  14.127  0.4752  0.6605  0.4866
   8223SM  C13S10909   5.508   5.193  14.255  0.1499 -0.2727 -0.2517
   8223SM  H13S10910   5.449   5.099  14.266  1.4504 -1.4716 -2.5354
   8223SM  H13T10911   5.426   5.267  14.252 -0.1657 -0.5863  0.4145
   8223SM  C14S10912   5.595   5.213  14.379  0.3729 -0.5763  0.5773
   8223SM  H14S10913   5.660   5.303  14.369  0.3671 -0.6773 -0.4769
   8223SM  H14T10914   5.665   5.127  14.372 -0.2171 -0.9327 -5.2031
   8223SM  C15S10915   5.516   5.232  14.511 -0.0374  0.0069  0.4292
   8223SM  H15S10916   5.462   5.137  14.530 -0.3110  0.3692  1.5638
   8223SM  H15T10917   5.442   5.315  14.506 -0.4841 -0.4304 -0.3231
   8223SM  C16S10918   5.606   5.265  14.631 -0.5380  0.1273 -0.1477
   8223SM  H16S10919   5.649   5.367  14.629  1.7754 -0.7671  0.5657
   8223SM  H16T10920   5.696   5.200  14.629 -0.1274  0.6437  0.9986
   8223SM  C17S10921   5.536   5.232  14.765 -0.0500  0.5837  0.4998
   8223SM  H17S10922   5.496   5.129  14.775  0.1038  0.4698 -0.0417
   8223SM  H17T10923   5.441   5.290  14.770  0.2819  1.3996 -1.6332
   8223SM  C18S10924   5.610   5.261  14.894 -0.9048  0.4126  0.6715
   8223SM  H18S10925   5.555   5.244  14.989 -0.8088 -3.9576  0.1821
   8223SM  H18T10926   5.655   5.362  14.886  3.9812 -1.3714  1.5047
   8223SM  H18U10927   5.703   5.200  14.907 -0.3926  0.7040 -1.3297
   8223SM   C1F10928   5.059   5.126  13.183 -0.1387 -0.0463  0.5995
   8223SM    OF10929   5.093   5.056  13.092 -0.2823 -0.1578  0.0549
   8223SM   C2F10930   4.979   5.073  13.298  0.1311 -0.4931 -0.4791
   8223SM   H2F10931   4.899   5.145  13.325  0.4704 -0.1793 -0.3221
   8223SM   H2G10932   5.053   5.047  13.376 -1.4745 -2.9518  0.3637
   8223SM   C3F10933   4.912   4.934  13.271  0.2550  0.3758  0.6106
   8223SM   H3F10934   4.979   4.856  13.228  2.0491  2.3204 -0.2421
   8223SM   H3G10935   4.829   4.943  13.198  0.0194  0.7904  0.9249
   8223SM   C4F10936   4.847   4.889  13.401  0.8114  0.4749 -0.6632
   8223SM   H4F10937   4.933   4.879  13.471  0.8185 -1.6184 -0.9035
   8223SM   H4G10938   4.810   4.788  13.373  2.4404 -0.1759 -0.5565
   8223SM   C5F10939   4.727   4.975  13.459  0.0234 -0.7880 -0.2137
   8223SM   H5F10940   4.640   4.990  13.391  0.6660 -2.2971 -1.4148
   8223SM   H5G10941   4.766   5.078  13.476  0.8978 -1.1214 -0.1679
   8223SM   C6F10942   4.674   4.923  13.597  0.0319  0.7382  0.8806
   8223SM   H6F10943   4.664   4.814  13.576  1.1004  0.3811  2.0833
   8223SM   H6G10944   4.571   4.956  13.622 -0.7657 -0.4681 -0.6296
   8223SM   C7F10945   4.774   4.929  13.708 -0.3771 -0.6731  0.0461
   8223SM   H7F10946   4.823   5.029  13.706  0.4828 -1.0897 -0.4262
   8223SM   H7G10947   4.853   4.852  13.693 -0.6111 -0.6355 -1.6153
   8223SM   C8F10948   4.715   4.905  13.853 -1.0899 -0.0156  0.2689
   8223SM   H8F10949   4.653   4.812  13.856  0.9855 -1.4844  0.1691
   8223SM   H8G10950   4.642   4.988  13.862 -0.7748  0.2695  0.1691
   8223SM   C9F10951   4.811   4.900  13.973  0.0726 -0.3925 -0.0453
   8223SM   H9F10952   4.881   4.986  13.960 -0.6813  0.1172 -0.8070
   8223SM   H9G10953   4.884   4.818  13.956  0.2855  0.0819 -1.6412
   8223SM  C10F10954   4.750   4.877  14.111 -0.2863  0.0917 -0.3114
   8223SM  H10F10955   4.693   4.782  14.114 -2.4412  1.1873 -2.7858
   8223SM  H10G10956   4.677   4.957  14.136 -0.2631 -0.3316  1.2111
   8223SM  C11F10957   4.849   4.895  14.227  0.3084  0.0010  0.2675
   8223SM  H11F10958   4.883   5.001  14.236 -0.0506  0.4279 -2.4847
   8223SM  H11G10959   4.932   4.822  14.224 -0.4210 -0.8661  0.7544
   8223SM  C12F10960   4.781   4.854  14.364 -0.2224 -0.1869  0.8797
   8223SM  H12F10961   4.748   4.748  14.358 -0.1872 -0.1184 -0.7114
   8223SM  H12G10962   4.688   4.913  14.376 -0.1770  0.1689 -0.3984
   8223SM  C13F10963   4.875   4.887  14.485 -0.2328 -0.0388  0.5648
   8223SM  H13F10964   4.900   4.995  14.484  1.2974 -0.3697 -1.1548
   8223SM  H13G10965   4.962   4.819  14.475 -2.0968 -2.2706 -1.7404
   8223SM  C14F10966   4.808   4.852  14.618 -0.2100  0.1135  0.3883
   8223SM  H14F10967   4.778   4.745  14.619  1.3636 -0.4292 -2.1159
   8223SM  H14G10968   4.717   4.915  14.629  0.3218  0.9050  0.4020
   8223SM  C15F10969   4.897   4.884  14.743  0.2040 -0.1873  0.9113
   8223SM  H15F10970   4.917   4.993  14.731  0.6915 -0.2539  1.0975
   8223SM  H15G10971   4.994   4.830  14.751 -1.0815 -2.6243  0.6059
   8223SM  C16F10972   4.809   4.871  14.867  0.9182 -0.8220 -0.5175
   8223SM  H16F10973   4.794   4.762  14.883 -0.6458 -0.4434  0.7315
   8223SM  H16G10974   4.709   4.916  14.853  1.3464  0.1593 -0.5386
   8223SM  C17F10975   4.876   4.937  14.991  0.0845  0.1165 -0.0864
   8223SM  H17F10976   4.904   5.045  14.982 -0.2480  0.5064  2.7586
   8223SM  H17G10977   4.971   4.883  15.010  0.0717  0.5865  1.4480
   8223SM  C18F10978   4.798   4.913  15.119  0.8612 -0.8405 -0.0985
   8223SM  H18F10979   4.816   4.812  15.163 -1.5862 -1.3806 -0.1613
   8223SM  H18G10980   4.691   4.922  15.088  0.5574 -0.8205  0.9174
   8223SM  C19F10981   4.832   5.027  15.221  0.4610  0.3120  0.6307
   8223SM  H19F10982   4.810   5.120  15.164 -1.4889  0.8850  2.2139
   8223SM  H19G10983   4.940   5.013  15.243  0.4857 -0.9217 -0.1703
   8223SM  C20F10984   4.749   5.034  15.352 -0.6162  0.3608 -0.4042
   8223SM  H20F10985   4.762   4.936  15.402 -2.5000  0.4725  0.3659
   8223SM  H20G10986   4.645   5.056  15.322 -1.6045 -2.4660  0.7042
   8223SM  C21F10987   4.787   5.138  15.448  0.4351  0.1252 -0.3766
   8223SM  H21F10988   4.791   5.241  15.407  0.1497  1.0977  1.8819
   8223SM  H21G10989   4.887   5.111  15.488  0.2241  0.9999  0.8094
   8223SM  C22F10990   4.707   5.136  15.579 -0.7846 -0.1147 -0.4102
   8223SM  H22F10991   4.765   5.187  15.659 -0.6496 -1.1001  0.1445
   8223SM  H22G10992   4.696   5.033  15.619  0.5217  0.0298  0.3650
   8223SM  C23F10993   4.576   5.206  15.561 -0.0855  0.2384  1.3969
   8223SM  H23F10994   4.528   5.141  15.485  0.8488 -0.4235  1.3555
   8223SM  H23G10995   4.595   5.309  15.522  0.0512  0.3011  1.6241
   8223SM  H23H10996   4.518   5.215  15.655 -0.3100  1.2230  1.1801
   8323SM     N10997   0.010   5.530  12.479  0.0101 -0.0381 -0.3421
   8323SM   C1510998  -0.031   5.620  12.368  0.1724 -0.0069  0.4201
   8323SM  H15A10999   0.045   5.688  12.333  1.4718 -1.1026  1.0076
   8323SM  H15B11000  -0.114   5.682  12.400  1.4112  2.0618 -0.1783
   8323SM  H15C11001  -0.062   5.558  12.285 -1.2264  0.4716  0.5534
   8323SM   C1411002   0.023   5.617  12.604 -0.8560 -0.5863 -1.3691
   8323SM  H14A11003   0.080   5.561  12.676 -2.6673  1.6947  2.1153
   8323SM  H14B11004  -0.078   5.631  12.640 -0.5847 -0.8161 -0.4912
   8323SM  H14C11005   0.075   5.708  12.577  0.7926 -1.4305 -1.1427
   8323SM   C1311006  -0.083   5.426  12.494 -0.4020 -0.4969  0.5305
   8323SM  H13A11007  -0.056   5.354  12.570 -1.2497 -1.3454  0.0600
   8323SM  H13B11008  -0.094   5.375  12.399  0.3821  1.3791 -0.6309
   8323SM  H13C11009  -0.181   5.469  12.510  0.0508  1.5855 -1.6991
   8323SM   C1211010   0.150   5.471  12.445 -0.0549  1.0364  0.4381
   8323SM  H12A11011   0.227   5.545  12.433  2.7650 -1.9305 -1.6374
   8323SM  H12B11012   0.144   5.424  12.348 -2.6138  1.8934  0.1190
   8323SM   C1111013   0.217   5.384  12.549  0.6360  0.1669 -0.5224
   8323SM  H11A11014   0.219   5.441  12.644 -0.5495 -2.7889  1.4270
   8323SM  H11B11015   0.324   5.376  12.520  1.1316  0.7585  1.0203
   8323SM     P11016   0.199   5.162  12.678 -0.1192 -0.1703  0.0126
   8323SM   O1311017   0.126   5.032  12.672 -0.4844 -0.1088  0.0049
   8323SM   O1411018   0.347   5.165  12.669  1.1522  0.2977  0.5740
   8323SM   O1111019   0.163   5.228  12.812 -0.0363  0.0997  0.4519
   8323SM   O1211020   0.144   5.255  12.562 -0.7255  0.7315 -0.5826
   8323SM   C1S11021   0.025   5.259  12.843 -0.2888 -0.2650 -0.4180
   8323SM   H1S11022  -0.032   5.168  12.870  1.8428 -1.3593  0.7012
   8323SM   H1T11023  -0.022   5.328  12.770 -0.0126  0.8985  0.4679
   8323SM    NF11024  -0.110   5.311  13.039 -0.7673 -0.0217  0.4941
   8323SM   HNF11025  -0.171   5.389  13.024 -1.0537 -0.2542  0.4362
   8323SM   C2S11026   0.019   5.328  12.981  0.7245  0.7036 -0.0299
   8323SM   H2S11027   0.092   5.278  13.048  0.6896  1.0830  0.2899
   8323SM   C3S11028   0.058   5.475  12.954  0.2893 -0.3692 -0.1664
   8323SM   H3S11029  -0.009   5.518  12.876  1.2449 -0.5916 -1.1267
   8323SM    O311030   0.191   5.479  12.906 -0.3921  0.3023  0.0002
   8323SM   HO311031   0.215   5.389  12.881  0.7543 -1.0548  4.9402
   8323SM   C4S11032   0.038   5.554  13.076  0.1749  0.3737  0.0792
   8323SM   H4S11033  -0.068   5.583  13.072  0.4421  1.2950 -0.6413
   8323SM   C5S11034   0.113   5.595  13.178 -0.2023 -0.4585  0.0833
   8323SM   H5S11035   0.214   5.553  13.182  0.0135  0.0850  0.4210
   8323SM   C6S11036   0.050   5.659  13.302 -0.1731  0.1274  1.2095
   8323SM   H6S11037  -0.060   5.667  13.293 -0.4513 -3.2008  0.5147
   8323SM   H6T11038   0.094   5.761  13.308  1.9252 -0.4574 -1.9868
   8323SM   C7S11039   0.088   5.576  13.426  0.0119 -0.1079  0.3737
   8323SM   H7S11040   0.196   5.552  13.437  0.6172  2.6415  1.4210
   8323SM   H7T11041   0.033   5.481  13.416 -0.2838  0.2172 -1.5977
   8323SM   C8S11042   0.033   5.642  13.554  0.5771 -0.0090  0.8027
   8323SM   H8S11043  -0.075   5.653  13.532  0.6543  1.8553  1.2749
   8323SM   H8T11044   0.073   5.745  13.555  1.5964 -0.3446 -0.8385
   8323SM   C9S11045   0.053   5.557  13.686  0.5251  0.0279  0.6548
   8323SM   H9S11046   0.159   5.527  13.679 -0.2123 -2.7249  0.1791
   8323SM   H9T11047  -0.015   5.469  13.689  1.6903 -0.9320 -0.0397
   8323SM  C10S11048   0.043   5.645  13.810  0.5991  0.0367 -0.2152
   8323SM  H10S11049  -0.060   5.686  13.810 -0.5510 -2.6495 -0.5980
   8323SM  H10T11050   0.124   5.721  13.806  0.0978  0.5570 -0.4499
   8323SM  C11S11051   0.061   5.569  13.936  0.3151 -0.0835 -0.6456
   8323SM  H11S11052   0.168   5.548  13.955  0.5500  2.5835  1.5972
   8323SM  H11T11053   0.000   5.477  13.926 -1.3549  0.5547  2.4234
   8323SM  C12S11054   0.013   5.641  14.062 -0.0577  0.1119 -0.3039
   8323SM  H12S11055   0.021   5.579  14.153  0.2283  1.0081  0.2935
   8323SM  H12T11056  -0.095   5.667  14.052  0.3097  1.8525 -0.1539
   8323SM  C13S11057   0.096   5.771  14.091  0.5382 -0.1295 -0.2101
   8323SM  H13S11058   0.076   5.843  14.009  1.0562  0.3033  0.0410
   8323SM  H13T11059   0.203   5.741  14.097  0.3023 -0.8405  0.6378
   8323SM  C14S11060   0.057   5.828  14.228 -0.2526  0.8952  0.6972
   8323SM  H14S11061   0.123   5.915  14.251 -0.5224  0.6892  2.3513
   8323SM  H14T11062   0.082   5.751  14.304 -0.0894 -0.1692 -0.3993
   8323SM  C15S11063  -0.088   5.866  14.243 -0.3696 -0.2527  0.6279
   8323SM  H15S11064  -0.149   5.780  14.276 -0.5691 -1.6927 -2.9901
   8323SM  H15T11065  -0.127   5.901  14.144  0.3413  0.4338  0.5788
   8323SM  C16S11066  -0.114   5.971  14.348 -0.6852  0.1093  0.2442
   8323SM  H16S11067  -0.223   5.989  14.356 -0.5274  1.2101  0.0995
   8323SM  H16T11068  -0.076   6.072  14.323 -0.6368  0.2320  0.7974
   8323SM  C17S11069  -0.079   5.928  14.494 -0.0780  1.2083  0.4049
   8323SM  H17S11070   0.004   5.854  14.494 -0.1757  1.0952 -0.0713
   8323SM  H17T11071  -0.172   5.884  14.537  0.5587  1.1318  1.7769
   8323SM  C18S11072  -0.018   6.042  14.580 -0.4138  0.1606 -0.3027
   8323SM  H18S11073  -0.012   6.027  14.690  1.0315 -1.0670 -0.5203
   8323SM  H18T11074  -0.077   6.135  14.563 -0.0976  0.1111 -1.8239
   8323SM  H18U11075   0.085   6.054  14.540 -0.2354  0.7003  0.2998
   8323SM   C1F11076  -0.167   5.203  13.096  0.3751  0.0618 -0.6832
   8323SM    OF11077  -0.101   5.097  13.115  0.3894 -0.2053  0.3759
   8323SM   C2F11078  -0.318   5.212  13.122  0.3958  0.6619  0.0770
   8323SM   H2F11079  -0.364   5.177  13.027 -1.3392  0.9802  0.7523
   8323SM   H2G11080  -0.355   5.317  13.127 -1.7808 -0.0471  0.0151
   8323SM   C3F11081  -0.362   5.121  13.237  0.5107 -0.1795  0.2851
   8323SM   H3F11082  -0.385   5.021  13.192  2.1095 -0.4762  0.0494
   8323SM   H3G11083  -0.462   5.162  13.260  0.4649 -0.0744 -0.1009
   8323SM   C4F11084  -0.278   5.135  13.365  0.7615  0.1510  0.0427
   8323SM   H4F11085  -0.169   5.118  13.349  0.7245  1.4288 -2.0367
   8323SM   H4G11086  -0.308   5.059  13.440 -2.9593 -1.9038 -3.1484
   8323SM   C5F11087  -0.286   5.285  13.425 -0.1594 -0.6301  0.8336
   8323SM   H5F11088  -0.394   5.312  13.430  0.1636  0.8065  0.5292
   8323SM   H5G11089  -0.236   5.346  13.347 -0.3730 -0.0241  1.1616
   8323SM   C6F11090  -0.218   5.308  13.559  0.5948 -0.4128  0.4601
   8323SM   H6F11091  -0.222   5.418  13.569  0.0099 -0.3586 -0.3014
   8323SM   H6G11092  -0.110   5.286  13.565  0.8312  0.7264  0.5444
   8323SM   C7F11093  -0.299   5.250  13.677 -0.0328 -0.6866 -0.3949
   8323SM   H7F11094  -0.301   5.139  13.672  0.5799 -0.7737  0.9799
   8323SM   H7G11095  -0.401   5.294  13.668  0.3153  0.0050 -1.1038
   8323SM   C8F11096  -0.248   5.318  13.806  0.0170  0.3151  0.1790
   8323SM   H8F11097  -0.253   5.429  13.816 -1.0896  0.2937  0.0582
   8323SM   H8G11098  -0.144   5.281  13.811 -0.4925 -1.1031  0.6786
   8323SM   C9F11099  -0.314   5.255  13.931 -0.3758 -0.4767  0.0517
   8323SM   H9F11100  -0.314   5.145  13.914 -1.2462 -0.5717  0.6159
   8323SM   H9G11101  -0.420   5.287  13.941  0.6415  3.7737 -0.8064
   8323SM  C10F11102  -0.238   5.290  14.064  0.3877 -0.0138 -0.6361
   8323SM  H10F11103  -0.231   5.400  14.072 -0.6856  0.0508 -0.3551
   8323SM  H10G11104  -0.134   5.251  14.064 -0.0144 -1.1618  0.3585
   8323SM  C11F11105  -0.315   5.233  14.182 -0.3427  0.4540 -0.0935
   8323SM  H11F11106  -0.318   5.122  14.188 -4.4356  0.4702  1.3929
   8323SM  H11G11107  -0.423   5.258  14.171 -0.0361  2.3202  0.8207
   8323SM  C12F11108  -0.247   5.278  14.314  0.1481 -0.2442  0.5958
   8323SM  H12F11109  -0.250   5.389  14.314 -1.3574 -0.2597 -0.7753
   8323SM  H12G11110  -0.143   5.239  14.317  0.4949  0.6774  0.8810
   8323SM  C13F11111  -0.316   5.237  14.452  0.1378  0.4402 -0.0887
   8323SM  H13F11112  -0.328   5.127  14.449  1.1274  0.3035 -3.2155
   8323SM  H13G11113  -0.416   5.284  14.440  1.2384  2.4924 -2.0027
   8323SM  C14F11114  -0.241   5.293  14.574 -0.2947 -0.4995  0.0001
   8323SM  H14F11115  -0.202   5.394  14.552 -0.7304 -0.5635 -1.1486
   8323SM  H14G11116  -0.152   5.229  14.591  2.1105  2.0707 -1.9732
   8323SM  C15F11117  -0.335   5.294  14.697  0.0629 -0.2219  0.4744
   8323SM  H15F11118  -0.375   5.191  14.704  0.3278 -0.5142 -1.7468
   8323SM  H15G11119  -0.410   5.372  14.675  0.4892  0.6968  2.1208
   8323SM  C16F11120  -0.253   5.328  14.824  0.9364 -0.2308  0.0139
   8323SM  H16F11121  -0.227   5.434  14.805  0.6385 -0.4535 -1.7617
   8323SM  H16G11122  -0.159   5.268  14.825  0.9225 -0.2501  0.2304
   8323SM  C17F11123  -0.337   5.321  14.950  0.0956 -0.2043  0.6200
   8323SM  H17F11124  -0.263   5.346  15.029 -0.3719 -3.2131  2.1734
   8323SM  H17G11125  -0.384   5.220  14.954 -1.8759  0.6927  1.8861
   8323SM  C18F11126  -0.443   5.433  14.965 -0.0812  0.4157 -0.1966
   8323SM  H18F11127  -0.500   5.433  14.870 -1.5386 -1.2712  0.6142
   8323SM  H18G11128  -0.396   5.533  14.979 -2.4121  1.4379  0.8077
   8323SM  C19F11129  -0.544   5.408  15.083  0.5526 -0.5872 -0.0877
   8323SM  H19F11130  -0.491   5.389  15.179 -0.5282 -0.2699  0.5829
   8323SM  H19G11131  -0.600   5.317  15.051  0.7489 -0.4913 -0.7229
   8323SM  C20F11132  -0.638   5.526  15.105 -0.4551  0.2681  0.0584
   8323SM  H20F11133  -0.666   5.566  15.006  0.7656 -1.6297 -1.1236
   8323SM  H20G11134  -0.577   5.598  15.163 -0.2828  1.3035 -1.3615
   8323SM  C21F11135  -0.757   5.502  15.198  0.5872 -0.4559 -0.1247
   8323SM  H21F11136  -0.715   5.489  15.300  0.6966 -0.8867 -0.2219
   8323SM  H21G11137  -0.800   5.402  15.177 -0.4835 -0.1387  0.5060
   8323SM  C22F11138  -0.848   5.620  15.197  0.4030 -0.8194 -0.7854
   8323SM  H22F11139  -0.936   5.589  15.257 -0.1800  0.7115 -0.8234
   8323SM  H22G11140  -0.871   5.637  15.090  0.0041  1.7438 -0.3466
   8323SM  C23F11141  -0.800   5.745  15.273  0.2598  0.0528 -0.8832
   8323SM  H23F11142  -0.753   5.713  15.369 -0.0544  0.1601 -0.6934
   8323SM  H23G11143  -0.882   5.820  15.279 -0.2536 -0.4898 -1.0505
   8323SM  H23H11144  -0.713   5.795  15.226  0.9415 -0.8874 -0.6569
   8423SM     N11145   5.638   2.937  12.568  1.0858 -0.1070 -0.5672
   8423SM   C1511146   5.771   2.877  12.543 -0.0191  0.7426 -0.7506
   8423SM  H15A11147   5.805   2.794  12.603  0.8003  1.1264 -0.6670
   8423SM  H15B11148   5.843   2.956  12.556  2.3766 -1.1745 -1.4372
   8423SM  H15C11149   5.789   2.857  12.438 -0.3620  1.4146 -0.9403
   8423SM   C1411150   5.615   3.036  12.463  0.0725 -0.1695 -0.1293
   8423SM  H14A11151   5.513   3.071  12.471 -1.2900 -3.8396  0.4660
   8423SM  H14B11152   5.632   2.992  12.367  0.9624  0.0880 -0.1008
   8423SM  H14C11153   5.693   3.111  12.472 -0.5549  0.2714  2.7163
   8423SM   C1311154   5.536   2.826  12.561 -0.0117 -0.0809 -0.5917
   8423SM  H13A11155   5.434   2.855  12.585 -0.2030 -0.8482 -0.4595
   8423SM  H13B11156   5.566   2.758  12.639 -1.5036 -0.3206 -0.1846
   8423SM  H13C11157   5.537   2.780  12.463  2.1353  0.2312 -0.7571
   8423SM   C1211158   5.632   3.006  12.703 -0.6853 -1.0964  0.1164
   8423SM  H12A11159   5.640   2.921  12.769  2.1026 -0.2026  1.0526
   8423SM  H12B11160   5.538   3.056  12.722 -1.6243 -2.3793 -0.9525
   8423SM   C1111161   5.761   3.086  12.742  0.5635  0.1299 -0.8270
   8423SM  H11A11162   5.846   3.016  12.749  0.7171  0.3280 -0.7059
   8423SM  H11B11163   5.752   3.130  12.843  0.5435  1.7527 -1.4970
   8423SM     P11164   5.946   3.245  12.650 -0.0126  0.1887 -0.0311
   8423SM   O1311165   6.022   3.139  12.581 -0.2614 -0.2321 -0.4942
   8423SM   O1411166   5.958   3.381  12.593  0.7582 -0.1941 -0.5655
   8423SM   O1111167   5.986   3.250  12.805  0.6775  0.2827  0.3158
   8423SM   O1211168   5.798   3.197  12.653 -0.7964  0.3754  0.0811
   8423SM   C1S11169   5.935   3.362  12.878 -1.0211  0.0605 -0.3960
   8423SM   H1S11170   5.830   3.380  12.845 -1.5279 -2.0673 -0.1437
   8423SM   H1T11171   5.992   3.457  12.873 -2.7775  1.3749  2.0987
   8423SM    NF11172   5.836   3.447  13.089 -0.6332  0.1594 -0.3261
   8423SM   HNF11173   5.883   3.531  13.116  1.9500 -1.3393  0.1981
   8423SM   C2S11174   5.927   3.346  13.038 -0.5673 -0.2530 -0.8724
   8423SM   H2S11175   5.888   3.244  13.057  1.5332 -0.8728  0.4011
   8423SM   C3S11176   6.072   3.352  13.099  0.1884  0.0561  0.4409
   8423SM   H3S11177   6.128   3.444  13.071  2.6356 -1.5603 -0.3318
   8423SM    O311178   6.146   3.251  13.032 -0.3838  0.3723 -0.0202
   8423SM   HO311179   6.094   3.233  12.954  2.1816 -1.6911 -1.3973
   8423SM   C4S11180   6.065   3.330  13.245  0.0093  0.2242  0.1124
   8423SM   H4S11181   6.030   3.232  13.281  0.6914  0.6813  2.1726
   8423SM   C5S11182   6.078   3.432  13.337 -0.1484  0.1395  0.0042
   8423SM   H5S11183   6.106   3.534  13.305 -2.4876  0.6364 -0.6473
   8423SM   C6S11184   6.046   3.413  13.481  0.4518  0.0632  0.3714
   8423SM   H6S11185   5.968   3.488  13.507 -0.0528  0.2192 -1.4878
   8423SM   H6T11186   6.136   3.441  13.541  0.4731  0.5703  0.1138
   8423SM   C7S11187   5.985   3.281  13.540 -0.9707  0.0983 -0.4399
   8423SM   H7S11188   6.023   3.188  13.492 -2.3084 -0.7201  0.0328
   8423SM   H7T11189   5.875   3.284  13.525 -1.0869 -2.0173 -0.3573
   8423SM   C8S11190   6.009   3.290  13.691  0.1262  0.2599 -0.3343
   8423SM   H8S11191   5.966   3.387  13.723  0.4378  0.4867 -0.5876
   8423SM   H8T11192   6.114   3.291  13.727 -0.0840  0.1056  0.3038
   8423SM   C9S11193   5.936   3.184  13.766  0.4038  0.3623  0.0741
   8423SM   H9S11194   5.961   3.081  13.733  1.2154  0.9860 -1.3486
   8423SM   H9T11195   5.826   3.187  13.752  0.2435 -0.9760  0.8583
   8423SM  C10S11196   5.962   3.184  13.916  0.3350 -0.4084  0.7537
   8423SM  H10S11197   5.926   3.285  13.947  1.9283  0.5847 -0.4881
   8423SM  H10T11198   6.071   3.186  13.937  0.5129  0.0783 -0.1903
   8423SM  C11S11199   5.893   3.076  14.002  0.4424 -0.6726  0.2171
   8423SM  H11S11200   5.944   2.978  14.007  2.3360  0.2841  0.5854
   8423SM  H11T11201   5.791   3.060  13.959  1.0009 -0.0190 -1.4293
   8423SM  C12S11202   5.889   3.114  14.149  0.9039  0.3089  0.3096
   8423SM  H12S11203   5.865   3.221  14.167 -0.6601 -0.2830  1.9944
   8423SM  H12T11204   5.994   3.100  14.182  0.4722  0.5433  1.8365
   8423SM  C13S11205   5.786   3.032  14.227 -0.3894  0.0291 -0.3785
   8423SM  H13S11206   5.801   2.923  14.210  3.9974  0.3981 -0.0332
   8423SM  H13T11207   5.686   3.071  14.197 -0.7399 -0.6139 -0.0824
   8423SM  C14S11208   5.818   3.040  14.377  0.0450 -0.3954 -0.4965
   8423SM  H14S11209   5.823   3.149  14.399 -1.1750 -0.4112 -0.0297
   8423SM  H14T11210   5.914   2.999  14.413 -0.4312  0.9354  2.6664
   8423SM  C15S11211   5.701   2.986  14.466  0.9146 -0.6926 -0.5126
   8423SM  H15S11212   5.702   2.881  14.431 -0.3455 -1.7802  2.3864
   8423SM  H15T11213   5.604   3.023  14.425  0.0013 -2.9176 -0.5185
   8423SM  C16S11214   5.722   2.998  14.618 -0.5607  0.1095 -1.4516
   8423SM  H16S11215   5.722   3.105  14.647 -0.8199 -0.4594  0.8127
   8423SM  H16T11216   5.821   2.955  14.648 -0.4512  2.2942  1.7768
   8423SM  C17S11217   5.610   2.932  14.704 -0.1527  0.3504 -0.4255
   8423SM  H17S11218   5.597   2.829  14.663 -0.9168 -0.1564  1.0261
   8423SM  H17T11219   5.513   2.984  14.693 -0.0014  1.0588  1.3916
   8423SM  C18S11220   5.647   2.927  14.854 -0.4101 -0.0878 -0.6029
   8423SM  H18S11221   5.580   2.863  14.914  0.8257 -1.1986 -0.3713
   8423SM  H18T11222   5.653   3.030  14.895  1.6611 -0.1072 -0.7541
   8423SM  H18U11223   5.750   2.888  14.864 -0.6775 -0.4334  0.9584
   8423SM   C1F11224   5.710   3.443  13.087 -0.2072 -0.4568 -0.3109
   8423SM    OF11225   5.648   3.359  13.021  0.0851  0.1409  0.0897
   8423SM   C2F11226   5.641   3.553  13.164 -0.5333 -0.2769  0.0997
   8423SM   H2F11227   5.607   3.635  13.097  0.1963  0.6667  0.8549
   8423SM   H2G11228   5.708   3.613  13.229  0.5107  1.6138 -2.5115
   8423SM   C3F11229   5.510   3.501  13.236  0.0357 -0.5840  0.3702
   8423SM   H3F11230   5.444   3.438  13.171 -0.7069 -0.5975  1.1220
   8423SM   H3G11231   5.449   3.592  13.252 -1.1539 -1.6847  2.6192
   8423SM   C4F11232   5.521   3.429  13.368 -0.2533 -0.8615 -0.3656
   8423SM   H4F11233   5.571   3.330  13.367  0.3286 -0.5799 -1.9781
   8423SM   H4G11234   5.421   3.406  13.409 -0.1999 -0.4986 -0.0256
   8423SM   C5F11235   5.600   3.513  13.468 -0.6882 -0.4251 -0.5022
   8423SM   H5F11236   5.561   3.617  13.468  0.3814 -0.0051  0.2728
   8423SM   H5G11237   5.707   3.519  13.438 -1.3506  1.2363 -2.7459
   8423SM   C6F11238   5.583   3.454  13.604  0.8186  0.0754 -0.0250
   8423SM   H6F11239   5.648   3.363  13.605  0.7389  0.0255  0.8593
   8423SM   H6G11240   5.476   3.425  13.610  0.8786  0.1792  1.8670
   8423SM   C7F11241   5.624   3.537  13.720 -0.3191  0.6184  0.0605
   8423SM   H7F11242   5.542   3.609  13.735 -2.2702 -1.4305 -0.1999
   8423SM   H7G11243   5.725   3.579  13.701 -0.6491  1.5223  0.2902
   8423SM   C8F11244   5.624   3.451  13.842 -0.3068  0.1751  0.0858
   8423SM   H8F11245   5.700   3.370  13.850  1.4810  1.7475 -0.2106
   8423SM   H8G11246   5.519   3.416  13.850 -0.0301 -1.5597 -2.5720
   8423SM   C9F11247   5.676   3.536  13.957  0.0842 -0.8053 -0.0125
   8423SM   H9F11248   5.623   3.634  13.963  0.1702 -0.8368  1.5307
   8423SM   H9G11249   5.783   3.558  13.937 -0.1328  1.0066  0.6372
   8423SM  C10F11250   5.693   3.475  14.098  0.3111  0.4665 -0.3558
   8423SM  H10F11251   5.751   3.382  14.085  0.0139  0.4033 -1.2818
   8423SM  H10G11252   5.589   3.442  14.118  1.1093 -1.7201  0.5295
   8423SM  C11F11253   5.750   3.570  14.203 -0.2224  0.6579  0.1442
   8423SM  H11F11254   5.677   3.654  14.198 -0.9072  0.0379 -0.4591
   8423SM  H11G11255   5.854   3.605  14.185  0.2416 -0.5619  0.3360
   8423SM  C12F11256   5.748   3.514  14.350  0.2434  0.4545  0.8586
   8423SM  H12F11257   5.765   3.605  14.412  1.4554  2.5435 -2.2711
   8423SM  H12G11258   5.840   3.453  14.362  1.5920  2.1323 -0.4512
   8423SM  C13F11259   5.623   3.444  14.389  0.2135  0.3551  0.5922
   8423SM  H13F11260   5.617   3.348  14.332 -2.1615  1.3047 -0.9302
   8423SM  H13G11261   5.526   3.490  14.359  0.2679 -0.6712 -1.3536
   8423SM  C14F11262   5.603   3.414  14.542 -0.2970  0.9123  0.1982
   8423SM  H14F11263   5.593   3.503  14.608  0.2178  0.6552  0.6284
   8423SM  H14G11264   5.703   3.371  14.567 -0.4921 -0.4069 -1.1761
   8423SM  C15F11265   5.498   3.310  14.595 -0.6365 -0.4660 -0.0520
   8423SM  H15F11266   5.517   3.205  14.566 -0.4041 -0.7165  0.9875
   8423SM  H15G11267   5.399   3.339  14.552 -1.0387 -0.0789  1.0819
   8423SM  C16F11268   5.491   3.321  14.747 -0.1395 -0.1663 -1.0073
   8423SM  H16F11269   5.474   3.424  14.785 -0.1422 -1.1446  1.9394
   8423SM  H16G11270   5.591   3.302  14.792 -0.3608  1.2336  0.1833
   8423SM  C17F11271   5.379   3.238  14.818 -0.0373  0.2242  0.2691
   8423SM  H17F11272   5.371   3.271  14.924 -0.4073 -0.0105  0.3167
   8423SM  H17G11273   5.410   3.132  14.812  1.1629  0.6035 -0.5436
   8423SM  C18F11274   5.236   3.249  14.761 -0.4015  0.3714 -0.5497
   8423SM  H18F11275   5.166   3.191  14.824  0.3410  0.0345 -0.0173
   8423SM  H18G11276   5.237   3.209  14.657  1.9513 -0.7456 -0.1513
   8423SM  C19F11277   5.195   3.397  14.750  0.5033  0.8343  0.6423
   8423SM  H19F11278   5.238   3.446  14.660  1.3684 -1.2854 -0.1666
   8423SM  H19G11279   5.228   3.449  14.842  2.4382  1.6975 -0.4841
   8423SM  C20F11280   5.040   3.409  14.732  0.0063 -0.1343  0.4787
   8423SM  H20F11281   5.007   3.338  14.654  0.5564 -0.4446  0.5239
   8423SM  H20G11282   5.021   3.509  14.689  4.0089  1.2987  1.6585
   8423SM  C21F11283   4.961   3.394  14.861  0.1461  0.9244  0.3362
   8423SM  H21F11284   4.971   3.484  14.926 -1.2074  2.3671 -1.3310
   8423SM  H21G11285   4.993   3.300  14.911 -1.7480  0.7765  1.3834
   8423SM  C22F11286   4.804   3.393  14.838 -0.3505  0.3370  0.2680
   8423SM  H22F11287   4.796   3.320  14.754  2.0078 -0.5648  0.7325
   8423SM  H22G11288   4.782   3.496  14.802  1.4975  0.4305 -0.7254
   8423SM  C23F11289   4.711   3.341  14.951  0.8350 -0.0432 -1.0719
   8423SM  H23F11290   4.732   3.233  14.967 -0.7887 -0.3676 -0.8923
   8423SM  H23G11291   4.602   3.353  14.933  0.5875  1.8213  1.1706
   8423SM  H23H11292   4.731   3.402  15.041 -1.4974  0.6497 -0.9424
   8523SM     N11293   1.585   4.932  12.309  0.4690 -0.3753 -0.6541
   8523SM   C1511294   1.436   4.953  12.274 -0.6376 -0.1524  0.8367
   8523SM  H15A11295   1.380   4.917  12.359 -1.6624  1.3897  0.8608
   8523SM  H15B11296   1.403   4.900  12.186 -0.0466  1.3373 -0.3373
   8523SM  H15C11297   1.416   5.058  12.259 -3.1471 -0.5769  0.8838
   8523SM   C1411298   1.618   4.796  12.341 -0.1235  1.0057  0.3266
   8523SM  H14A11299   1.543   4.760  12.410 -0.8868  0.3421 -0.8146
   8523SM  H14B11300   1.714   4.779  12.388 -1.8132  1.1933  4.2800
   8523SM  H14C11301   1.592   4.735  12.256  1.0762 -1.6753  1.7731
   8523SM   C1311302   1.666   4.968  12.188  1.5728  0.0701 -0.3446
   8523SM  H13A11303   1.772   4.965  12.204  1.6362 -0.2682 -0.8350
   8523SM  H13B11304   1.652   5.069  12.153  0.4199 -0.3985 -1.3159
   8523SM  H13C11305   1.645   4.896  12.111  2.1987 -0.6818  0.1745
   8523SM   C1211306   1.632   5.015  12.424 -0.5192 -0.4943 -0.2059
   8523SM  H12A11307   1.631   5.112  12.377 -1.6246 -0.4977 -0.2018
   8523SM  H12B11308   1.736   5.003  12.451 -0.1286  0.2303 -1.3146
   8523SM   C1111309   1.552   5.007  12.558 -0.0220 -0.4775 -0.2796
   8523SM  H11A11310   1.609   5.051  12.642  0.0287 -0.9226 -0.0810
   8523SM  H11B11311   1.559   4.901  12.587 -2.1911 -1.0670 -1.6313
   8523SM     P11312   1.402   5.214  12.550  0.2352 -0.0227 -0.4273
   8523SM   O1311313   1.536   5.272  12.544  0.1696  0.3320  0.5374
   8523SM   O1411314   1.299   5.259  12.457  0.2259 -0.8600  0.5427
   8523SM   O1111315   1.342   5.243  12.693  0.7836  0.0020  0.1424
   8523SM   O1211316   1.416   5.060  12.552 -0.0240  0.4053 -0.1736
   8523SM   C1S11317   1.293   5.136  12.781 -0.4255  0.8250 -0.4808
   8523SM   H1S11318   1.365   5.052  12.793  0.9482  1.7405 -1.9309
   8523SM   H1T11319   1.197   5.086  12.756 -0.5753  0.0316  1.5095
   8523SM    NF11320   1.278   5.089  13.026  0.0086 -0.3863  0.1098
   8523SM   HNF11321   1.188   5.056  13.053 -1.8267  3.3490 -0.7030
   8523SM   C2S11322   1.282   5.192  12.926  0.2546  0.3089 -0.2259
   8523SM   H2S11323   1.366   5.258  12.957 -0.2284  1.1008 -0.5454
   8523SM   C3S11324   1.161   5.285  12.926 -0.4334  0.0809 -0.2552
   8523SM   H3S11325   1.072   5.221  12.913 -0.5498  0.3247 -0.7133
   8523SM    O311326   1.146   5.377  12.815 -0.1109 -0.4039 -0.0068
   8523SM   HO311327   1.223   5.350  12.765  3.3676  1.3232  3.7925
   8523SM   C4S11328   1.141   5.348  13.062 -0.5193 -0.1482  0.6335
   8523SM   H4S11329   1.072   5.301  13.133  0.4737  1.2384  2.6205
   8523SM   C5S11330   1.207   5.465  13.091 -0.4287 -0.0403 -0.2466
   8523SM   H5S11331   1.261   5.506  13.005 -0.6920  0.9366  0.0397
   8523SM   C6S11332   1.206   5.551  13.212 -0.4816  0.8113  0.4684
   8523SM   H6S11333   1.151   5.647  13.194 -2.2190 -0.1184  0.5752
   8523SM   H6T11334   1.313   5.568  13.236  0.9007 -0.8275 -3.6035
   8523SM   C7S11335   1.146   5.496  13.343 -0.0725  0.1650 -0.0325
   8523SM   H7S11336   1.196   5.402  13.377  1.6302  1.4675  1.2406
   8523SM   H7T11337   1.040   5.476  13.318  0.1416 -1.9820  0.5230
   8523SM   C8S11338   1.153   5.589  13.467 -0.1068 -0.2891  0.6058
   8523SM   H8S11339   1.107   5.689  13.450  1.7111  0.3392 -0.9364
   8523SM   H8T11340   1.259   5.622  13.469 -0.9596  2.9378 -0.0897
   8523SM   C9S11341   1.104   5.519  13.588  0.1544  0.1232  0.2372
   8523SM   H9S11342   1.152   5.419  13.591 -1.0693 -0.5106 -0.3843
   8523SM   H9T11343   0.996   5.497  13.577 -0.3954  0.4794  3.6595
   8523SM  C10S11344   1.140   5.599  13.719  0.1457  0.0192 -0.4881
   8523SM  H10S11345   1.124   5.708  13.703 -0.5533 -0.0493 -0.2963
   8523SM  H10T11346   1.244   5.566  13.739 -0.2314 -1.2305 -0.5111
   8523SM  C11S11347   1.058   5.555  13.844 -0.6730  0.3619 -0.1797
   8523SM  H11S11348   1.058   5.444  13.854  0.1293  0.2730 -0.9734
   8523SM  H11T11349   0.953   5.589  13.833 -0.9707 -0.5311 -0.1482
   8523SM  C12S11350   1.106   5.612  13.974 -0.0344  0.1293 -0.1765
   8523SM  H12S11351   1.097   5.722  13.963  0.0631  0.1168 -0.3975
   8523SM  H12T11352   1.213   5.584  13.985  0.1615  1.4388  1.7065
   8523SM  C13S11353   1.043   5.554  14.097  0.3201 -0.3031  0.2803
   8523SM  H13S11354   1.012   5.451  14.071  0.1771 -0.3161  0.5013
   8523SM  H13T11355   0.948   5.611  14.112  0.2279 -0.5638  0.6955
   8523SM  C14S11356   1.124   5.548  14.231  0.7987  0.2803  0.2771
   8523SM  H14S11357   1.150   5.653  14.256  0.2701  0.3851  0.4032
   8523SM  H14T11358   1.209   5.480  14.212 -0.4824 -1.0402 -1.0040
   8523SM  C15S11359   1.044   5.492  14.356  0.1579  0.4282 -0.1045
   8523SM  H15S11360   1.025   5.383  14.340 -1.2512  0.3882  1.5455
   8523SM  H15T11361   0.947   5.545  14.364 -1.0340 -1.8315  1.6087
   8523SM  C16S11362   1.123   5.507  14.486 -0.3225 -0.0418  0.4432
   8523SM  H16S11363   1.228   5.496  14.453 -0.5948 -2.0473  0.1558
   8523SM  H16T11364   1.108   5.423  14.556  0.9922 -0.3154  0.4258
   8523SM  C17S11365   1.102   5.640  14.561 -0.6202 -0.1747  0.4566
   8523SM  H17S11366   1.117   5.733  14.502 -2.1756  0.5946  1.2015
   8523SM  H17T11367   1.171   5.639  14.648 -1.4218  3.6456  1.3414
   8523SM  C18S11368   0.962   5.662  14.626 -0.1013  0.1316  0.3038
   8523SM  H18S11369   0.960   5.754  14.688  0.7105 -0.4992  1.2887
   8523SM  H18T11370   0.935   5.576  14.691 -0.9301  0.6172  0.6164
   8523SM  H18U11371   0.887   5.666  14.544 -1.3407  0.0304  1.3937
   8523SM   C1F11372   1.392   5.015  13.066  0.3480  0.0322 -0.7211
   8523SM    OF11373   1.503   5.036  13.020  0.2444  0.0899  0.0254
   8523SM   C2F11374   1.362   4.903  13.166 -0.1096 -0.5709  0.5738
   8523SM   H2F11375   1.372   4.806  13.113 -2.3221 -1.0354  0.9415
   8523SM   H2G11376   1.258   4.914  13.202  0.3367 -1.3842  2.2299
   8523SM   C3F11377   1.466   4.915  13.277 -0.6807 -0.1896 -0.1230
   8523SM   H3F11378   1.459   5.019  13.315 -2.4642 -0.2284 -0.2706
   8523SM   H3G11379   1.569   4.900  13.239  0.6498  0.1519  3.0275
   8523SM   C4F11380   1.451   4.809  13.387 -0.0601 -0.5399 -0.1779
   8523SM   H4F11381   1.429   4.715  13.332 -0.1705  0.2582 -1.5454
   8523SM   H4G11382   1.370   4.844  13.456  1.3982  0.5073  1.0792
   8523SM   C5F11383   1.580   4.797  13.474  0.1711 -0.1907 -0.8609
   8523SM   H5F11384   1.642   4.890  13.474 -1.0203  0.6456 -1.9492
   8523SM   H5G11385   1.638   4.716  13.426 -0.8757 -0.8159 -1.0763
   8523SM   C6F11386   1.559   4.773  13.625  0.3418 -0.1065  1.1422
   8523SM   H6F11387   1.483   4.694  13.642 -1.4985  1.7504  1.9357
   8523SM   H6G11388   1.511   4.866  13.663  1.5204  1.0632 -0.1170
   8523SM   C7F11389   1.677   4.735  13.702 -0.0438  0.8307  0.4169
   8523SM   H7F11390   1.752   4.817  13.709  0.4743  0.2613  2.2271
   8523SM   H7G11391   1.729   4.658  13.640  2.0321  2.6662 -0.2435
   8523SM   C8F11392   1.666   4.673  13.847  0.1599 -0.3175  1.1236
   8523SM   H8F11393   1.772   4.653  13.870  0.6865  0.0779 -0.7945
   8523SM   H8G11394   1.612   4.577  13.832  0.3841 -0.2949  0.1136
   8523SM   C9F11395   1.612   4.766  13.955  0.7216 -0.2976  0.3264
   8523SM   H9F11396   1.503   4.758  13.934  0.6477  1.9095 -0.4787
   8523SM   H9G11397   1.631   4.874  13.937  0.0783 -0.3022 -0.4788
   8523SM  C10F11398   1.670   4.721  14.089  0.3136  0.2737  0.1964
   8523SM  H10F11399   1.780   4.727  14.097  0.1289  3.1997  3.1683
   8523SM  H10G11400   1.637   4.616  14.103 -1.2371  0.6332 -0.5492
   8523SM  C11F11401   1.623   4.801  14.214 -0.2576 -0.6914 -0.1345
   8523SM  H11F11402   1.515   4.822  14.201 -0.2752 -1.2724 -1.0032
   8523SM  H11G11403   1.675   4.899  14.208 -0.2310 -0.7978 -2.7709
   8523SM  C12F11404   1.639   4.744  14.356 -0.0440  0.9126 -0.5610
   8523SM  H12F11405   1.734   4.686  14.348  0.2987  1.1237  1.5261
   8523SM  H12G11406   1.559   4.675  14.391 -1.0135  1.4209 -1.7224
   8523SM  C13F11407   1.664   4.857  14.459  0.0119  0.3697 -0.2996
   8523SM  H13F11408   1.578   4.927  14.449 -0.8439 -0.8965 -2.7509
   8523SM  H13G11409   1.753   4.922  14.445 -0.5174  0.8325 -1.7665
   8523SM  C14F11410   1.663   4.818  14.607 -0.3607  0.5729  0.1424
   8523SM  H14F11411   1.756   4.784  14.656 -1.0896 -0.9116  0.5351
   8523SM  H14G11412   1.588   4.736  14.617 -1.3683  1.2933 -1.1252
   8523SM  C15F11413   1.598   4.928  14.692 -0.2737 -0.7824  0.6240
   8523SM  H15F11414   1.519   4.977  14.632  2.5655  1.8236 -1.2593
   8523SM  H15G11415   1.668   5.010  14.717  0.3639 -1.3384  0.6830
   8523SM  C16F11416   1.534   4.885  14.825  0.1427  0.2272  0.0240
   8523SM  H16F11417   1.470   4.796  14.808  2.0896 -1.0980 -0.6877
   8523SM  H16G11418   1.478   4.971  14.867  1.1972  0.9208  0.0441
   8523SM  C17F11419   1.645   4.841  14.925  0.1395  0.1851 -0.0367
   8523SM  H17F11420   1.711   4.931  14.936 -0.9321  1.0026 -0.1237
   8523SM  H17G11421   1.705   4.763  14.875  0.3010 -0.1802  0.7080
   8523SM  C18F11422   1.604   4.776  15.053 -0.0349  0.3713 -0.3708
   8523SM  H18F11423   1.690   4.741  15.115  0.2901  1.9484  0.1262
   8523SM  H18G11424   1.548   4.680  15.045  0.1375  0.1144  1.1743
   8523SM  C19F11425   1.528   4.869  15.149  0.2635 -0.1881  0.7787
   8523SM  H19F11426   1.422   4.894  15.127  0.3473  1.4503  2.0307
   8523SM  H19G11427   1.582   4.965  15.149  0.0571 -0.0695  1.2882
   8523SM  C20F11428   1.546   4.810  15.293  0.1895 -0.6496 -0.2551
   8523SM  H20F11429   1.653   4.814  15.322  0.4105 -1.4963 -0.8980
   8523SM  H20G11430   1.507   4.706  15.292  0.7275 -0.8575  0.2874
   8523SM  C21F11431   1.467   4.894  15.401  0.3359  0.4919  0.0090
   8523SM  H21F11432   1.368   4.922  15.360 -1.7007 -2.7622  2.2124
   8523SM  H21G11433   1.526   4.988  15.410 -0.3694  0.9393 -0.0125
   8523SM  C22F11434   1.462   4.812  15.526 -0.2799 -0.3572 -0.1270
   8523SM  H22F11435   1.565   4.780  15.550 -0.6662  0.2361  2.6941
   8523SM  H22G11436   1.401   4.724  15.494  1.7740 -1.6667 -0.6146
   8523SM  C23F11437   1.409   4.897  15.641 -0.3137  0.7309 -0.6767
   8523SM  H23F11438   1.461   4.994  15.655  1.0123  0.2613 -2.0215
   8523SM  H23G11439   1.431   4.825  15.723 -0.8699  0.3117 -0.8865
   8523SM  H23H11440   1.301   4.916  15.625 -0.4578 -0.4658 -1.1956
   8623SM     N11441   6.526   4.023  12.577  0.5225 -0.1801  0.1043
   8623SM   C1511442   6.398   4.085  12.625  0.0004  0.1539 -0.9352
   8623SM  H15A11443   6.417   4.133  12.720  2.7858 -0.3249 -1.1680
   8623SM  H15B11444   6.319   4.011  12.628  1.0699 -0.9937  1.5511
   8623SM  H15C11445   6.366   4.157  12.552  1.2880  0.8147 -0.8798
   8623SM   C1411446   6.509   3.944  12.450 -0.1190 -0.5953 -0.8381
   8623SM  H14A11447   6.458   4.002  12.375  0.1018 -1.4740 -1.6810
   8623SM  H14B11448   6.446   3.856  12.455 -0.2388 -0.5430 -1.4064
   8623SM  H14C11449   6.607   3.911  12.420  0.2904 -0.7834  0.6098
   8623SM   C1311450   6.619   4.141  12.544 -0.0956  0.2128 -0.4697
   8623SM  H13A11451   6.639   4.211  12.624 -0.9967 -1.1928  1.0406
   8623SM  H13B11452   6.577   4.205  12.466 -2.8326 -0.5670  0.2439
   8623SM  H13C11453   6.712   4.107  12.502 -0.7212 -0.1161 -1.6652
   8623SM   C1211454   6.584   3.934  12.688  0.2908  0.8248  0.0646
   8623SM  H12A11455   6.593   4.000  12.773 -0.2391  1.6279 -0.4880
   8623SM  H12B11456   6.678   3.888  12.661  1.2213  1.0426  2.6344
   8623SM   C1111457   6.497   3.817  12.733  0.0511  0.5576 -0.1849
   8623SM  H11A11458   6.390   3.840  12.752  0.1608 -0.1157  1.4350
   8623SM  H11B11459   6.525   3.775  12.833  1.0802  1.7239  0.0344
   8623SM     P11460   6.632   3.613  12.624 -0.6353 -0.3051 -0.3288
   8623SM   O1311461   6.634   3.556  12.488 -0.2517 -0.1265 -0.3721
   8623SM   O1411462   6.750   3.700  12.658 -0.3995 -0.4579  0.0835
   8623SM   O1111463   6.613   3.508  12.742 -0.2816  0.6242  0.0948
   8623SM   O1211464   6.504   3.707  12.639  0.2494  0.2370 -0.0553
   8623SM   C1S11465   6.504   3.416  12.751 -0.0943  0.7474  0.5733
   8623SM   H1S11466   6.506   3.339  12.671 -2.5070 -0.5119  1.6160
   8623SM   H1T11467   6.411   3.475  12.746  0.4075  1.4710 -0.8056
   8623SM    NF11468   6.407   3.231  12.889 -0.1217  0.1911 -0.3375
   8623SM   HNF11469   6.336   3.242  12.958  0.3473  1.3676 -0.0057
   8623SM   C2S11470   6.506   3.342  12.885 -0.3479  0.0452 -0.1300
   8623SM   H2S11471   6.611   3.303  12.886  0.4222  1.9132 -1.2749
   8623SM   C3S11472   6.499   3.432  13.008 -1.2645  0.4584  0.4543
   8623SM   H3S11473   6.405   3.490  12.994 -0.4458  1.4504 -1.2749
   8623SM    O311474   6.604   3.532  13.014 -0.1812 -0.1076 -0.0761
   8623SM   HO311475   6.632   3.530  12.923 -1.9718 -0.1975 -0.6597
   8623SM   C4S11476   6.498   3.363  13.140  0.3722  0.4367 -0.1281
   8623SM   H4S11477   6.584   3.295  13.145  0.9939  1.0339 -1.8939
   8623SM   C5S11478   6.413   3.382  13.237  0.5121  0.2126 -0.6694
   8623SM   H5S11479   6.325   3.447  13.224 -0.5880 -1.2614 -0.9998
   8623SM   C6S11480   6.419   3.305  13.363  0.1116 -1.0494 -0.7550
   8623SM   H6S11481   6.482   3.214  13.355  1.6244 -0.2586  1.4128
   8623SM   H6T11482   6.315   3.275  13.388 -0.5558  2.3127  1.1098
   8623SM   C7S11483   6.462   3.387  13.480 -0.6807  0.2167 -0.8189
   8623SM   H7S11484   6.416   3.488  13.486  1.6506  1.3530 -0.7639
   8623SM   H7T11485   6.570   3.411  13.470 -0.5577  0.3305  0.5913
   8623SM   C8S11486   6.444   3.313  13.610  0.1342 -0.1439  0.2411
   8623SM   H8S11487   6.490   3.212  13.602 -0.4029 -0.4109  0.4785
   8623SM   H8T11488   6.337   3.290  13.629 -0.0140 -0.2577 -0.7111
   8623SM   C9S11489   6.512   3.379  13.730  0.6186  0.2019 -0.1198
   8623SM   H9S11490   6.484   3.481  13.763  2.6610  0.8748 -0.3057
   8623SM   H9T11491   6.619   3.367  13.703  0.9194 -1.8824  1.6700
   8623SM  C10S11492   6.489   3.291  13.868  0.0421 -0.4038  0.6066
   8623SM  H10S11493   6.531   3.192  13.840 -1.0942 -0.2191 -2.0702
   8623SM  H10T11494   6.383   3.290  13.900 -0.7877 -0.2454 -1.9446
   8623SM  C11S11495   6.580   3.330  13.984 -0.2382  0.2972  0.1143
   8623SM  H11S11496   6.555   3.430  14.025  1.4533  2.1334 -2.9686
   8623SM  H11T11497   6.685   3.329  13.946 -0.4878 -2.9928 -0.8332
   8623SM  C12S11498   6.590   3.211  14.092 -0.3726 -0.4479  0.4445
   8623SM  H12S11499   6.660   3.132  14.059 -1.3517 -0.4548 -1.7907
   8623SM  H12T11500   6.492   3.161  14.101  0.2161 -1.5297  1.0736
   8623SM  C13S11501   6.637   3.270  14.231 -0.2019 -0.0216  0.0300
   8623SM  H13S11502   6.579   3.361  14.254  0.3814  0.0259  1.4306
   8623SM  H13T11503   6.742   3.305  14.219 -0.1128 -0.1743  0.3559
   8623SM  C14S11504   6.618   3.172  14.345  0.9842 -0.2840  0.4603
   8623SM  H14S11505   6.513   3.136  14.343  1.4234 -1.5947 -1.9814
   8623SM  H14T11506   6.635   3.230  14.439 -0.1848  0.5663  0.1693
   8623SM  C15S11507   6.718   3.051  14.347  0.0150 -0.2893 -0.1850
   8623SM  H15S11508   6.819   3.096  14.361  0.0007 -0.3558  0.1503
   8623SM  H15T11509   6.701   3.007  14.247  2.3213  0.4244 -0.9446
   8623SM  C16S11510   6.684   2.952  14.456  0.4422 -0.0198 -0.2962
   8623SM  H16S11511   6.744   2.860  14.439  2.8459  1.5670 -1.0555
   8623SM  H16T11512   6.576   2.933  14.442  0.2958 -0.8279  1.6083
   8623SM  C17S11513   6.707   3.000  14.600 -0.1022  0.3274 -0.1399
   8623SM  H17S11514   6.678   3.104  14.623 -0.2748  0.0554  0.9338
   8623SM  H17T11515   6.815   2.993  14.625 -0.0373  0.8196 -0.2841
   8623SM  C18S11516   6.628   2.911  14.697  1.1143  0.9842  0.1688
   8623SM  H18S11517   6.639   2.949  14.801  0.5478 -3.4258  2.0771
   8623SM  H18T11518   6.670   2.808  14.692 -1.9723 -0.3161 -1.0027
   8623SM  H18U11519   6.518   2.907  14.684  0.6229  1.7674  3.2526
   8623SM   C1F11520   6.409   3.129  12.808  0.2587  0.8388  0.7275
   8623SM    OF11521   6.501   3.113  12.727 -0.0197  0.6780 -0.0338
   8623SM   C2F11522   6.287   3.031  12.803  0.3232  0.6851 -0.5851
   8623SM   H2F11523   6.280   2.987  12.701  3.0918 -1.4299  0.0256
   8623SM   H2G11524   6.193   3.086  12.823  0.0638 -0.4911  1.7032
   8623SM   C3F11525   6.304   2.899  12.896  0.4116  0.2572 -0.7136
   8623SM   H3F11526   6.393   2.841  12.863 -0.4835 -1.8914  0.4337
   8623SM   H3G11527   6.223   2.826  12.877  0.8619 -0.1532 -1.1134
   8623SM   C4F11528   6.306   2.922  13.049 -0.1909 -0.3347  0.3992
   8623SM   H4F11529   6.212   2.977  13.072 -0.9140 -2.0727  1.8747
   8623SM   H4G11530   6.389   2.987  13.083 -0.5761  0.4470 -0.1431
   8623SM   C5F11531   6.313   2.802  13.137  0.2639 -0.1196  0.2085
   8623SM   H5F11532   6.367   2.718  13.087  1.0539 -1.5730  3.2566
   8623SM   H5G11533   6.211   2.761  13.155  0.6578 -1.4427 -0.4082
   8623SM   C6F11534   6.385   2.826  13.273  0.6193  0.6350 -0.0603
   8623SM   H6F11535   6.485   2.870  13.254  0.0480  1.9490 -0.1621
   8623SM   H6G11536   6.399   2.728  13.322  1.1951  0.7893  0.0954
   8623SM   C7F11537   6.304   2.898  13.382 -0.1030  0.0657  0.2308
   8623SM   H7F11538   6.208   2.842  13.393 -0.0740  0.1420  0.9436
   8623SM   H7G11539   6.287   3.000  13.342 -3.1386 -1.1681 -2.0173
   8623SM   C8F11540   6.373   2.898  13.521 -0.4948 -0.2089 -0.4584
   8623SM   H8F11541   6.455   2.973  13.532 -1.5200  1.2462 -2.2232
   8623SM   H8G11542   6.421   2.798  13.533 -0.1700  0.1153  1.2906
   8623SM   C9F11543   6.273   2.925  13.642 -0.7653  0.3549  0.5408
   8623SM   H9F11544   6.193   2.849  13.628  1.0917 -1.6074 -0.0891
   8623SM   H9G11545   6.234   3.026  13.621  0.6973  0.6734 -0.8890
   8623SM  C10F11546   6.329   2.918  13.782  0.5889  0.0557  0.1611
   8623SM  H10F11547   6.397   3.005  13.792  0.7434 -0.1403  0.8737
   8623SM  H10G11548   6.373   2.820  13.810  0.8866 -0.5150 -2.1345
   8623SM  C11F11549   6.225   2.950  13.884 -0.0662 -0.3093 -0.0258
   8623SM  H11F11550   6.155   2.865  13.894 -1.1613  0.7371  1.5240
   8623SM  H11G11551   6.169   3.034  13.839  1.1116  1.3190  1.4321
   8623SM  C12F11552   6.283   2.996  14.017  0.4446 -0.2245 -0.2626
   8623SM  H12F11553   6.204   3.040  14.081  0.4940  1.2955 -1.2055
   8623SM  H12G11554   6.349   3.084  14.007 -1.9207  1.7108  0.1366
   8623SM  C13F11555   6.369   2.886  14.091 -0.1030 -0.1816 -0.0895
   8623SM  H13F11556   6.414   2.941  14.177  1.0043  0.9170 -1.3189
   8623SM  H13G11557   6.447   2.852  14.019  0.5537 -0.7970  0.8975
   8623SM  C14F11558   6.291   2.763  14.139  0.5265  0.1089  0.1804
   8623SM  H14F11559   6.357   2.682  14.178 -0.5825 -0.9410 -0.0868
   8623SM  H14G11560   6.231   2.721  14.056 -0.0558  0.7166  0.2843
   8623SM  C15F11561   6.191   2.800  14.249  0.1854 -0.3577 -0.4007
   8623SM  H15F11562   6.115   2.871  14.209  0.5784  0.2349 -0.1139
   8623SM  H15G11563   6.237   2.852  14.336 -2.4682  1.5746 -0.0529
   8623SM  C16F11564   6.116   2.670  14.292  0.4137  0.0889  0.1163
   8623SM  H16F11565   6.190   2.603  14.342  2.3056  1.7004 -0.3971
   8623SM  H16G11566   6.072   2.613  14.208 -0.3715  1.8133 -0.6777
   8623SM  C17F11567   6.006   2.694  14.393  0.0468  0.2852 -0.6306
   8623SM  H17F11568   5.930   2.766  14.355  0.1169  0.5402 -0.2943
   8623SM  H17G11569   6.052   2.728  14.489  0.0295 -0.0529 -0.5010
   8623SM  C18F11570   5.935   2.560  14.421  0.2929 -0.0682 -0.2238
   8623SM  H18F11571   5.998   2.470  14.435 -1.3502 -1.3059 -0.5200
   8623SM  H18G11572   5.854   2.543  14.346 -0.7608 -3.1674  1.4674
   8623SM  C19F11573   5.856   2.558  14.557  0.6123 -0.5014 -0.0155
   8623SM  H19F11574   5.762   2.617  14.548 -0.4339 -2.0435  0.4321
   8623SM  H19G11575   5.914   2.608  14.637  0.5314 -0.7602  0.2065
   8623SM  C20F11576   5.814   2.414  14.614  0.4657 -0.1945  0.6399
   8623SM  H20F11577   5.906   2.356  14.632 -0.5454 -2.2091 -0.3244
   8623SM  H20G11578   5.747   2.361  14.543  0.1970  0.1704  0.6125
   8623SM  C21F11579   5.735   2.438  14.746 -0.4574 -0.0422 -0.1392
   8623SM  H21F11580   5.700   2.339  14.783  1.0435  0.0362  1.6601
   8623SM  H21G11581   5.645   2.503  14.742 -1.0318 -0.5912  2.2146
   8623SM  C22F11582   5.819   2.494  14.862  0.6015  1.0671  0.1782
   8623SM  H22F11583   5.887   2.572  14.820  1.9510 -0.0983  0.0979
   8623SM  H22G11584   5.889   2.414  14.895  0.4442  0.3366 -1.1935
   8623SM  C23F11585   5.745   2.539  14.991 -0.0413  0.0855  0.7208
   8623SM  H23F11586   5.702   2.449  15.040  0.0292  0.7421  2.0291
   8623SM  H23G11587   5.679   2.624  14.964 -0.1021 -1.0455 -3.4246
   8623SM  H23H11588   5.823   2.581  15.059 -0.8468  0.4118  1.4572
   8723SM     N11589   6.598   3.036  12.021 -0.0007  0.1185 -0.5819
   8723SM   C1511590   6.634   3.079  11.880  0.4798 -0.2048  0.1606
   8723SM  H15A11591   6.580   3.023  11.804  0.6707  2.6915 -2.3371
   8723SM  H15B11592   6.741   3.074  11.866  0.7199  1.3958  1.1799
   8723SM  H15C11593   6.611   3.185  11.880 -2.6159 -0.6414 -3.1358
   8723SM   C1411594   6.459   3.087  12.045  0.0217 -0.3801 -0.2069
   8723SM  H14A11595   6.386   3.037  11.984 -0.1654 -0.1646 -0.1598
   8723SM  H14B11596   6.461   3.193  12.022  0.8129 -0.8848 -2.9503
   8723SM  H14C11597   6.423   3.076  12.146 -1.4950  1.0563 -0.5454
   8723SM   C1311598   6.605   2.888  12.023 -0.6018  0.1814 -0.0913
   8723SM  H13A11599   6.701   2.843  12.005  0.1895  2.5326 -2.2845
   8723SM  H13B11600   6.531   2.838  11.963 -0.3387  0.6914 -0.8487
   8723SM  H13C11601   6.578   2.850  12.121  0.2482 -0.4416 -0.0950
   8723SM   C1211602   6.704   3.092  12.120  0.2876  0.1473  0.0833
   8723SM  H12A11603   6.682   3.056  12.219  1.9411  2.5518  1.4405
   8723SM  H12B11604   6.691   3.198  12.139  1.7193 -0.0483  2.5881
   8723SM   C1111605   6.854   3.055  12.095 -0.1373 -0.3213  0.0221
   8723SM  H11A11606   6.917   3.113  12.166 -1.6768 -0.3949  1.5057
   8723SM  H11B11607   6.885   3.093  11.996  1.5681  1.8332  1.2960
   8723SM     P11608   6.923   2.849  12.249 -0.1895 -0.4690  0.1006
   8723SM   O1311609   6.829   2.735  12.274 -0.0800  0.1976 -0.1191
   8723SM   O1411610   7.070   2.828  12.238 -0.1705  0.4099 -0.1177
   8723SM   O1111611   6.898   2.965  12.357 -0.5671  0.0552 -0.2249
   8723SM   O1211612   6.884   2.909  12.105 -0.2494 -0.9029 -0.6493
   8723SM   C1S11613   6.820   2.932  12.471  0.5121 -0.4482  0.1667
   8723SM   H1S11614   6.850   2.833  12.512  0.4173 -0.2984  0.5998
   8723SM   H1T11615   6.713   2.924  12.444  0.6648 -2.0428 -0.0764
   8723SM    NF11616   6.776   2.979  12.700 -0.6552 -0.0542 -0.0244
   8723SM   HNF11617   6.680   3.006  12.709 -0.7043 -0.1575 -0.2583
   8723SM   C2S11618   6.846   3.032  12.589  0.7390 -0.0102  0.1612
   8723SM   H2S11619   6.956   3.031  12.605  1.0012  1.4339 -1.3127
   8723SM   C3S11620   6.800   3.176  12.543  0.4743  0.1101  0.0066
   8723SM   H3S11621   6.690   3.166  12.526  0.2484  2.2559 -0.0718
   8723SM    O311622   6.853   3.222  12.424 -0.5596 -0.1174 -0.0102
   8723SM   HO311623   6.885   3.142  12.381 -0.5013 -0.8231  1.3110
   8723SM   C4S11624   6.820   3.267  12.658  0.7678 -0.1987  0.3889
   8723SM   H4S11625   6.733   3.317  12.702  0.8671  1.0243 -0.7321
   8723SM   C5S11626   6.948   3.306  12.691 -0.2245 -0.2141  0.2210
   8723SM   H5S11627   7.032   3.255  12.642 -0.2056 -1.1367  1.1827
   8723SM   C6S11628   6.993   3.397  12.801 -0.3277  0.3306  0.4843
   8723SM   H6S11629   6.975   3.503  12.773 -0.5226  0.4132  0.9136
   8723SM   H6T11630   7.104   3.395  12.811 -0.0897  0.1735 -1.8106
   8723SM   C7S11631   6.919   3.362  12.929  0.2181 -0.5755  0.4695
   8723SM   H7S11632   6.933   3.254  12.950  2.5844 -0.4096  0.0247
   8723SM   H7T11633   6.813   3.387  12.906  0.5855 -0.6462 -1.5264
   8723SM   C8S11634   6.957   3.445  13.048 -0.6133 -0.0659  0.4862
   8723SM   H8S11635   6.868   3.463  13.112 -0.9320 -0.2713  0.1064
   8723SM   H8T11636   6.988   3.550  13.027 -2.3454  0.7417  1.7194
   8723SM   C9S11637   7.078   3.396  13.124 -0.3486  0.6000  0.2709
   8723SM   H9S11638   7.122   3.486  13.173 -0.7642 -0.7495  3.3202
   8723SM   H9T11639   7.160   3.368  13.054 -0.7075 -1.7350  0.6970
   8723SM  C10S11640   7.045   3.271  13.218  0.1652 -0.5124 -0.1379
   8723SM  H10S11641   7.134   3.205  13.221  1.3055  0.9966  0.0712
   8723SM  H10T11642   6.969   3.210  13.164  2.2374 -3.1351 -0.2865
   8723SM  C11S11643   6.997   3.311  13.352  1.1255  0.4729 -0.2038
   8723SM  H11S11644   6.900   3.265  13.381  1.0061  0.3452 -0.7822
   8723SM  H11T11645   6.980   3.420  13.367 -1.3755  0.2757 -1.1630
   8723SM  C12S11646   7.104   3.270  13.457  0.2238 -0.2152  0.6088
   8723SM  H12S11647   7.198   3.317  13.420 -0.6490  1.4800  0.4580
   8723SM  H12T11648   7.122   3.161  13.454 -0.3073 -0.3633  1.9474
   8723SM  C13S11649   7.086   3.326  13.597  0.1597  0.0480 -0.5261
   8723SM  H13S11650   7.044   3.428  13.581 -0.6723 -0.3995 -1.3303
   8723SM  H13T11651   7.182   3.332  13.652 -0.9474  0.5204  1.4585
   8723SM  C14S11652   7.000   3.227  13.685 -0.9899 -0.3702 -0.3898
   8723SM  H14S11653   7.026   3.121  13.665 -1.5045 -0.7286  0.7843
   8723SM  H14T11654   6.895   3.245  13.653 -1.0204 -1.4509 -0.9196
   8723SM  C15S11655   7.011   3.239  13.838  0.7583  0.6250 -0.2352
   8723SM  H15S11656   7.114   3.212  13.869  1.2799  1.0887 -1.4800
   8723SM  H15T11657   6.940   3.173  13.892  2.3060 -0.0423  1.0718
   8723SM  C16S11658   6.983   3.382  13.901  0.2650  0.4896 -0.4110
   8723SM  H16S11659   6.884   3.413  13.862  0.9879 -0.0294 -2.8527
   8723SM  H16T11660   7.059   3.457  13.870 -0.2398  1.8392  1.4703
   8723SM  C17S11661   6.964   3.368  14.051 -0.7082 -1.1000  0.0745
   8723SM  H17S11662   6.876   3.301  14.060 -1.5745  0.1215  1.1502
   8723SM  H17T11663   6.946   3.474  14.083 -1.7365 -0.9781 -0.8362
   8723SM  C18S11664   7.087   3.310  14.126  0.1156 -0.6159  0.2076
   8723SM  H18S11665   7.173   3.379  14.111  0.3833 -0.8019  0.8596
   8723SM  H18T11666   7.122   3.212  14.088 -0.3117  0.4495 -3.3553
   8723SM  H18U11667   7.061   3.283  14.230 -2.8298 -1.7775 -0.7295
   8723SM   C1F11668   6.809   2.860  12.770 -0.8264 -0.2181 -0.7791
   8723SM    OF11669   6.912   2.796  12.753  0.3858  0.5012 -0.1370
   8723SM   C2F11670   6.700   2.815  12.862  0.5232  0.2518  0.2839
   8723SM   H2F11671   6.724   2.711  12.894 -0.9234 -0.6067 -1.2241
   8723SM   H2G11672   6.607   2.823  12.802  1.0297 -1.3290 -0.8041
   8723SM   C3F11673   6.687   2.898  12.994  0.3433 -0.3239 -0.4969
   8723SM   H3F11674   6.592   2.865  13.041  0.9482  0.2260  1.1734
   8723SM   H3G11675   6.670   3.006  12.977  0.0923 -0.0945  1.0943
   8723SM   C4F11676   6.796   2.884  13.098 -0.5557 -0.2987  0.5149
   8723SM   H4F11677   6.877   2.951  13.063 -2.0418  0.5368 -1.4767
   8723SM   H4G11678   6.832   2.779  13.093  1.8474  0.4395  1.1336
   8723SM   C5F11679   6.736   2.920  13.232 -0.4552 -0.2180 -0.3940
   8723SM   H5F11680   6.697   2.828  13.280  0.3889 -0.7631 -0.7160
   8723SM   H5G11681   6.662   3.002  13.218  0.8546  0.7763 -1.9108
   8723SM   C6F11682   6.847   2.964  13.329 -0.4533 -0.0580 -0.5289
   8723SM   H6F11683   6.869   3.059  13.277 -1.5627  0.7573  0.4233
   8723SM   H6G11684   6.928   2.889  13.321 -1.1668 -1.2737  2.1485
   8723SM   C7F11685   6.807   2.979  13.475 -0.0286 -0.1545 -0.2912
   8723SM   H7F11686   6.713   3.038  13.473 -0.1845 -0.3729  0.3225
   8723SM   H7G11687   6.888   3.028  13.532 -1.4653  2.2145 -0.1830
   8723SM   C8F11688   6.761   2.852  13.553 -0.2378  0.0019 -0.4086
   8723SM   H8F11689   6.854   2.792  13.557  0.5592  1.2579  0.4846
   8723SM   H8G11690   6.670   2.799  13.516  0.0787 -1.4136  0.7660
   8723SM   C9F11691   6.724   2.885  13.701  0.8496 -0.3091  0.7755
   8723SM   H9F11692   6.631   2.941  13.722  1.9303  1.4534  1.1020
   8723SM   H9G11693   6.806   2.944  13.747  0.1887  0.1082  1.4214
   8723SM  C10F11694   6.695   2.749  13.772  0.2422  0.2297 -0.1608
   8723SM  H10F11695   6.714   2.664  13.704 -2.3248 -1.2667  0.8599
   8723SM  H10G11696   6.586   2.739  13.791  0.3256 -0.3448  0.0236
   8723SM  C11F11697   6.771   2.724  13.905 -0.2562 -0.4315  0.0105
   8723SM  H11F11698   6.783   2.820  13.960  1.0584 -0.5662 -0.0152
   8723SM  H11G11699   6.871   2.683  13.878 -0.7068 -1.6208  0.1047
   8723SM  C12F11700   6.684   2.660  14.016 -0.1005  0.1585 -0.0030
   8723SM  H12F11701   6.674   2.556  13.978  1.2805 -0.1192  0.3389
   8723SM  H12G11702   6.579   2.697  14.020 -1.2285 -2.8670  1.4585
   8723SM  C13F11703   6.753   2.662  14.154  0.1948  0.1503  0.6450
   8723SM  H13F11704   6.720   2.759  14.196 -2.2919 -0.2343 -0.2183
   8723SM  H13G11705   6.863   2.645  14.152  0.3107  0.8834 -1.6561
   8723SM  C14F11706   6.696   2.547  14.240 -0.6587  0.4205 -0.1157
   8723SM  H14F11707   6.762   2.461  14.219 -0.3236  0.4571  0.7649
   8723SM  H14G11708   6.588   2.534  14.216 -0.2316 -0.2884 -1.8042
   8723SM  C15F11709   6.704   2.575  14.394  0.4312 -0.5119  0.8955
   8723SM  H15F11710   6.626   2.648  14.422  0.3792  0.2507 -1.0472
   8723SM  H15G11711   6.800   2.629  14.413  0.6224 -0.4737 -0.0898
   8723SM  C16F11712   6.676   2.444  14.484  0.7500 -0.7521 -0.0047
   8723SM  H16F11713   6.746   2.363  14.455  1.0295 -1.1030  1.5825
   8723SM  H16G11714   6.573   2.412  14.457 -0.5305  3.7193 -1.3326
   8723SM  C17F11715   6.674   2.459  14.638  0.3975  0.2144  0.7504
   8723SM  H17F11716   6.582   2.512  14.669  0.2060 -0.0642  0.6513
   8723SM  H17G11717   6.758   2.520  14.680  1.0751  0.8253 -1.3320
   8723SM  C18F11718   6.669   2.317  14.696 -0.0186  1.1148 -0.3413
   8723SM  H18F11719   6.748   2.247  14.661 -2.5011 -3.1176  1.8262
   8723SM  H18G11720   6.578   2.266  14.657  1.4869 -3.1052  1.1089
   8723SM  C19F11721   6.663   2.315  14.853 -0.1300  0.0399  0.2457
   8723SM  H19F11722   6.563   2.349  14.886  0.6422  3.8760 -0.8479
   8723SM  H19G11723   6.737   2.392  14.886 -0.2545 -0.6693  2.3816
   8723SM  C20F11724   6.713   2.179  14.905  0.3370  0.2250 -0.0511
   8723SM  H20F11725   6.815   2.149  14.873  0.0730  0.7873 -1.4953
   8723SM  H20G11726   6.646   2.100  14.866  0.1912  0.7132 -0.8185
   8723SM  C21F11727   6.713   2.177  15.058  0.3730  0.8813  0.0472
   8723SM  H21F11728   6.624   2.232  15.096 -0.7462 -0.0463 -1.1230
   8723SM  H21G11729   6.799   2.236  15.096 -0.5102  1.9318  0.4871
   8723SM  C22F11730   6.732   2.038  15.115  0.1736  0.4742  0.7221
   8723SM  H22F11731   6.833   2.002  15.088 -0.7971 -2.1330  0.3268
   8723SM  H22G11732   6.656   1.964  15.082  0.9773  0.4920 -1.2663
   8723SM  C23F11733   6.726   2.030  15.265  0.2031  0.2432 -0.5419
   8723SM  H23F11734   6.636   2.087  15.297 -0.8996 -1.8757  0.3470
   8723SM  H23G11735   6.814   2.076  15.315  0.1188  3.6379 -3.1516
   8723SM  H23H11736   6.713   1.924  15.296 -1.3845  0.8579  1.0914
   8823SM     N11737   3.234   3.620  12.452  0.3255  0.1563 -0.3307
   8823SM   C1511738   3.288   3.498  12.394 -0.2891 -0.0228  0.3193
   8823SM  H15A11739   3.216   3.420  12.377 -3.0911  2.7444 -1.5103
   8823SM  H15B11740   3.363   3.465  12.465 -1.7730 -1.6856  1.2116
   8823SM  H15C11741   3.330   3.514  12.296  1.2870  0.4734  1.0339
   8823SM   C1411742   3.122   3.653  12.363 -0.7468 -0.7462 -0.1323
   8823SM  H14A11743   3.054   3.569  12.351 -1.0258 -0.3842 -1.3056
   8823SM  H14B11744   3.151   3.678  12.262 -3.2071  0.9982 -0.5080
   8823SM  H14C11745   3.070   3.738  12.403  0.4630  0.5096 -1.1385
   8823SM   C1311746   3.170   3.590  12.582 -0.2128 -0.2740 -0.1604
   8823SM  H13A11747   3.110   3.501  12.566 -0.8652  0.3444 -1.2887
   8823SM  H13B11748   3.112   3.674  12.618 -1.0215 -0.1460 -1.6538
   8823SM  H13C11749   3.234   3.563  12.664 -0.1214 -0.3302 -0.2503
   8823SM   C1211750   3.343   3.726  12.454  0.2529 -0.2127 -0.5875
   8823SM  H12A11751   3.298   3.822  12.472 -0.0485 -0.3100 -0.8195
   8823SM  H12B11752   3.373   3.721  12.351 -1.0455 -0.8277 -0.9620
   8823SM   C1111753   3.466   3.706  12.545  0.1809 -0.6581  0.1838
   8823SM  H11A11754   3.548   3.779  12.526  0.3227 -0.7589  0.4075
   8823SM  H11B11755   3.508   3.609  12.512  1.6452  0.3252 -0.9730
   8823SM     P11756   3.405   3.803  12.787  0.1998  0.2550 -0.0748
   8823SM   O1311757   3.512   3.904  12.804 -0.6388  0.3265  0.9261
   8823SM   O1411758   3.272   3.859  12.744 -0.0243  0.3478  0.4704
   8823SM   O1111759   3.379   3.724  12.917 -0.2424 -0.3679 -0.0740
   8823SM   O1211760   3.440   3.690  12.682 -0.2602  0.2770 -0.0712
   8823SM   C1S11761   3.487   3.637  12.972  0.3537  0.5052  0.1776
   8823SM   H1S11762   3.587   3.685  12.966  0.6039 -0.0237  0.0263
   8823SM   H1T11763   3.506   3.549  12.905  0.9203  1.6929 -1.2927
   8823SM    NF11764   3.590   3.572  13.194  0.3516 -0.0174  0.2943
   8823SM   HNF11765   3.589   3.475  13.218  1.6210 -0.2598 -0.5874
   8823SM   C2S11766   3.474   3.624  13.125  0.2334  0.6741  0.4135
   8823SM   H2S11767   3.450   3.729  13.151  0.2966  0.6806  0.4470
   8823SM   C3S11768   3.340   3.550  13.158  0.7812 -0.3346  0.1527
   8823SM   H3S11769   3.351   3.441  13.141  0.9911 -0.5931  1.8017
   8823SM    O311770   3.228   3.585  13.069  0.4958  0.1461 -0.0490
   8823SM   HO311771   3.273   3.637  13.002  0.2173  4.7941  2.8798
   8823SM   C4S11772   3.308   3.562  13.313 -0.6915 -0.5100  0.5694
   8823SM   H4S11773   3.356   3.488  13.378 -0.7214 -0.6202  0.4658
   8823SM   C5S11774   3.227   3.656  13.367  0.0120 -0.2516 -0.3422
   8823SM   H5S11775   3.181   3.725  13.295  0.9341  0.2944 -0.4256
   8823SM   C6S11776   3.198   3.674  13.513 -0.2628  0.2882  0.6570
   8823SM   H6S11777   3.097   3.631  13.531 -0.0644 -0.1134  0.8239
   8823SM   H6T11778   3.186   3.783  13.535  0.0764  0.3919  0.3344
   8823SM   C7S11779   3.302   3.619  13.617 -0.0606 -0.2221 -0.1598
   8823SM   H7S11780   3.401   3.669  13.617 -0.0767 -0.1897 -0.1723
   8823SM   H7T11781   3.326   3.513  13.595 -0.3870 -0.0911 -1.2083
   8823SM   C8S11782   3.241   3.629  13.752 -0.0819  0.2954 -0.7675
   8823SM   H8S11783   3.139   3.586  13.740  0.3673 -0.4637 -2.0433
   8823SM   H8T11784   3.222   3.735  13.779 -1.9643 -0.2830  0.3963
   8823SM   C9S11785   3.304   3.556  13.870 -0.5377  0.1698  0.2125
   8823SM   H9S11786   3.414   3.569  13.864 -0.7438  2.3037  0.5597
   8823SM   H9T11787   3.284   3.447  13.856 -1.5566  0.4572 -0.6464
   8823SM  C10S11788   3.255   3.602  14.002 -0.0496  0.0074  0.7960
   8823SM  H10S11789   3.146   3.583  14.008 -0.3458  0.3581 -2.0149
   8823SM  H10T11790   3.277   3.711  14.007 -3.3187  0.9270 -1.4844
   8823SM  C11S11791   3.326   3.532  14.118  0.1374 -0.6444 -0.1717
   8823SM  H11S11792   3.435   3.549  14.111 -0.2449  1.7164 -1.8411
   8823SM  H11T11793   3.315   3.423  14.132  2.4159 -0.9815 -0.7201
   8823SM  C12S11794   3.287   3.586  14.257  0.0251  0.4071 -0.1504
   8823SM  H12S11795   3.193   3.542  14.294  0.8153 -0.3394  1.0297
   8823SM  H12T11796   3.278   3.696  14.243 -2.1102 -0.0021 -2.9137
   8823SM  C13S11797   3.389   3.557  14.364 -0.1619  0.8518  0.2714
   8823SM  H13S11798   3.494   3.576  14.334 -0.1723  0.3025 -0.1177
   8823SM  H13T11799   3.386   3.450  14.393 -0.9799  1.3614  2.1866
   8823SM  C14S11800   3.367   3.629  14.497  0.3468 -0.5638  0.1513
   8823SM  H14S11801   3.268   3.590  14.531 -0.6043  0.8967 -0.7945
   8823SM  H14T11802   3.349   3.737  14.476  2.1378 -0.4374 -0.9634
   8823SM  C15S11803   3.463   3.610  14.611 -0.3998 -0.1251  0.7451
   8823SM  H15S11804   3.569   3.621  14.580 -0.7113 -0.5672 -0.5362
   8823SM  H15T11805   3.453   3.503  14.640 -5.8283 -0.0588  0.1187
   8823SM  C16S11806   3.437   3.696  14.728  0.4352  0.0379 -0.3173
   8823SM  H16S11807   3.326   3.695  14.730  0.4371 -0.4040 -0.1665
   8823SM  H16T11808   3.478   3.795  14.699  2.9168 -1.5692 -2.8448
   8823SM  C17S11809   3.490   3.648  14.860  0.1267 -0.1204  0.2849
   8823SM  H17S11810   3.600   3.642  14.858  0.1686  0.4674  0.5339
   8823SM  H17T11811   3.451   3.544  14.869  1.4467 -0.8462 -1.8577
   8823SM  C18S11812   3.441   3.735  14.981 -0.2306  0.0688 -0.1448
   8823SM  H18S11813   3.519   3.814  14.988  0.1566 -0.4263  1.4172
   8823SM  H18T11814   3.457   3.682  15.077  3.2253 -0.0721 -0.6669
   8823SM  H18U11815   3.339   3.771  14.958 -0.3626 -0.1308  0.1332
   8823SM   C1F11816   3.688   3.649  13.234 -0.7048 -0.0929 -0.2857
   8823SM    OF11817   3.690   3.772  13.222  0.2494 -0.4850 -0.0728
   8823SM   C2F11818   3.804   3.579  13.291 -0.7604 -0.8122 -0.4632
   8823SM   H2F11819   3.902   3.629  13.272 -0.0178 -2.2414 -0.5057
   8823SM   H2G11820   3.794   3.475  13.254 -2.1371 -1.0678  0.5542
   8823SM   C3F11821   3.788   3.566  13.447  0.8339 -0.7929  0.5102
   8823SM   H3F11822   3.696   3.509  13.472  1.7932 -1.1951  3.4205
   8823SM   H3G11823   3.771   3.670  13.482 -0.5424 -0.2778 -1.5091
   8823SM   C4F11824   3.911   3.499  13.514 -0.2716  0.4303 -0.2236
   8823SM   H4F11825   4.004   3.552  13.485  0.6102 -0.4204  0.9379
   8823SM   H4G11826   3.923   3.396  13.473 -4.0259 -0.3757  0.2787
   8823SM   C5F11827   3.907   3.495  13.666 -1.1370  0.6745 -0.2895
   8823SM   H5F11828   3.810   3.449  13.698  0.0225 -1.3914  0.4891
   8823SM   H5G11829   3.911   3.594  13.716 -0.7299 -0.0738  1.2496
   8823SM   C6F11830   4.012   3.402  13.731  0.7436 -0.6008 -0.8432
   8823SM   H6F11831   4.110   3.443  13.698  1.0714  0.2085  1.0299
   8823SM   H6G11832   3.984   3.298  13.703  0.6357 -0.7321 -0.2513
   8823SM   C7F11833   4.011   3.416  13.881 -0.0297 -0.1828  0.7677
   8823SM   H7F11834   3.906   3.430  13.915  0.2518  0.8155  1.2666
   8823SM   H7G11835   4.061   3.513  13.900  0.6570 -0.8835  2.9214
   8823SM   C8F11836   4.071   3.291  13.948  0.4420  0.4143 -0.6911
   8823SM   H8F11837   4.181   3.286  13.928  1.0941  3.8475  1.2261
   8823SM   H8G11838   4.028   3.198  13.906 -0.3796 -0.2027  1.4181
   8823SM   C9F11839   4.052   3.291  14.108 -0.0902  0.7909 -0.2768
   8823SM   H9F11840   3.943   3.284  14.128  0.4158 -3.1054  2.2648
   8823SM   H9G11841   4.088   3.386  14.152 -1.7607  0.5404  1.8307
   8823SM  C10F11842   4.124   3.171  14.168 -0.1043 -0.0909 -0.0285
   8823SM  H10F11843   4.230   3.202  14.153 -0.3606  0.3215 -1.0936
   8823SM  H10G11844   4.110   3.076  14.114  0.8689  0.9425 -2.2195
   8823SM  C11F11845   4.106   3.166  14.320  0.0229 -0.3044 -0.4007
   8823SM  H11F11846   4.153   3.076  14.364 -0.6662  0.1836  1.4393
   8823SM  H11G11847   3.997   3.150  14.335  0.2107 -0.4424  0.9277
   8823SM  C12F11848   4.155   3.297  14.387 -0.1709  0.4590  0.1005
   8823SM  H12F11849   4.084   3.376  14.355  0.9786  0.9141 -1.4407
   8823SM  H12G11850   4.254   3.314  14.340 -0.2885 -1.6626 -1.0899
   8823SM  C13F11851   4.167   3.301  14.536  0.1392  0.4034  0.7021
   8823SM  H13F11852   4.066   3.294  14.579 -0.2798  2.1909  0.1252
   8823SM  H13G11853   4.195   3.405  14.565  1.1024  0.0402  1.1080
   8823SM  C14F11854   4.272   3.209  14.598  0.0895  0.1480  0.4039
   8823SM  H14F11855   4.375   3.226  14.561 -0.0817 -1.5667 -1.0032
   8823SM  H14G11856   4.232   3.108  14.575 -1.0349  0.2848  1.6314
   8823SM  C15F11857   4.268   3.220  14.756 -0.1083  0.1808 -0.6116
   8823SM  H15F11858   4.163   3.221  14.792  0.7455 -0.7993  2.1766
   8823SM  H15G11859   4.313   3.312  14.798 -1.1911 -0.3481  1.9330
   8823SM  C16F11860   4.330   3.105  14.837  0.3983  0.5641  0.3702
   8823SM  H16F11861   4.439   3.104  14.815 -0.0050 -1.4986 -1.9881
   8823SM  H16G11862   4.294   3.005  14.805  1.3199 -0.2402  1.7266
   8823SM  C17F11863   4.288   3.123  14.985  1.1019 -0.4813 -0.6874
   8823SM  H17F11864   4.179   3.108  14.999  0.9049  1.4287  0.1005
   8823SM  H17G11865   4.307   3.230  15.007  0.1418  0.0106 -2.1036
   8823SM  C18F11866   4.380   3.044  15.073  0.0983 -0.0988  0.2003
   8823SM  H18F11867   4.357   3.064  15.180  0.6735  1.2017  0.0934
   8823SM  H18G11868   4.487   3.063  15.052 -0.4289  0.5612 -2.2125
   8823SM  C19F11869   4.359   2.890  15.050  0.4840  0.1249  0.4260
   8823SM  H19F11870   4.394   2.867  14.948  0.7110 -1.1832  0.7886
   8823SM  H19G11871   4.252   2.860  15.053  0.4117  0.1108 -1.4689
   8823SM  C20F11872   4.449   2.805  15.143  0.0495  0.5654  0.2843
   8823SM  H20F11873   4.393   2.786  15.237  0.1216  0.4453  0.3039
   8823SM  H20G11874   4.539   2.867  15.164  1.7779 -1.6525 -0.1734
   8823SM  C21F11875   4.490   2.671  15.081 -1.4563  0.1078  0.2055
   8823SM  H21F11876   4.548   2.684  14.987  0.1568  1.0674  1.2953
   8823SM  H21G11877   4.400   2.613  15.052  0.9688 -2.0973 -3.7463
   8823SM  C22F11878   4.578   2.577  15.165  0.6601 -0.5512 -0.0742
   8823SM  H22F11879   4.524   2.570  15.262 -0.8515  0.5546 -0.8059
   8823SM  H22G11880   4.680   2.618  15.173  0.6669 -0.4048 -0.8808
   8823SM  C23F11881   4.586   2.439  15.106 -0.1035  0.3695 -0.0621
   8823SM  H23F11882   4.487   2.390  15.094  1.0544 -2.2233  0.3592
   8823SM  H23G11883   4.659   2.381  15.167  1.4190  1.2068 -1.0228
   8823SM  H23H11884   4.625   2.429  15.002  1.0892  1.7313  0.2347
   8923SM     N11885   1.365   3.682  12.503  0.1440 -0.7753  0.7425
   8923SM   C1511886   1.445   3.745  12.615  0.3579  0.1287  0.2177
   8923SM  H15A11887   1.541   3.773  12.574  1.6094 -1.1666  2.1393
   8923SM  H15B11888   1.462   3.673  12.694 -3.1581 -0.2682  0.7623
   8923SM  H15C11889   1.396   3.830  12.659 -0.4225  0.2580 -0.8481
   8923SM   C1411890   1.299   3.788  12.416 -0.7910  0.3489 -0.7871
   8923SM  H14A11891   1.253   3.740  12.331  0.7629 -1.8443 -0.4598
   8923SM  H14B11892   1.377   3.852  12.378  0.5223  0.5151  1.9500
   8923SM  H14C11893   1.226   3.845  12.472  0.8706  1.2321  0.5722
   8923SM   C1311894   1.462   3.605  12.421  0.2739  0.4328  0.4686
   8923SM  H13A11895   1.523   3.545  12.487 -0.4587 -1.1386 -0.2257
   8923SM  H13B11896   1.533   3.668  12.370 -0.1884 -1.0794 -2.2329
   8923SM  H13C11897   1.417   3.538  12.350 -1.9233 -0.6554  2.7190
   8923SM   C1211898   1.259   3.602  12.573 -0.2624  0.1630 -0.3196
   8923SM  H12A11899   1.309   3.534  12.640 -0.1757 -0.4822 -1.0365
   8923SM  H12B11900   1.222   3.536  12.496 -0.9382  1.7518 -1.4223
   8923SM   C1111901   1.154   3.679  12.646 -0.2409  0.0538  0.0235
   8923SM  H11A11902   1.071   3.616  12.683 -1.2921 -0.3054 -2.7662
   8923SM  H11B11903   1.105   3.745  12.571  0.8323  0.6531 -0.1832
   8923SM     P11904   1.139   3.893  12.810  0.0635  0.0972  0.1683
   8923SM   O1311905   1.248   3.985  12.827 -0.6111 -0.0480 -0.3013
   8923SM   O1411906   1.016   3.928  12.730 -0.4042  0.2205  0.3823
   8923SM   O1111907   1.073   3.859  12.947 -0.2631  0.2149 -0.0374
   8923SM   O1211908   1.198   3.760  12.755  0.0405  0.3412 -0.8476
   8923SM   C1S11909   1.156   3.795  13.046  0.3004 -0.2922  0.5488
   8923SM   H1S11910   1.246   3.859  13.059 -0.3243  0.6410  0.4249
   8923SM   H1T11911   1.183   3.695  13.007 -0.9429 -0.3163 -0.3132
   8923SM    NF11912   1.154   3.722  13.290  0.6770  0.0210 -0.1182
   8923SM   HNF11913   1.138   3.625  13.301 -2.1226  0.1899 -1.8786
   8923SM   C2S11914   1.073   3.776  13.178 -0.1094  0.2882  0.4123
   8923SM   H2S11915   1.037   3.878  13.202  0.5813  0.3023  1.4342
   8923SM   C3S11916   0.952   3.689  13.153  0.4686 -0.3712 -0.8413
   8923SM   H3S11917   0.992   3.587  13.133 -1.3682 -1.1578 -0.6730
   8923SM    O311918   0.871   3.715  13.035 -0.1521 -0.3500 -0.2941
   8923SM   HO311919   0.928   3.769  12.980  0.1063 -0.6367 -0.3139
   8923SM   C4S11920   0.862   3.670  13.278  0.4208 -0.0816  0.5554
   8923SM   H4S11921   0.893   3.594  13.352  3.0077  0.4637  0.1510
   8923SM   C5S11922   0.767   3.756  13.310  0.5064  0.8065 -0.5955
   8923SM   H5S11923   0.764   3.851  13.253 -0.5344  1.0417 -0.1687
   8923SM   C6S11924   0.671   3.748  13.430 -0.2859  0.3977  0.3189
   8923SM   H6S11925   0.569   3.720  13.396  0.0793 -1.1881  0.4307
   8923SM   H6T11926   0.667   3.851  13.471  2.6523  1.6396 -2.1400
   8923SM   C7S11927   0.697   3.655  13.547 -0.2120  0.5370 -0.8875
   8923SM   H7S11928   0.785   3.690  13.605 -1.0396  0.3897  0.4944
   8923SM   H7T11929   0.704   3.550  13.512 -2.6649 -0.4546  1.2914
   8923SM   C8S11930   0.578   3.649  13.643  0.5091 -0.3602  0.1412
   8923SM   H8S11931   0.493   3.603  13.588  0.6658 -0.5241  0.0349
   8923SM   H8T11932   0.556   3.756  13.664  2.0817  0.4081 -1.7235
   8923SM   C9S11933   0.596   3.561  13.777  0.5929 -0.2433  0.4852
   8923SM   H9S11934   0.645   3.464  13.753 -1.6529 -2.0416  2.6703
   8923SM   H9T11935   0.496   3.532  13.816 -0.6051  2.8893  0.0955
   8923SM  C10S11936   0.677   3.632  13.882 -0.2624 -0.2836  0.0770
   8923SM  H10S11937   0.665   3.742  13.874  1.9151  0.0343  0.6555
   8923SM  H10T11938   0.787   3.618  13.873  0.2051  2.6036  0.4017
   8923SM  C11S11939   0.619   3.591  14.018 -0.0591  0.4124  1.0106
   8923SM  H11S11940   0.606   3.483  14.039  2.3995  0.3533  2.7741
   8923SM  H11T11941   0.517   3.635  14.014  0.2254  1.0376  0.2304
   8923SM  C12S11942   0.701   3.633  14.142 -0.2446 -0.6432  0.4914
   8923SM  H12S11943   0.720   3.742  14.126  2.8444 -1.2435 -0.6642
   8923SM  H12T11944   0.802   3.588  14.134 -0.5556 -1.1760 -0.7299
   8923SM  C13S11945   0.623   3.608  14.273 -0.9603  0.7708  0.5918
   8923SM  H13S11946   0.516   3.625  14.250 -0.6861  2.0781  0.1882
   8923SM  H13T11947   0.661   3.685  14.344  1.2109  1.1636 -0.8651
   8923SM  C14S11948   0.645   3.467  14.332  0.1198 -0.6734 -0.2071
   8923SM  H14S11949   0.752   3.452  14.355  0.6519  1.8603 -0.7661
   8923SM  H14T11950   0.618   3.395  14.251  2.6495 -0.8806 -0.9533
   8923SM  C15S11951   0.548   3.461  14.446 -0.8138 -0.0378 -0.5440
   8923SM  H15S11952   0.445   3.454  14.405 -0.7059  1.1891 -1.0568
   8923SM  H15T11953   0.554   3.561  14.494  1.3016 -0.3587 -0.0691
   8923SM  C16S11954   0.580   3.335  14.535  0.4595  0.0731 -0.4039
   8923SM  H16S11955   0.682   3.362  14.569  0.8604 -2.5876  0.8311
   8923SM  H16T11956   0.568   3.244  14.472 -1.0494  0.5235 -0.8031
   8923SM  C17S11957   0.475   3.316  14.657  0.3203 -0.2774  0.4689
   8923SM  H17S11958   0.510   3.237  14.726  0.2863  0.4162  1.3081
   8923SM  H17T11959   0.387   3.267  14.610 -0.9001  0.6950  1.6650
   8923SM  C18S11960   0.421   3.440  14.729  0.0580  0.4790 -0.0236
   8923SM  H18S11961   0.360   3.493  14.653  1.7345 -1.4744 -2.9370
   8923SM  H18T11962   0.508   3.495  14.769 -0.7910 -0.0351  2.7958
   8923SM  H18U11963   0.358   3.417  14.818  0.2184  0.2641  0.0361
   8923SM   C1F11964   1.255   3.790  13.343 -0.1968 -0.5434 -0.3428
   8923SM    OF11965   1.295   3.902  13.299 -0.1160 -0.3131 -0.1168
   8923SM   C2F11966   1.315   3.740  13.473 -0.0143  0.0609  0.4332
   8923SM   H2F11967   1.313   3.629  13.471  0.3948  0.0229 -2.8041
   8923SM   H2G11968   1.253   3.780  13.556 -1.7547 -0.8244 -0.4060
   8923SM   C3F11969   1.457   3.796  13.491  0.2424  0.6653  0.6442
   8923SM   H3F11970   1.455   3.903  13.462 -1.4507  0.3915 -0.3916
   8923SM   H3G11971   1.521   3.743  13.417 -0.5903  3.1713 -2.0541
   8923SM   C4F11972   1.515   3.776  13.633  0.2291 -0.6090 -0.0658
   8923SM   H4F11973   1.436   3.789  13.710 -0.4733 -3.1629 -0.2883
   8923SM   H4G11974   1.593   3.855  13.647 -0.7245  0.3263  0.1088
   8923SM   C5F11975   1.585   3.645  13.660  1.2690 -0.5462  0.1738
   8923SM   H5F11976   1.644   3.611  13.572 -1.3053  1.5704 -2.5747
   8923SM   H5G11977   1.506   3.568  13.651 -1.0952  1.8378 -0.8220
   8923SM   C6F11978   1.658   3.640  13.794  0.3412  0.2487 -0.4139
   8923SM   H6F11979   1.597   3.702  13.864  0.5038 -1.2103  1.0614
   8923SM   H6G11980   1.755   3.693  13.779 -0.4791  1.1720 -3.1388
   8923SM   C7F11981   1.682   3.501  13.842 -0.8233  0.3167 -0.7672
   8923SM   H7F11982   1.751   3.448  13.773  0.8301  0.3409  0.8017
   8923SM   H7G11983   1.586   3.445  13.844  0.0180 -1.2316  2.5868
   8923SM   C8F11984   1.744   3.497  13.982  1.1910  0.4218 -0.6555
   8923SM   H8F11985   1.699   3.580  14.040 -0.0739 -0.7797  0.1460
   8923SM   H8G11986   1.854   3.508  13.976  1.1754 -0.0286 -2.3754
   8923SM   C9F11987   1.726   3.354  14.045 -0.0491  0.7197  0.0598
   8923SM   H9F11988   1.764   3.280  13.971  0.0522  0.1321  0.6954
   8923SM   H9G11989   1.616   3.341  14.056  0.0131  0.2922  0.1781
   8923SM  C10F11990   1.807   3.322  14.174 -0.1064 -0.4758  0.0011
   8923SM  H10F11991   1.901   3.377  14.196  0.0177 -0.4182 -0.6585
   8923SM  H10G11992   1.842   3.217  14.169  1.0375 -0.2458  1.9687
   8923SM  C11F11993   1.725   3.328  14.302 -0.1748 -0.3291  0.5223
   8923SM  H11F11994   1.641   3.255  14.295 -0.2086 -0.2383 -0.0979
   8923SM  H11G11995   1.677   3.428  14.305  0.4500 -0.0258  0.4692
   8923SM  C12F11996   1.806   3.321  14.435  0.4585  0.0642 -0.0511
   8923SM  H12F11997   1.748   3.379  14.509 -0.5158  1.6031 -1.9168
   8923SM  H12G11998   1.903   3.374  14.420  0.6304 -0.1700  0.2342
   8923SM  C13F11999   1.820   3.177  14.487  0.4038  0.1434  0.3017
   8923SM  H13F12000   1.856   3.113  14.403  3.0824 -0.7846  2.0213
   8923SM  H13G12001   1.722   3.145  14.529 -0.3999 -0.2131 -1.7095
   8923SM  C14F12002   1.930   3.184  14.595  0.7721  0.0144  0.4074
   8923SM  H14F12003   1.904   3.276  14.652 -3.6858 -1.3298  0.8660
   8923SM  H14G12004   2.029   3.190  14.544 -1.0303  1.6182 -3.3037
   8923SM  C15F12005   1.922   3.054  14.684  0.2455 -0.7913  0.3293
   8923SM  H15F12006   1.961   2.976  14.615  0.4813 -0.4265  0.0406
   8923SM  H15G12007   1.818   3.022  14.710  0.7487 -3.9717 -1.0876
   8923SM  C16F12008   2.026   3.067  14.795  0.9248 -0.5176 -0.3856
   8923SM  H16F12009   2.003   3.156  14.858 -0.2154 -1.1237  0.0859
   8923SM  H16G12010   2.126   3.073  14.747  1.3825 -0.0238  0.5910
   8923SM  C17F12011   2.026   2.953  14.895  0.1308  0.3541  0.2411
   8923SM  H17F12012   2.026   2.855  14.842  1.6743  0.8067 -0.6817
   8923SM  H17G12013   1.935   2.958  14.959  0.0266  1.6219  0.0007
   8923SM  C18F12014   2.153   2.955  14.984  0.6659  0.2324  0.1684
   8923SM  H18F12015   2.125   3.023  15.067 -0.6783 -0.2249  0.1076
   8923SM  H18G12016   2.227   3.005  14.917 -0.4751 -0.5312 -1.7529
   8923SM  C19F12017   2.195   2.823  15.035 -0.1516 -0.0459 -0.1395
   8923SM  H19F12018   2.227   2.756  14.953  3.3178 -0.2522  1.2243
   8923SM  H19G12019   2.108   2.771  15.081  1.5785 -1.8006  1.3285
   8923SM  C20F12020   2.319   2.844  15.124 -0.4394 -0.2314  0.4891
   8923SM  H20F12021   2.313   2.902  15.219  0.6131 -0.4382  0.6924
   8923SM  H20G12022   2.396   2.889  15.058  1.2877 -3.7537 -0.1129
   8923SM  C21F12023   2.385   2.713  15.164  0.1753  0.2191 -0.6407
   8923SM  H21F12024   2.417   2.668  15.067  3.9358 -1.2868  1.1093
   8923SM  H21G12025   2.309   2.642  15.204 -1.0997  1.2498 -1.1582
   8923SM  C22F12026   2.508   2.734  15.252  0.5633  0.1218 -0.6209
   8923SM  H22F12027   2.572   2.816  15.213  1.3578  0.4283  1.2234
   8923SM  H22G12028   2.560   2.636  15.259  1.1515  0.4424 -0.4616
   8923SM  C23F12029   2.481   2.788  15.397  0.5016 -0.0530 -0.2615
   8923SM  H23F12030   2.436   2.890  15.398  2.3870  0.8070  0.9741
   8923SM  H23G12031   2.577   2.801  15.451  0.0525  2.0110  0.1283
   8923SM  H23H12032   2.421   2.724  15.465 -0.3135  3.1791  2.3209
   9023SM     N12033   0.591   4.294  12.747  0.3637  0.5433  0.4745
   9023SM   C1512034   0.559   4.310  12.892 -1.2936  1.3055  0.0374
   9023SM  H15A12035   0.523   4.409  12.914  0.2329  1.5112  1.8198
   9023SM  H15B12036   0.649   4.314  12.951 -1.0411  1.4276 -0.3486
   9023SM  H15C12037   0.484   4.242  12.930  0.4726 -1.5067 -1.1488
   9023SM   C1412038   0.459   4.282  12.665 -0.5094  0.1485  0.2773
   9023SM  H14A12039   0.408   4.377  12.660  1.9251  1.5361  0.3035
   9023SM  H14B12040   0.400   4.194  12.685  0.6968 -0.2313  2.4126
   9023SM  H14C12041   0.497   4.261  12.566 -1.5802  1.0300 -0.3544
   9023SM   C1312042   0.669   4.419  12.712  0.3378  0.7427  0.2332
   9023SM  H13A12043   0.624   4.511  12.746 -1.0649  1.3856 -3.0445
   9023SM  H13B12044   0.681   4.441  12.607  3.7238  1.4068  0.6372
   9023SM  H13C12045   0.767   4.408  12.757 -0.2804 -1.5409  1.1831
   9023SM   C1212046   0.669   4.170  12.728 -0.1204  0.3398  0.4212
   9023SM  H12A12047   0.613   4.083  12.758  0.7334 -1.0629 -1.8112
   9023SM  H12B12048   0.753   4.158  12.796 -0.1583  1.4768  0.6908
   9023SM   C1112049   0.719   4.135  12.586  0.2395  0.1487 -0.5650
   9023SM  H11A12050   0.811   4.075  12.602 -0.0370 -0.0053  0.5347
   9023SM  H11B12051   0.755   4.225  12.532  0.7599  1.9801  2.5874
   9023SM     P12052   0.649   3.937  12.413  0.0296 -0.0202  0.0375
   9023SM   O1312053   0.534   3.915  12.324  0.3552  0.4551  0.0159
   9023SM   O1412054   0.781   3.949  12.356  0.5090 -0.3288  0.0931
   9023SM   O1112055   0.662   3.809  12.506 -0.1950 -0.0249 -0.3037
   9023SM   O1212056   0.625   4.066  12.508 -0.1558  0.3235  0.3258
   9023SM   C1S12057   0.656   3.827  12.650  0.2399 -0.2811  1.1752
   9023SM   H1S12058   0.576   3.899  12.675  0.5432 -0.0087  1.3767
   9023SM   H1T12059   0.757   3.860  12.683  0.5206 -0.6948  0.7436
   9023SM    NF12060   0.624   3.728  12.866  0.4794 -0.2063 -1.0102
   9023SM   HNF12061   0.695   3.703  12.931  0.3500  1.0336 -0.3661
   9023SM   C2S12062   0.650   3.697  12.732  0.5353 -0.4619  0.3151
   9023SM   H2S12063   0.566   3.644  12.682 -1.1268  1.9968  0.3373
   9023SM   C3S12064   0.777   3.607  12.701 -0.2329 -0.9002 -0.4357
   9023SM   H3S12065   0.868   3.651  12.746  0.1006 -0.5492 -1.4316
   9023SM    O312066   0.816   3.613  12.561 -0.1849  0.2072 -0.4354
   9023SM   HO312067   0.769   3.689  12.526  1.3604  0.6178 -1.7570
   9023SM   C4S12068   0.759   3.474  12.749  0.4120  0.7426  0.8650
   9023SM   H4S12069   0.666   3.426  12.718  2.1705 -2.0725 -0.4611
   9023SM   C5S12070   0.839   3.420  12.844  0.5827  0.0645 -0.2706
   9023SM   H5S12071   0.917   3.485  12.887  0.7491  0.3143 -0.9335
   9023SM   C6S12072   0.816   3.285  12.908  0.3981  0.3905 -0.5552
   9023SM   H6S12073   0.911   3.261  12.961  0.3370  0.4775 -0.4056
   9023SM   H6T12074   0.805   3.203  12.834  1.4584 -1.0237  0.7845
   9023SM   C7S12075   0.699   3.276  13.010  0.6015  0.3678 -0.3973
   9023SM   H7S12076   0.685   3.167  13.024  2.3885  0.1373 -0.1151
   9023SM   H7T12077   0.610   3.309  12.952 -0.7216  1.0055  1.9141
   9023SM   C8S12078   0.726   3.334  13.149  0.2428  0.1128  0.4207
   9023SM   H8S12079   0.656   3.418  13.170 -1.5754 -1.1654 -0.2112
   9023SM   H8T12080   0.826   3.380  13.142 -0.4347  1.7677  1.1774
   9023SM   C9S12081   0.725   3.223  13.257 -0.8513 -0.0280  0.3331
   9023SM   H9S12082   0.777   3.138  13.208 -0.0358 -0.2029  1.4791
   9023SM   H9T12083   0.619   3.208  13.286 -1.0813 -0.0946 -0.4965
   9023SM  C10S12084   0.804   3.252  13.380  0.1421  0.5105 -0.7579
   9023SM  H10S12085   0.791   3.362  13.391  0.1913  0.3770  0.8206
   9023SM  H10T12086   0.911   3.223  13.375 -0.0472 -0.3434 -0.1021
   9023SM  C11S12087   0.737   3.183  13.501 -0.6719 -0.3891 -1.2246
   9023SM  H11S12088   0.743   3.075  13.476 -0.4248 -0.1429 -2.2914
   9023SM  H11T12089   0.630   3.207  13.516 -0.8522 -1.2742 -1.0374
   9023SM  C12S12090   0.808   3.222  13.632  0.2848 -0.1576 -0.5306
   9023SM  H12S12091   0.800   3.331  13.650 -3.3760 -0.7629  2.8851
   9023SM  H12T12092   0.916   3.194  13.634  0.0969 -0.9487 -0.8437
   9023SM  C13S12093   0.735   3.160  13.751 -0.3889 -0.2963 -0.0974
   9023SM  H13S12094   0.752   3.050  13.753 -1.2314 -0.4349  1.9036
   9023SM  H13T12095   0.627   3.181  13.761 -0.5502  0.1880 -2.4205
   9023SM  C14S12096   0.801   3.205  13.884 -0.2994 -0.4289  0.2328
   9023SM  H14S12097   0.776   3.313  13.896 -1.5224 -0.2911 -2.5409
   9023SM  H14T12098   0.907   3.181  13.863 -0.8750 -2.4521 -0.6196
   9023SM  C15S12099   0.750   3.120  14.000  0.3025 -0.0390 -0.0394
   9023SM  H15S12100   0.786   3.017  13.976 -0.4062 -0.6838  1.5158
   9023SM  H15T12101   0.642   3.131  14.024 -0.5265 -2.3524 -2.3072
   9023SM  C16S12102   0.819   3.161  14.129  0.5253  0.1065 -0.9974
   9023SM  H16S12103   0.794   3.265  14.159 -1.2528 -0.7240  0.6004
   9023SM  H16T12104   0.929   3.160  14.111  0.6274  0.6257 -0.4653
   9023SM  C17S12105   0.789   3.069  14.255  0.3135 -0.4753  0.2723
   9023SM  H17S12106   0.807   2.964  14.224 -1.2921 -1.0941  1.3205
   9023SM  H17T12107   0.680   3.072  14.275  0.0405  0.1142 -1.2213
   9023SM  C18S12108   0.859   3.101  14.382 -0.1150  0.1660 -0.5920
   9023SM  H18S12109   0.970   3.095  14.378  0.1478  0.8202  2.6023
   9023SM  H18T12110   0.816   3.030  14.456  0.7938  1.7973  1.5955
   9023SM  H18U12111   0.848   3.210  14.400  1.9116  0.1855  0.9293
   9023SM   C1F12112   0.512   3.782  12.912  0.5009 -0.1686 -0.8228
   9023SM    OF12113   0.415   3.806  12.839  0.7225 -0.3962  0.1710
   9023SM   C2F12114   0.498   3.798  13.061 -0.0713 -0.0820  0.2925
   9023SM   H2F12115   0.580   3.864  13.098 -1.3800  2.4397 -1.0273
   9023SM   H2G12116   0.502   3.691  13.091 -3.1001 -0.3143  0.1331
   9023SM   C3F12117   0.355   3.849  13.102 -0.5364 -0.0258  0.1136
   9023SM   H3F12118   0.281   3.779  13.057  0.3049  0.2618 -1.7931
   9023SM   H3G12119   0.339   3.945  13.048 -1.0004  0.8105  1.6879
   9023SM   C4F12120   0.338   3.860  13.251  0.3138  0.1134 -0.9689
   9023SM   H4F12121   0.394   3.946  13.294 -0.6295 -0.3847  1.4335
   9023SM   H4G12122   0.387   3.770  13.295 -0.0426  0.6536  0.6019
   9023SM   C5F12123   0.189   3.887  13.297  0.0764 -0.3418 -0.2246
   9023SM   H5F12124   0.129   3.804  13.255 -1.7933 -0.0848  1.7831
   9023SM   H5G12125   0.161   3.985  13.254 -0.4672 -0.0158  0.8253
   9023SM   C6F12126   0.177   3.885  13.447 -0.2078  0.4162 -0.0942
   9023SM   H6F12127   0.069   3.903  13.463  0.0265  1.9813 -0.0389
   9023SM   H6G12128   0.228   3.970  13.498  0.3847 -0.3985  0.6900
   9023SM   C7F12129   0.225   3.752  13.503  0.0968 -0.1270  0.2984
   9023SM   H7F12130   0.335   3.745  13.493  0.4059  1.5858  1.8795
   9023SM   H7G12131   0.179   3.674  13.438 -2.5123 -1.0751  3.0674
   9023SM   C8F12132   0.194   3.723  13.647  0.1764 -0.8114  0.6729
   9023SM   H8F12133   0.249   3.629  13.668  1.2835 -0.3335 -0.0039
   9023SM   H8G12134   0.084   3.709  13.657 -0.1767  2.5730  3.5733
   9023SM   C9F12135   0.246   3.831  13.739 -0.4262 -0.2098  0.3486
   9023SM   H9F12136   0.193   3.927  13.723 -1.3144 -0.4988  1.4165
   9023SM   H9G12137   0.354   3.845  13.716 -0.6039  0.5582 -0.0299
   9023SM  C10F12138   0.228   3.785  13.880 -0.2358  0.5206  0.3838
   9023SM  H10F12139   0.294   3.698  13.898  0.5268  0.9962 -0.0205
   9023SM  H10G12140   0.121   3.768  13.901 -0.5757  1.6828 -0.2977
   9023SM  C11F12141   0.298   3.899  13.965 -0.1949 -0.1813  0.2413
   9023SM  H11F12142   0.238   3.992  13.959 -1.1735 -0.8770 -1.2698
   9023SM  H11G12143   0.392   3.925  13.912 -0.1327 -2.5486 -0.9507
   9023SM  C12F12144   0.327   3.849  14.113 -0.0443  0.2120  0.0997
   9023SM  H12F12145   0.396   3.762  14.112 -2.0884 -1.4913 -0.3775
   9023SM  H12G12146   0.231   3.802  14.145 -0.6253  0.3430 -1.3525
   9023SM  C13F12147   0.364   3.956  14.205  0.7483 -0.6092 -0.3113
   9023SM  H13F12148   0.287   4.036  14.212  1.1704 -0.3289  4.1833
   9023SM  H13G12149   0.467   3.992  14.184  0.9167 -0.8932  0.0174
   9023SM  C14F12150   0.376   3.896  14.344  0.5031 -0.0318  0.6658
   9023SM  H14F12151   0.469   3.836  14.338  0.5864  0.1627 -0.1545
   9023SM  H14G12152   0.284   3.841  14.372 -0.3336  0.9189 -0.1332
   9023SM  C15F12153   0.405   4.002  14.446 -0.4270 -0.4552 -0.4037
   9023SM  H15F12154   0.320   4.073  14.450 -1.0721 -1.2231 -0.1192
   9023SM  H15G12155   0.499   4.055  14.419  0.1315 -1.8825 -1.3628
   9023SM  C16F12156   0.408   3.947  14.597 -0.5632  0.0833  0.6617
   9023SM  H16F12157   0.428   4.029  14.669  1.5682 -2.1544  2.7759
   9023SM  H16G12158   0.493   3.876  14.610 -1.0938 -0.5738  0.6290
   9023SM  C17F12159   0.272   3.875  14.631 -0.4680  0.2587 -0.2688
   9023SM  H17F12160   0.270   3.783  14.568  0.8452 -0.5355  0.7955
   9023SM  H17G12161   0.182   3.935  14.607 -2.1972 -1.8446  0.5980
   9023SM  C18F12162   0.267   3.841  14.780 -0.8770 -0.6060 -0.1738
   9023SM  H18F12163   0.260   3.937  14.835  1.4972 -0.6348  0.3077
   9023SM  H18G12164   0.362   3.786  14.800 -0.9624 -0.7371 -0.1215
   9023SM  C19F12165   0.149   3.760  14.825 -0.4610  0.7252 -0.7627
   9023SM  H19F12166   0.153   3.667  14.765  0.1317  1.1084 -1.3266
   9023SM  H19G12167   0.061   3.829  14.822  0.3416  1.7671 -0.7225
   9023SM  C20F12168   0.162   3.710  14.967 -0.0842  0.0397 -0.3944
   9023SM  H20F12169   0.164   3.791  15.043 -1.1674 -0.7619  0.5359
   9023SM  H20G12170   0.251   3.643  14.970 -1.0058 -1.2366 -0.8070
   9023SM  C21F12171   0.033   3.627  15.015  0.0885  0.1567 -0.9668
   9023SM  H21F12172  -0.005   3.569  14.929 -0.6341  3.0304 -2.7253
   9023SM  H21G12173  -0.040   3.706  15.044 -0.0619  0.3332 -1.8001
   9023SM  C22F12174   0.055   3.541  15.138 -0.4726  0.6536 -0.5809
   9023SM  H22F12175   0.120   3.451  15.141 -2.0380 -0.5034  0.1301
   9023SM  H22G12176  -0.047   3.504  15.160  0.2639 -0.7596  0.6073
   9023SM  C23F12177   0.106   3.605  15.273 -0.1334 -0.8345  0.4067
   9023SM  H23F12178   0.207   3.646  15.251 -1.7816  2.1479 -2.5659
   9023SM  H23G12179   0.111   3.522  15.346  0.4546  1.2317  2.8863
   9023SM  H23H12180   0.031   3.677  15.312 -1.6136 -2.0622 -0.0821
   9123SM     N12181   2.496   6.134  12.145  0.3181  0.0499  1.4782
   9123SM   C1512182   2.493   6.243  12.044 -0.8262  0.9566 -0.0276
   9123SM  H15A12183   2.488   6.205  11.943  1.4291  1.1365 -0.2431
   9123SM  H15B12184   2.582   6.304  12.051  1.0199 -1.5874 -0.0215
   9123SM  H15C12185   2.405   6.304  12.061 -0.7437  1.1325 -0.2271
   9123SM   C1412186   2.361   6.073  12.150  0.3049 -0.3436  0.1710
   9123SM  H14A12187   2.351   5.987  12.215 -0.6356 -1.2452 -1.1036
   9123SM  H14B12188   2.323   6.033  12.057 -1.4844 -0.1664  0.7911
   9123SM  H14C12189   2.301   6.159  12.173 -0.2255 -0.8122  0.5604
   9123SM   C1312190   2.582   6.024  12.094  0.0529 -0.0413  0.3318
   9123SM  H13A12191   2.600   5.954  12.174  0.5028 -0.5301 -0.1831
   9123SM  H13B12192   2.677   6.069  12.069  0.0027 -0.8819 -1.6250
   9123SM  H13C12193   2.538   5.967  12.013  0.8736  1.0228 -0.9016
   9123SM   C1212194   2.556   6.175  12.279 -0.2909  0.2035  0.0151
   9123SM  H12A12195   2.540   6.089  12.343  0.4153 -0.7119 -0.9931
   9123SM  H12B12196   2.488   6.246  12.325 -2.0188 -2.0943  1.2261
   9123SM   C1112197   2.701   6.225  12.280 -0.3723 -0.3576  0.2522
   9123SM  H11A12198   2.727   6.288  12.368  0.4597 -1.0151  0.4888
   9123SM  H11B12199   2.725   6.297  12.198  1.5350 -0.6020  0.5434
   9123SM     P12200   2.819   5.994  12.359 -0.3621  0.3761 -0.0951
   9123SM   O1312201   2.729   5.881  12.322  0.5191  0.2029 -0.8723
   9123SM   O1412202   2.967   5.969  12.349  0.0874 -0.5745  0.1388
   9123SM   O1112203   2.778   6.040  12.504  0.4480  0.4304 -0.1571
   9123SM   O1212204   2.789   6.121  12.266 -0.4176  0.3304 -0.1878
   9123SM   C1S12205   2.726   5.935  12.593 -0.1939 -0.5646 -0.1233
   9123SM   H1S12206   2.791   5.846  12.611  1.0429  0.7433  2.4084
   9123SM   H1T12207   2.632   5.891  12.553  0.2341 -0.6815 -1.0274
   9123SM    NF12208   2.636   5.869  12.826 -0.0294  0.2410 -0.0284
   9123SM   HNF12209   2.552   5.819  12.803  0.8018 -1.0458 -0.3856
   9123SM   C2S12210   2.661   5.980  12.732 -0.5867 -0.4902  0.4313
   9123SM   H2S12211   2.735   6.048  12.779 -0.5023  0.4843 -1.0419
   9123SM   C3S12212   2.535   6.074  12.714  0.2122 -0.1373  0.3196
   9123SM   H3S12213   2.450   6.013  12.676 -1.8243  1.9069  1.3353
   9123SM    O312214   2.558   6.177  12.612  0.2308  0.7280 -0.4012
   9123SM   HO312215   2.650   6.167  12.587 -0.5075 -0.5597 -2.9857
   9123SM   C4S12216   2.503   6.138  12.841 -0.1527 -0.2960  0.2757
   9123SM   H4S12217   2.581   6.207  12.876 -0.7065  0.2690  0.3933
   9123SM   C5S12218   2.390   6.133  12.900  0.6459 -0.0842  0.1265
   9123SM   H5S12219   2.307   6.076  12.856  1.1626 -0.3658 -0.5123
   9123SM   C6S12220   2.352   6.215  13.027  0.3406  0.7132  0.1986
   9123SM   H6S12221   2.255   6.266  13.013  0.1201  0.0070 -1.0140
   9123SM   H6T12222   2.435   6.286  13.047 -0.1767  0.5038  3.6140
   9123SM   C7S12223   2.329   6.128  13.147 -0.1722 -0.1922  0.8113
   9123SM   H7S12224   2.421   6.066  13.147  1.0967  1.6055  1.7385
   9123SM   H7T12225   2.250   6.050  13.138 -1.0947  0.6223  1.6755
   9123SM   C8S12226   2.335   6.194  13.286 -0.0144  0.1158  0.2162
   9123SM   H8S12227   2.239   6.244  13.312 -0.8713 -2.5230  2.6823
   9123SM   H8T12228   2.421   6.264  13.285 -0.2880  0.5661  2.3547
   9123SM   C9S12229   2.341   6.087  13.402 -0.4292 -0.3149 -0.5392
   9123SM   H9S12230   2.440   6.037  13.405 -0.7139 -0.8576  1.8154
   9123SM   H9T12231   2.265   6.012  13.371 -0.1536 -0.4699 -0.8449
   9123SM  C10S12232   2.305   6.146  13.539  0.4294 -0.0755  0.1635
   9123SM  H10S12233   2.206   6.196  13.536  1.5037  2.1488 -1.4246
   9123SM  H10T12234   2.379   6.222  13.572  0.8721 -0.7395  0.7284
   9123SM  C11S12235   2.296   6.047  13.660 -0.2285  0.5693  0.1726
   9123SM  H11S12236   2.390   5.987  13.657 -0.7669 -0.3929  1.4836
   9123SM  H11T12237   2.206   5.983  13.651  0.6964 -0.4982 -2.5761
   9123SM  C12S12238   2.296   6.130  13.788  0.6570 -0.0519  0.4100
   9123SM  H12S12239   2.206   6.194  13.793  0.6780 -0.1246  2.0440
   9123SM  H12T12240   2.395   6.179  13.802  1.0007 -0.6980  0.2760
   9123SM  C13S12241   2.269   6.039  13.903  0.3066  0.1187  0.0874
   9123SM  H13S12242   2.359   5.974  13.895  1.8609  1.9851  1.5091
   9123SM  H13T12243   2.170   5.990  13.899 -0.7677  1.8894  2.6075
   9123SM  C14S12244   2.265   6.104  14.044  0.8311 -0.1299 -0.1905
   9123SM  H14S12245   2.167   6.156  14.057 -0.2795 -2.4022  1.2524
   9123SM  H14T12246   2.345   6.179  14.058  0.5286  0.0889  0.4269
   9123SM  C15S12247   2.264   5.999  14.157 -0.4166 -0.8542 -0.5731
   9123SM  H15S12248   2.364   5.950  14.161  1.0100  1.9159  0.2762
   9123SM  H15T12249   2.188   5.922  14.132 -0.5395 -1.9408  2.6471
   9123SM  C16S12250   2.232   6.068  14.293  0.5891 -0.5372  0.3916
   9123SM  H16S12251   2.180   5.984  14.345 -1.2258  0.8756  0.9578
   9123SM  H16T12252   2.150   6.142  14.282 -0.8879 -2.3648 -1.9158
   9123SM  C17S12253   2.353   6.131  14.365  0.1081  1.0638  0.2836
   9123SM  H17S12254   2.400   6.187  14.281 -2.4492  0.3878 -1.7392
   9123SM  H17T12255   2.419   6.048  14.400  2.0970  2.9931  1.4311
   9123SM  C18S12256   2.310   6.218  14.487 -0.5539  0.6963 -0.4967
   9123SM  H18S12257   2.256   6.154  14.560  0.2761 -0.0326 -0.5078
   9123SM  H18T12258   2.255   6.304  14.444  0.2094  0.0676 -2.8842
   9123SM  H18U12259   2.402   6.259  14.533 -0.6005  1.1261 -0.7865
   9123SM   C1F12260   2.741   5.807  12.883  0.0473  0.1795 -0.3070
   9123SM    OF12261   2.850   5.856  12.864  0.1123 -0.3772 -0.7234
   9123SM   C2F12262   2.704   5.683  12.958 -0.1255  0.2010  0.2285
   9123SM   H2F12263   2.795   5.619  12.970  0.7646  1.7648  2.7862
   9123SM   H2G12264   2.636   5.619  12.899 -0.9184 -0.8522  2.1773
   9123SM   C3F12265   2.643   5.713  13.098 -0.0513  0.2982 -0.0700
   9123SM   H3F12266   2.594   5.618  13.126  0.3835 -0.3629 -1.4678
   9123SM   H3G12267   2.557   5.781  13.081 -0.7971 -0.6496 -0.1528
   9123SM   C4F12268   2.737   5.764  13.205  0.6294  0.0513  0.3247
   9123SM   H4F12269   2.794   5.855  13.176 -0.8434  0.4082 -1.6596
   9123SM   H4G12270   2.805   5.678  13.226  0.5180 -0.1990 -0.2987
   9123SM   C5F12271   2.667   5.786  13.338  0.0219 -0.3137  0.8605
   9123SM   H5F12272   2.600   5.698  13.351 -0.4433  0.1785  1.8853
   9123SM   H5G12273   2.606   5.878  13.343 -0.9153 -0.9397  1.2484
   9123SM   C6F12274   2.752   5.798  13.459 -0.4340 -0.0808  0.6562
   9123SM   H6F12275   2.819   5.886  13.448 -1.2141  0.3373 -0.9927
   9123SM   H6G12276   2.801   5.698  13.468 -2.9982 -1.5918 -0.9610
   9123SM   C7F12277   2.673   5.811  13.589 -0.2321 -0.2599 -0.0954
   9123SM   H7F12278   2.636   5.710  13.614 -1.1617  0.2536  0.6963
   9123SM   H7G12279   2.588   5.881  13.568 -0.3903 -0.2347  0.6035
   9123SM   C8F12280   2.755   5.859  13.709  0.5893  0.4225 -0.1589
   9123SM   H8F12281   2.790   5.961  13.684  0.3832  0.5325 -0.0049
   9123SM   H8G12282   2.843   5.793  13.726 -0.0140 -0.0760  1.1996
   9123SM   C9F12283   2.674   5.860  13.842  0.2073 -0.1042 -0.2082
   9123SM   H9F12284   2.648   5.754  13.863 -0.8190  0.2716  0.4866
   9123SM   H9G12285   2.575   5.909  13.829  0.2096  0.4320  1.5301
   9123SM  C10F12286   2.763   5.916  13.955  0.1193 -0.5050  0.1884
   9123SM  H10F12287   2.776   6.026  13.945 -0.0506 -0.5842 -1.0443
   9123SM  H10G12288   2.866   5.878  13.942  0.1290 -1.1547  1.8268
   9123SM  C11F12289   2.709   5.887  14.090 -0.0937  0.3843 -0.3177
   9123SM  H11F12290   2.684   5.780  14.102  2.4031 -0.1492  0.7500
   9123SM  H11G12291   2.616   5.938  14.123 -0.3487 -0.9271  1.0833
   9123SM  C12F12292   2.807   5.916  14.206 -0.1746 -0.4310  0.0615
   9123SM  H12F12293   2.847   6.018  14.189 -0.7723 -0.4014 -1.3346
   9123SM  H12G12294   2.894   5.848  14.196 -0.1949 -1.0284  3.0660
   9123SM  C13F12295   2.747   5.892  14.341 -0.1302 -0.1861  0.0012
   9123SM  H13F12296   2.750   5.784  14.367 -1.1659 -0.2968 -0.3003
   9123SM  H13G12297   2.642   5.927  14.346  0.5712  1.9073  1.1369
   9123SM  C14F12298   2.831   5.964  14.447  0.7064 -0.4054  0.1227
   9123SM  H14F12299   2.829   6.073  14.426  0.9572 -0.7101 -1.5940
   9123SM  H14G12300   2.935   5.929  14.433  1.2705  0.7146  1.3004
   9123SM  C15F12301   2.785   5.916  14.593 -0.1207 -0.0414  0.4414
   9123SM  H15F12302   2.853   5.976  14.656  1.7002 -1.3614 -0.1867
   9123SM  H15G12303   2.804   5.806  14.597 -1.7396 -0.3954 -0.5078
   9123SM  C16F12304   2.647   5.946  14.647  0.4591 -0.1990 -0.3993
   9123SM  H16F12305   2.566   5.894  14.591  1.0828 -0.1892 -1.3370
   9123SM  H16G12306   2.647   6.056  14.631 -1.8377  0.2253  1.9891
   9123SM  C17F12307   2.641   5.912  14.794 -0.7344 -1.0261  0.8888
   9123SM  H17F12308   2.739   5.937  14.840 -2.3497  2.8561  2.6524
   9123SM  H17G12309   2.602   5.808  14.808  0.1204 -1.1373  2.7082
   9123SM  C18F12310   2.549   5.997  14.879  0.1123 -0.1214 -0.4874
   9123SM  H18F12311   2.571   6.098  14.839  0.9613 -0.0643  0.1091
   9123SM  H18G12312   2.587   5.993  14.983 -0.8536 -0.3255 -0.1305
   9123SM  C19F12313   2.402   5.977  14.870  0.1126 -0.5167  0.7001
   9123SM  H19F12314   2.373   5.872  14.892 -2.5885  0.2905  1.3309
   9123SM  H19G12315   2.378   6.008  14.766  1.5305  0.7696  0.7292
   9123SM  C20F12316   2.319   6.068  14.960 -0.6255  0.7522  0.0151
   9123SM  H20F12317   2.343   6.173  14.932  1.5010  0.5497  0.8534
   9123SM  H20G12318   2.322   6.049  15.070 -1.7305 -2.0202 -0.3632
   9123SM  C21F12319   2.165   6.049  14.920 -0.9717 -0.4394 -0.4069
   9123SM  H21F12320   2.123   5.965  14.978 -1.0478 -0.6557 -0.7717
   9123SM  H21G12321   2.166   6.021  14.812 -0.7406 -1.7375 -0.0795
   9123SM  C22F12322   2.078   6.176  14.931  0.3739  0.8436 -0.1051
   9123SM  H22F12323   2.115   6.252  14.858  1.0473 -0.3650 -1.0610
   9123SM  H22G12324   2.093   6.203  15.038 -3.6108  0.3898  0.7338
   9123SM  C23F12325   1.930   6.140  14.903 -0.6024 -0.8290 -0.2186
   9123SM  H23F12326   1.867   6.232  14.904  0.6069  0.1171 -2.7535
   9123SM  H23G12327   1.894   6.087  14.994 -0.8840 -0.8378 -0.3368
   9123SM  H23H12328   1.929   6.094  14.803 -0.6786  1.5102 -1.3702
   9223SM     N12329   0.640   3.498  12.175  0.4623 -0.1069 -0.0752
   9223SM   C1512330   0.734   3.411  12.096 -0.1770 -0.3976 -0.1212
   9223SM  H15A12331   0.736   3.437  11.991  2.1528  1.6576  0.3137
   9223SM  H15B12332   0.719   3.304  12.104  2.5968 -0.7833  0.8387
   9223SM  H15C12333   0.833   3.432  12.134 -0.0770  1.8929 -1.4539
   9223SM   C1412334   0.690   3.638  12.192 -0.1155  0.2508  0.3295
   9223SM  H14A12335   0.684   3.692  12.099 -0.0168 -1.5799 -0.7989
   9223SM  H14B12336   0.797   3.642  12.208 -0.0099  0.5607 -0.4181
   9223SM  H14C12337   0.645   3.697  12.271 -0.9298 -1.0525  0.8775
   9223SM   C1312338   0.507   3.501  12.100 -0.9059  0.1013 -0.2421
   9223SM  H13A12339   0.528   3.557  12.010  2.7335 -0.5914  0.0425
   9223SM  H13B12340   0.432   3.554  12.157  0.0626  1.2616 -0.0055
   9223SM  H13C12341   0.468   3.404  12.072 -2.5488 -0.6406  3.8134
   9223SM   C1212342   0.615   3.445  12.312 -0.2960  0.1617 -0.2880
   9223SM  H12A12343   0.562   3.523  12.364 -0.6225 -0.7055  0.7181
   9223SM  H12B12344   0.712   3.419  12.352 -0.4879 -0.2595 -0.0818
   9223SM   C1112345   0.526   3.315  12.334 -0.3327 -0.2329 -0.7319
   9223SM  H11A12346   0.423   3.339  12.302 -0.9802  0.2837  1.5745
   9223SM  H11B12347   0.525   3.304  12.445 -0.2566 -0.6352 -0.7680
   9223SM     P12348   0.686   3.102  12.336  0.2335  0.0081 -0.2793
   9223SM   O1312349   0.694   2.972  12.262  0.3393 -0.7357  0.1078
   9223SM   O1412350   0.814   3.175  12.360  0.3703 -0.1824  0.4228
   9223SM   O1112351   0.618   3.069  12.476 -0.3115 -0.2963  0.3300
   9223SM   O1212352   0.576   3.200  12.274 -0.2041  0.5369 -0.2965
   9223SM   C1S12353   0.508   2.976  12.493  0.1940 -0.7139 -0.2526
   9223SM   H1S12354   0.524   2.897  12.417  2.9485 -1.4259  0.9125
   9223SM   H1T12355   0.409   3.020  12.470  0.1856 -0.7464 -0.2793
   9223SM    NF12356   0.436   2.791  12.654 -0.0126 -0.2542 -0.1556
   9223SM   HNF12357   0.362   2.807  12.718 -1.1896 -0.6219 -1.3711
   9223SM   C2S12358   0.519   2.908  12.638  0.1463  0.0148 -0.1364
   9223SM   H2S12359   0.625   2.875  12.639  0.3069  0.3795 -2.0189
   9223SM   C3S12360   0.500   3.017  12.749 -0.8168  0.4632 -0.0869
   9223SM   H3S12361   0.392   3.038  12.767 -0.4771  1.6187  0.6996
   9223SM    O312362   0.573   3.137  12.736  0.2769 -0.1940 -0.4919
   9223SM   HO312363   0.587   3.156  12.643  1.4261  0.0266 -0.2957
   9223SM   C4S12364   0.547   2.968  12.885  0.0594 -0.2285 -0.2333
   9223SM   H4S12365   0.656   2.966  12.904  0.0975  3.0217  0.3590
   9223SM   C5S12366   0.474   2.936  12.991  0.3472  0.3901  0.1129
   9223SM   H5S12367   0.367   2.912  12.976  0.2180  1.0675 -0.0900
   9223SM   C6S12368   0.538   2.889  13.120 -0.0438  0.0270  0.5326
   9223SM   H6S12369   0.630   2.948  13.141  0.4344  0.4409 -2.3206
   9223SM   H6T12370   0.584   2.790  13.101  1.1153  0.3174  1.6717
   9223SM   C7S12371   0.444   2.889  13.238  0.4374  0.4328 -0.5641
   9223SM   H7S12372   0.355   2.822  13.232  0.8135  0.0333 -1.8067
   9223SM   H7T12373   0.398   2.989  13.253  2.1801  1.1121  0.5814
   9223SM   C8S12374   0.519   2.861  13.371 -0.0939 -1.0458  0.5402
   9223SM   H8S12375   0.584   2.951  13.380 -0.0040 -0.7652 -1.9713
   9223SM   H8T12376   0.581   2.770  13.364 -1.3557 -1.8273 -3.5938
   9223SM   C9S12377   0.416   2.858  13.496 -0.7620 -0.0025 -0.0578
   9223SM   H9S12378   0.356   2.765  13.491 -0.2996 -0.3578  0.7579
   9223SM   H9T12379   0.360   2.954  13.495  1.3908  1.3158 -0.2379
   9223SM  C10S12380   0.486   2.839  13.631 -0.5746 -0.1621  0.9545
   9223SM  H10S12381   0.570   2.908  13.650 -1.9373  1.2231  2.1820
   9223SM  H10T12382   0.526   2.736  13.622 -1.2922 -0.3331 -0.7986
   9223SM  C11S12383   0.394   2.852  13.752 -0.7869 -0.7431 -0.2877
   9223SM  H11S12384   0.311   2.780  13.735  0.6448 -2.2516 -1.1441
   9223SM  H11T12385   0.344   2.951  13.758 -0.5440 -0.5018 -1.7477
   9223SM  C12S12386   0.473   2.818  13.879  0.4618 -0.4066  0.5579
   9223SM  H12S12387   0.574   2.863  13.879 -0.3987  1.7225 -1.2399
   9223SM  H12T12388   0.475   2.709  13.902 -0.8302 -0.2399  1.5513
   9223SM  C13S12389   0.391   2.873  13.999  0.1818  0.1782  0.2856
   9223SM  H13S12390   0.285   2.842  13.986  0.1683  0.6316 -0.8315
   9223SM  H13T12391   0.375   2.982  13.987 -2.3988 -0.2270 -0.5582
   9223SM  C14S12392   0.447   2.835  14.133  0.5608 -0.3703 -0.0427
   9223SM  H14S12393   0.545   2.879  14.159  1.4312 -1.2044 -1.7774
   9223SM  H14T12394   0.458   2.724  14.132 -0.3098 -0.4981  1.5690
   9223SM  C15S12395   0.361   2.874  14.256 -0.0024 -0.5435  0.0736
   9223SM  H15S12396   0.260   2.830  14.244  0.8734 -2.8040  0.5356
   9223SM  H15T12397   0.354   2.985  14.265  0.3176 -0.6076  1.2748
   9223SM  C16S12398   0.416   2.815  14.390  0.0655  0.3044 -0.3998
   9223SM  H16S12399   0.518   2.856  14.406 -1.1634  3.1822  0.8991
   9223SM  H16T12400   0.425   2.706  14.375  2.6309  0.6195 -1.7468
   9223SM  C17S12401   0.349   2.850  14.521  0.1046  0.1577 -1.0753
   9223SM  H17S12402   0.384   2.788  14.606 -0.8930  1.2468  0.1526
   9223SM  H17T12403   0.243   2.817  14.511  0.1783 -0.2918 -0.4504
   9223SM  C18S12404   0.342   3.003  14.549 -0.2185  0.2685 -0.1635
   9223SM  H18S12405   0.444   3.047  14.558  0.0613  0.0468 -1.8893
   9223SM  H18T12406   0.291   3.017  14.646 -0.4541  0.0198 -0.2489
   9223SM  H18U12407   0.286   3.063  14.474  2.0275  2.1814 -0.4416
   9223SM   C1F12408   0.450   2.677  12.585  0.2762 -0.4241  0.2512
   9223SM    OF12409   0.541   2.670  12.506  0.4226 -0.2361 -0.0591
   9223SM   C2F12410   0.354   2.567  12.613 -0.0035  0.2071  0.5833
   9223SM   H2F12411   0.263   2.611  12.566  0.4038 -0.1720 -0.5857
   9223SM   H2G12412   0.342   2.555  12.723 -0.7101 -3.8154  0.2205
   9223SM   C3F12413   0.412   2.438  12.545 -0.3048  0.1909  0.1679
   9223SM   H3F12414   0.517   2.424  12.580 -0.7448 -1.7588  0.8279
   9223SM   H3G12415   0.416   2.452  12.435  0.8316  0.7531  0.2568
   9223SM   C4F12416   0.326   2.319  12.575 -0.0037  0.8728  0.5523
   9223SM   H4F12417   0.361   2.227  12.523 -3.8557 -1.3913  1.5569
   9223SM   H4G12418   0.227   2.325  12.525  1.4039  1.6171 -2.3999
   9223SM   C5F12419   0.310   2.282  12.722  0.0188  0.0226  0.2907
   9223SM   H5F12420   0.239   2.352  12.772  0.0481 -0.7389  1.4268
   9223SM   H5G12421   0.410   2.292  12.768  0.2870  0.3340 -0.3464
   9223SM   C6F12422   0.249   2.147  12.745  0.3318 -0.3767  0.3600
   9223SM   H6F12423   0.320   2.062  12.743 -0.3680 -0.9609 -0.6261
   9223SM   H6G12424   0.177   2.125  12.664  1.3196 -1.3737 -0.2811
   9223SM   C7F12425   0.177   2.136  12.880  0.4906  0.3066  0.2575
   9223SM   H7F12426   0.099   2.215  12.878  0.9150  0.7499 -2.3171
   9223SM   H7G12427   0.239   2.154  12.971 -2.2149 -1.0139  2.5442
   9223SM   C8F12428   0.110   1.994  12.900 -0.3469  0.5086 -0.3736
   9223SM   H8F12429   0.196   1.928  12.921 -1.2096 -0.0092  1.7129
   9223SM   H8G12430   0.059   1.944  12.815  1.6083 -0.0274 -1.2872
   9223SM   C9F12431   0.006   1.994  13.010 -0.2947 -0.1876 -0.8193
   9223SM   H9F12432  -0.023   1.887  13.020  1.5231 -0.6075  0.4831
   9223SM   H9G12433  -0.087   2.055  12.998  0.3865  0.9218 -0.6012
   9223SM  C10F12434   0.066   2.037  13.149 -0.1630  0.1711  0.9707
   9223SM  H10F12435   0.104   2.139  13.129  0.1226 -0.3449 -1.4469
   9223SM  H10G12436   0.156   1.976  13.171  0.5157  0.7876 -0.0102
   9223SM  C11F12437  -0.036   2.034  13.259  0.1174  0.1544  0.6867
   9223SM  H11F12438  -0.067   1.928  13.277 -0.5822  0.7279  3.2738
   9223SM  H11G12439  -0.129   2.089  13.234  0.0125 -0.2618  0.1386
   9223SM  C12F12440   0.017   2.100  13.382  0.3666  0.2501  0.5601
   9223SM  H12F12441   0.046   2.207  13.378  0.5627  0.1730 -0.2994
   9223SM  H12G12442   0.115   2.051  13.402  0.8673  0.6213 -0.8675
   9223SM  C13F12443  -0.070   2.070  13.495  0.3851 -0.3243 -0.3216
   9223SM  H13F12444  -0.099   1.964  13.506 -2.7841  0.5316  0.5739
   9223SM  H13G12445  -0.162   2.132  13.494 -0.6744 -1.8556 -0.5247
   9223SM  C14F12446   0.001   2.091  13.632  0.1622 -0.3004  0.1468
   9223SM  H14F12447   0.069   2.179  13.626 -0.5096  0.4261  2.2139
   9223SM  H14G12448   0.054   1.995  13.649 -2.1891 -1.7444 -0.1774
   9223SM  C15F12449  -0.100   2.113  13.750  0.2544 -0.0023  0.3726
   9223SM  H15F12450  -0.160   2.020  13.750  0.5547 -0.2804 -2.1522
   9223SM  H15G12451  -0.159   2.202  13.720  1.3976  0.4720 -0.5349
   9223SM  C16F12452  -0.030   2.145  13.878 -0.1677 -0.0283 -0.4063
   9223SM  H16F12453   0.009   2.248  13.888 -0.4004 -0.0896  1.5133
   9223SM  H16G12454   0.063   2.090  13.904  0.7487  1.6439 -0.0199
   9223SM  C17F12455  -0.125   2.142  13.999  0.4753 -0.3023  0.0375
   9223SM  H17F12456  -0.166   2.040  13.994  1.7602 -0.8775  0.6302
   9223SM  H17G12457  -0.201   2.221  13.979  1.2326  0.3870 -0.2015
   9223SM  C18F12458  -0.059   2.163  14.141  0.1357 -0.3413  0.6459
   9223SM  H18F12459  -0.002   2.259  14.139 -1.8742  0.8981 -0.2060
   9223SM  H18G12460   0.003   2.072  14.150  0.9762  0.0406 -0.8314
   9223SM  C19F12461  -0.160   2.173  14.260  0.3604  0.4315 -0.2436
   9223SM  H19F12462  -0.204   2.275  14.263 -2.3873 -0.6494 -0.6929
   9223SM  H19G12463  -0.103   2.168  14.355 -0.5417  2.2843  0.4267
   9223SM  C20F12464  -0.268   2.067  14.257 -0.1047  0.6818  0.5902
   9223SM  H20F12465  -0.208   1.974  14.268  1.1687  1.6690  2.6668
   9223SM  H20G12466  -0.331   2.066  14.166  0.5705  0.2730  0.1175
   9223SM  C21F12467  -0.362   2.073  14.382  0.8717 -0.8778  0.7041
   9223SM  H21F12468  -0.313   2.137  14.458  1.5517 -0.3252 -0.1805
   9223SM  H21G12469  -0.395   1.971  14.411 -2.7045 -0.3049 -0.7044
   9223SM  C22F12470  -0.484   2.166  14.352  0.9598  0.0046 -0.4739
   9223SM  H22F12471  -0.557   2.112  14.288 -0.8956 -0.5242  1.9696
   9223SM  H22G12472  -0.461   2.262  14.300  0.2282  1.7101  2.1583
   9223SM  C23F12473  -0.559   2.217  14.469 -0.3151 -0.2966  0.0292
   9223SM  H23F12474  -0.646   2.273  14.430  1.3277  0.8333 -2.2681
   9223SM  H23G12475  -0.501   2.286  14.535 -1.5527  0.3098  0.5076
   9223SM  H23H12476  -0.607   2.149  14.543 -2.3282  1.3490  0.3213
   9323SM     N12477   2.613   5.004  12.404  0.1781  0.2912  0.1148
   9323SM   C1512478   2.486   4.967  12.333 -0.6681 -0.5607 -0.3808
   9323SM  H15A12479   2.432   5.053  12.295  0.3428  0.6412  0.8242
   9323SM  H15B12480   2.423   4.924  12.410  0.9544  0.4579  1.6087
   9323SM  H15C12481   2.497   4.900  12.248 -0.2817 -0.0277 -0.7582
   9323SM   C1412482   2.664   4.891  12.484 -0.0508  0.0681  0.2282
   9323SM  H14A12483   2.596   4.876  12.567 -0.5611  3.6996  0.6170
   9323SM  H14B12484   2.764   4.906  12.523 -0.7137 -1.0500  2.5827
   9323SM  H14C12485   2.667   4.802  12.424  0.8547  0.6096 -0.5515
   9323SM   C1312486   2.713   5.063  12.310  0.0420  0.1775  0.6516
   9323SM  H13A12487   2.675   5.150  12.259  0.3696 -0.3387 -0.5199
   9323SM  H13B12488   2.739   4.988  12.237  0.6947  0.0375  1.0197
   9323SM  H13C12489   2.806   5.088  12.359 -0.2924  0.9065  0.9196
   9323SM   C1212490   2.581   5.116  12.503 -0.1223 -0.4966 -0.2590
   9323SM  H12A12491   2.548   5.203  12.447 -0.5332 -1.1427 -1.0442
   9323SM  H12B12492   2.672   5.148  12.552 -1.1839  1.5255  0.5343
   9323SM   C1112493   2.477   5.108  12.621  0.9023 -1.0025 -0.1884
   9323SM  H11A12494   2.506   5.177  12.703  1.2805 -1.3129 -0.0568
   9323SM  H11B12495   2.487   5.009  12.669 -1.3561 -2.2060 -2.0260
   9323SM     P12496   2.259   5.260  12.582 -0.0709 -0.0987 -0.1726
   9323SM   O1312497   2.340   5.380  12.541 -0.0801  0.2623 -0.1348
   9323SM   O1412498   2.136   5.248  12.496  0.0233  0.4029  0.2449
   9323SM   O1112499   2.221   5.279  12.733  0.8695  0.0475  0.1896
   9323SM   O1212500   2.344   5.123  12.575  0.5751 -0.0163  0.8742
   9323SM   C1S12501   2.097   5.352  12.766  0.4551  0.1557  0.0350
   9323SM   H1S12502   2.006   5.291  12.752  0.6275  0.3596 -2.4698
   9323SM   H1T12503   2.088   5.446  12.708  1.2401  0.3868  0.2621
   9323SM    NF12504   1.977   5.485  12.945 -0.5378 -0.5366 -0.0706
   9323SM   HNF12505   1.995   5.583  12.942 -1.5978 -0.3469 -1.0693
   9323SM   C2S12506   2.098   5.412  12.913 -0.5503 -0.1844 -0.4040
   9323SM   H2S12507   2.107   5.316  12.969 -1.1133 -0.8930 -1.4912
   9323SM   C3S12508   2.225   5.491  12.941 -0.2646  0.4723  1.0719
   9323SM   H3S12509   2.227   5.573  12.866 -2.1530 -0.8158 -0.5132
   9323SM    O312510   2.347   5.415  12.922 -0.4475 -0.5111 -0.0363
   9323SM   HO312511   2.320   5.339  12.870 -0.8257 -0.9011  0.7101
   9323SM   C4S12512   2.223   5.544  13.078  0.0631 -0.1207 -0.0084
   9323SM   H4S12513   2.195   5.473  13.157 -0.7097 -0.6700 -0.7590
   9323SM   C5S12514   2.248   5.667  13.117 -0.6517  0.4036 -1.1004
   9323SM   H5S12515   2.257   5.732  13.029  1.1078  0.9828 -0.5166
   9323SM   C6S12516   2.266   5.725  13.256  0.4983  0.0484  0.2759
   9323SM   H6S12517   2.185   5.795  13.288 -0.0682 -0.4159 -0.1215
   9323SM   H6T12518   2.360   5.784  13.252 -0.0573  1.0444  1.4041
   9323SM   C7S12519   2.290   5.631  13.379 -0.2222  0.0914  0.3522
   9323SM   H7S12520   2.390   5.583  13.373 -0.0331  0.5765 -0.5024
   9323SM   H7T12521   2.199   5.567  13.388 -0.4121  0.1284 -1.0451
   9323SM   C8S12522   2.293   5.707  13.509 -0.3520  0.3426  0.1311
   9323SM   H8S12523   2.200   5.763  13.532 -1.3501 -0.6699 -1.2736
   9323SM   H8T12524   2.378   5.779  13.499  0.5057 -0.3234  2.2248
   9323SM   C9S12525   2.317   5.605  13.626 -0.5574 -0.0140  0.0365
   9323SM   H9S12526   2.414   5.556  13.606 -1.3454 -1.0802 -1.3519
   9323SM   H9T12527   2.233   5.532  13.625 -0.4912 -0.1479  1.6428
   9323SM  C10S12528   2.317   5.679  13.759 -0.3713  0.3029 -0.0247
   9323SM  H10S12529   2.220   5.734  13.768 -0.9125 -0.9835  3.3832
   9323SM  H10T12530   2.395   5.755  13.781 -0.1075 -0.0763  0.3516
   9323SM  C11S12531   2.333   5.583  13.874  0.2011 -0.0390 -0.7610
   9323SM  H11S12532   2.417   5.515  13.847  0.4210 -0.1186  0.0711
   9323SM  H11T12533   2.245   5.515  13.870 -1.7004  2.3713 -2.9372
   9323SM  C12S12534   2.358   5.651  14.014 -0.2395 -0.2068  0.2244
   9323SM  H12S12535   2.265   5.710  14.031 -0.4765  0.1577 -2.1021
   9323SM  H12T12536   2.448   5.715  14.015 -1.7370  1.9937  0.2281
   9323SM  C13S12537   2.356   5.549  14.128 -0.7315 -0.1072 -0.3524
   9323SM  H13S12538   2.439   5.475  14.135 -0.6097  0.1760  4.7705
   9323SM  H13T12539   2.275   5.474  14.116  1.3080 -2.2713 -1.3867
   9323SM  C14S12540   2.362   5.627  14.262  0.0265  0.0611 -0.2906
   9323SM  H14S12541   2.321   5.726  14.235 -1.4468  0.0256  1.6211
   9323SM  H14T12542   2.464   5.639  14.304 -0.2104  2.3796 -0.2660
   9323SM  C15S12543   2.280   5.571  14.374 -0.1012  0.3566  0.1418
   9323SM  H15S12544   2.267   5.652  14.449 -0.8672  0.7975 -0.4655
   9323SM  H15T12545   2.185   5.535  14.330  0.1722  0.8159 -0.8421
   9323SM  C16S12546   2.349   5.452  14.444 -0.2126 -0.5471 -0.1335
   9323SM  H16S12547   2.415   5.402  14.369 -1.1075  0.5655 -1.7200
   9323SM  H16T12548   2.281   5.379  14.493 -0.6525 -0.6424 -0.8671
   9323SM  C17S12549   2.452   5.487  14.554  0.1823 -0.0086 -0.5409
   9323SM  H17S12550   2.407   5.532  14.645  0.6142  1.1401 -0.8722
   9323SM  H17T12551   2.514   5.571  14.514 -0.2682  0.5495 -0.0915
   9323SM  C18S12552   2.539   5.369  14.592 -0.3415 -0.0705  0.2225
   9323SM  H18S12553   2.632   5.377  14.532 -0.2968 -0.9751  0.1579
   9323SM  H18T12554   2.478   5.278  14.574 -0.9047  0.4411 -0.5191
   9323SM  H18U12555   2.576   5.376  14.697  2.6477  1.2386 -0.8138
   9323SM   C1F12556   1.854   5.441  12.959 -0.3330 -0.0526 -0.1953
   9323SM    OF12557   1.816   5.325  12.966 -0.1937 -0.5215 -0.6826
   9323SM   C2F12558   1.746   5.547  12.975  0.5151  0.8026 -0.6337
   9323SM   H2F12559   1.698   5.559  12.875 -2.1451  1.4698  0.6314
   9323SM   H2G12560   1.784   5.646  13.009  2.2535 -0.4738  1.3761
   9323SM   C3F12561   1.636   5.507  13.075 -0.9682  0.6955  0.4511
   9323SM   H3F12562   1.602   5.404  13.049  1.5199 -0.5881  1.9418
   9323SM   H3G12563   1.549   5.577  13.070 -1.4315  0.0610 -1.6842
   9323SM   C4F12564   1.688   5.491  13.222  0.4386 -0.2862 -0.6682
   9323SM   H4F12565   1.714   5.593  13.259 -2.8630  1.7864 -3.4305
   9323SM   H4G12566   1.780   5.429  13.220  1.4892  1.1366  0.7845
   9323SM   C5F12567   1.584   5.420  13.318 -0.2866  0.6583  0.0095
   9323SM   H5F12568   1.551   5.320  13.281  0.2714  0.4205  0.1453
   9323SM   H5G12569   1.489   5.477  13.310 -0.4151  1.3195  4.1410
   9323SM   C6F12570   1.617   5.411  13.466 -0.3496 -0.7159 -0.0314
   9323SM   H6F12571   1.610   5.516  13.503 -0.2496 -0.8683  0.4333
   9323SM   H6G12572   1.723   5.379  13.479 -0.1338  0.2569  0.7620
   9323SM   C7F12573   1.527   5.322  13.547  0.0400 -0.1546 -0.1244
   9323SM   H7F12574   1.522   5.220  13.502  0.9399  0.2204 -1.1041
   9323SM   H7G12575   1.429   5.374  13.548  0.7211  1.1562 -0.1520
   9323SM   C8F12576   1.572   5.315  13.686 -0.1422  0.2290 -0.4641
   9323SM   H8F12577   1.675   5.274  13.686  0.2088  1.0773 -0.2017
   9323SM   H8G12578   1.520   5.238  13.747 -1.3625  1.6610  0.3726
   9323SM   C9F12579   1.575   5.448  13.767  0.8356 -0.2022  0.4580
   9323SM   H9F12580   1.483   5.501  13.735  0.6507 -0.4991  0.4882
   9323SM   H9G12581   1.664   5.504  13.730  0.9320 -1.6941 -1.7688
   9323SM  C10F12582   1.575   5.430  13.920  0.2708  0.1041  0.0724
   9323SM  H10F12583   1.676   5.391  13.948  1.0300 -0.5768 -3.1719
   9323SM  H10G12584   1.502   5.350  13.946  0.0774  0.2631  0.0194
   9323SM  C11F12585   1.538   5.556  13.990 -0.3309  0.2973 -0.0156
   9323SM  H11F12586   1.451   5.603  13.939 -0.7844  0.6555  1.0572
   9323SM  H11G12587   1.626   5.624  13.997  0.6652 -0.6544 -2.3310
   9323SM  C12F12588   1.497   5.539  14.138 -0.3133  0.5295  0.3566
   9323SM  H12F12589   1.424   5.455  14.140 -0.3586  0.4657 -1.7445
   9323SM  H12G12590   1.436   5.625  14.172 -1.8665 -0.0895 -0.7412
   9323SM  C13F12591   1.609   5.533  14.243  0.2161 -0.2087 -0.3216
   9323SM  H13F12592   1.649   5.636  14.251  1.1165 -0.6791  2.6164
   9323SM  H13G12593   1.687   5.466  14.201  0.1732 -0.1378 -0.5150
   9323SM  C14F12594   1.561   5.482  14.377  0.4586  0.1923 -0.3083
   9323SM  H14F12595   1.535   5.377  14.351 -0.7020  1.0019 -2.7608
   9323SM  H14G12596   1.464   5.532  14.398  0.0090  0.2597 -2.3079
   9323SM  C15F12597   1.664   5.482  14.494  0.1186  0.1539  0.6189
   9323SM  H15F12598   1.694   5.588  14.512  0.6540 -0.3709  3.1556
   9323SM  H15G12599   1.758   5.431  14.465  2.0299  3.5797  0.2459
   9323SM  C16F12600   1.601   5.423  14.619  0.6536 -0.1609  1.1030
   9323SM  H16F12601   1.554   5.323  14.611  0.4376  0.0827 -1.8106
   9323SM  H16G12602   1.522   5.497  14.643  0.3176  0.8757 -2.5914
   9323SM  C17F12603   1.690   5.415  14.747 -0.2852  0.1379  0.3709
   9323SM  H17F12604   1.746   5.511  14.750 -0.6269  0.3375  0.5318
   9323SM  H17G12605   1.755   5.326  14.735 -0.7518 -0.3860  1.5145
   9323SM  C18F12606   1.611   5.392  14.875 -0.1199 -1.0713 -0.5279
   9323SM  H18F12607   1.564   5.487  14.908 -1.5144 -0.5622 -3.6609
   9323SM  H18G12608   1.678   5.367  14.960 -0.0515 -0.2420 -0.3297
   9323SM  C19F12609   1.510   5.278  14.888 -0.8309 -0.5605  0.4862
   9323SM  H19F12610   1.566   5.183  14.883 -0.4980 -0.3123 -0.9682
   9323SM  H19G12611   1.446   5.277  14.797  1.3732 -0.1393 -1.1674
   9323SM  C20F12612   1.428   5.275  15.014 -0.2335  0.3547 -0.2670
   9323SM  H20F12613   1.382   5.374  15.031 -2.2835 -0.8017  1.3926
   9323SM  H20G12614   1.490   5.249  15.103  0.4440  0.5277 -0.6801
   9323SM  C21F12615   1.314   5.170  15.016  0.0678 -0.4322  0.7000
   9323SM  H21F12616   1.350   5.073  14.976 -0.5749  0.0184 -1.0755
   9323SM  H21G12617   1.233   5.210  14.951  0.8114  1.9265  1.1395
   9323SM  C22F12618   1.260   5.162  15.161  0.4333  0.2320 -0.7710
   9323SM  H22F12619   1.239   5.264  15.200 -0.9372 -0.0614 -0.7108
   9323SM  H22G12620   1.335   5.115  15.229  2.6886  2.2060 -1.7122
   9323SM  C23F12621   1.135   5.075  15.173  0.3671  0.4903 -0.7045
   9323SM  H23F12622   1.053   5.131  15.124  0.6503  1.0366 -0.5545
   9323SM  H23G12623   1.101   5.051  15.277 -1.1233 -0.1693 -1.3096
   9323SM  H23H12624   1.135   4.980  15.116 -1.5386 -0.2390  0.4053
   9423SM     N12625   1.139   6.562  12.148 -0.0988  0.2211  0.3233
   9423SM   C1512626   1.275   6.507  12.121 -0.0044  0.0909 -0.0378
   9423SM  H15A12627   1.344   6.525  12.202  0.1823 -2.0658  0.3296
   9423SM  H15B12628   1.314   6.529  12.022 -3.0045 -0.7920 -1.5511
   9423SM  H15C12629   1.257   6.401  12.114 -0.7546  0.0791  1.6559
   9423SM   C1412630   1.149   6.710  12.141 -0.0539  0.7548  0.5233
   9423SM  H14A12631   1.061   6.772  12.146  0.3029  1.3135  0.0434
   9423SM  H14B12632   1.196   6.755  12.055 -1.0175 -0.4701 -0.6927
   9423SM  H14C12633   1.215   6.745  12.219  0.1658  1.5248  0.0045
   9423SM   C1312634   1.052   6.525  12.031  0.0741  0.7150  0.2580
   9423SM  H13A12635   1.051   6.417  12.033  1.3490  0.5002 -3.1561
   9423SM  H13B12636   1.085   6.566  11.936  1.3465  0.1225  0.4198
   9423SM  H13C12637   0.951   6.550  12.061 -0.1833  1.6066 -1.2660
   9423SM   C1212638   1.077   6.510  12.280  0.4605 -0.8545 -0.3159
   9423SM  H12A12639   1.150   6.516  12.359  1.7980  1.1371 -1.5928
   9423SM  H12B12640   1.061   6.403  12.278  1.8009 -1.1185  1.2554
   9423SM   C1112641   0.942   6.562  12.329  0.1234 -0.1363 -0.5763
   9423SM  H11A12642   0.955   6.671  12.342  1.4345 -0.3610  0.1922
   9423SM  H11B12643   0.920   6.521  12.430 -0.2688  1.7657  0.1421
   9423SM     P12644   0.768   6.396  12.203  0.1262 -0.3087 -0.1915
   9423SM   O1312645   0.662   6.421  12.105 -0.1047  0.0358 -0.3182
   9423SM   O1412646   0.869   6.294  12.177 -0.1936 -0.4209  0.6570
   9423SM   O1112647   0.707   6.372  12.346  0.5650 -0.1144  0.0321
   9423SM   O1212648   0.838   6.535  12.235  0.8906 -0.1240  0.0912
   9423SM   C1S12649   0.606   6.467  12.391 -0.5065  0.3431 -0.1350
   9423SM   H1S12650   0.525   6.474  12.315  0.5653  0.2932 -1.3061
   9423SM   H1T12651   0.639   6.572  12.406 -1.8375  0.7010  0.4537
   9423SM    NF12652   0.423   6.506  12.567  0.0585 -0.6669  0.2613
   9423SM   HNF12653   0.438   6.568  12.643 -1.4855 -0.6826  0.6012
   9423SM   C2S12654   0.540   6.424  12.530 -0.0306 -1.0378  0.4577
   9423SM   H2S12655   0.501   6.321  12.514  0.4318 -0.8888 -2.0320
   9423SM   C3S12656   0.653   6.429  12.634 -0.1030  0.3744 -0.3242
   9423SM   H3S12657   0.680   6.536  12.646  2.5211 -0.1833 -0.5554
   9423SM    O312658   0.774   6.363  12.592  0.6452 -0.4076 -0.3085
   9423SM   HO312659   0.755   6.338  12.502 -0.6775 -0.8770  0.0706
   9423SM   C4S12660   0.628   6.357  12.767 -1.0435 -0.6437 -0.6897
   9423SM   H4S12661   0.643   6.248  12.776  0.9107 -0.3132  0.6706
   9423SM   C5S12662   0.590   6.423  12.878 -0.5432  0.0358 -0.5952
   9423SM   H5S12663   0.581   6.532  12.867  2.0008  0.1974 -1.8456
   9423SM   C6S12664   0.579   6.364  13.018  0.8950  0.3167  0.0551
   9423SM   H6S12665   0.613   6.259  13.031  2.2395  0.7821  0.3772
   9423SM   H6T12666   0.469   6.350  13.015  0.6941  1.7889 -0.2389
   9423SM   C7S12667   0.631   6.445  13.139  0.3145  1.3394  0.3602
   9423SM   H7S12668   0.578   6.542  13.124 -0.6912  0.4526 -2.5821
   9423SM   H7T12669   0.740   6.466  13.134  0.3657  0.9036 -0.5009
   9423SM   C8S12670   0.603   6.369  13.266  0.2466 -0.2841  0.0588
   9423SM   H8S12671   0.621   6.260  13.260 -2.3915 -0.7701  0.1330
   9423SM   H8T12672   0.495   6.371  13.289  0.1942  0.4944 -0.2323
   9423SM   C9S12673   0.663   6.426  13.403  0.2711  0.1379  0.5916
   9423SM   H9S12674   0.650   6.537  13.407 -1.5014  0.0662 -1.2058
   9423SM   H9T12675   0.771   6.399  13.404 -0.0458 -1.3729 -1.0304
   9423SM  C10S12676   0.599   6.362  13.528 -0.0498  0.2961  0.1431
   9423SM  H10S12677   0.635   6.257  13.532  0.4710  0.4938  3.6105
   9423SM  H10T12678   0.488   6.360  13.523 -0.0059 -1.1814 -0.7149
   9423SM  C11S12679   0.645   6.429  13.661 -0.8321 -0.1303  0.0896
   9423SM  H11S12680   0.611   6.535  13.659  0.0205  0.1477 -0.3548
   9423SM  H11T12681   0.756   6.432  13.657 -0.8519  1.0262 -0.1290
   9423SM  C12S12682   0.598   6.367  13.794  0.5060 -0.3668  0.5369
   9423SM  H12S12683   0.617   6.257  13.787 -0.9794 -0.6022 -0.1417
   9423SM  H12T12684   0.489   6.383  13.812 -0.2661 -1.2403 -2.6247
   9423SM  C13S12685   0.678   6.408  13.914  0.0926 -0.4131  0.0157
   9423SM  H13S12686   0.656   6.516  13.922 -1.4682 -0.5771 -1.5532
   9423SM  H13T12687   0.787   6.406  13.889 -0.1214  0.4043 -1.0434
   9423SM  C14S12688   0.647   6.334  14.044 -0.2288  0.7042 -0.1858
   9423SM  H14S12689   0.665   6.225  14.037 -2.0429  0.4679 -2.0283
   9423SM  H14T12690   0.539   6.350  14.067 -0.4708  1.3643 -1.6285
   9423SM  C15S12691   0.732   6.394  14.165  0.2668 -0.0399  0.7520
   9423SM  H15S12692   0.753   6.502  14.151  0.2312 -0.0285  0.7858
   9423SM  H15T12693   0.834   6.351  14.161  0.6029  0.8313 -0.8253
   9423SM  C16S12694   0.674   6.382  14.311 -0.1368  0.4718  0.7699
   9423SM  H16S12695   0.639   6.278  14.328  0.2361  0.2819  0.3860
   9423SM  H16T12696   0.577   6.435  14.321 -0.1283  0.4390  1.0359
   9423SM  C17S12697   0.773   6.431  14.418 -0.0126 -1.5663 -0.3384
   9423SM  H17S12698   0.785   6.537  14.386 -0.4804 -0.6491  2.3267
   9423SM  H17T12699   0.866   6.374  14.392  0.6386 -0.7326  0.1135
   9423SM  C18S12700   0.729   6.410  14.556  0.5637  1.0288 -1.0729
   9423SM  H18S12701   0.785   6.465  14.634 -2.3536  0.0022  2.0112
   9423SM  H18T12702   0.734   6.304  14.588  0.2405  1.2954 -0.1008
   9423SM  H18U12703   0.625   6.445  14.573  0.6896  0.6722  0.5385
   9423SM   C1F12704   0.311   6.522  12.499  0.1145 -0.5584 -0.0428
   9423SM    OF12705   0.288   6.451  12.400 -0.2776 -0.0510  0.3907
   9423SM   C2F12706   0.214   6.611  12.548  0.0007 -0.5753 -0.4654
   9423SM   H2F12707   0.148   6.641  12.464 -1.5670  0.2990  1.0270
   9423SM   H2G12708   0.256   6.710  12.577 -0.2590 -0.5661 -0.1081
   9423SM   C3F12709   0.140   6.560  12.675 -0.1434  0.3748  0.4251
   9423SM   H3F12710   0.086   6.467  12.644  0.6071  0.3748 -0.9747
   9423SM   H3G12711   0.054   6.625  12.701 -1.9818 -1.7082 -0.0856
   9423SM   C4F12712   0.220   6.537  12.804 -0.0560  0.4533  0.0278
   9423SM   H4F12713   0.282   6.623  12.839 -1.1569 -0.0430  3.6072
   9423SM   H4G12714   0.289   6.453  12.782 -2.5978 -1.6799 -0.3257
   9423SM   C5F12715   0.133   6.497  12.925 -0.0028 -0.0052 -0.1829
   9423SM   H5F12716   0.121   6.387  12.919 -0.7819 -0.0840  2.0165
   9423SM   H5G12717   0.027   6.528  12.930  0.6084  2.1466  0.6432
   9423SM   C6F12718   0.206   6.535  13.060 -0.0762 -0.2777 -0.3578
   9423SM   H6F12719   0.213   6.646  13.057  0.0887 -0.2905 -0.4572
   9423SM   H6G12720   0.309   6.492  13.055  1.2746  2.3857  1.8806
   9423SM   C7F12721   0.146   6.472  13.184  0.0505  0.6689  0.0972
   9423SM   H7F12722   0.163   6.362  13.174  0.3176  0.7426 -0.2944
   9423SM   H7G12723   0.036   6.488  13.182  0.1272  1.3636 -2.1808
   9423SM   C8F12724   0.217   6.525  13.311 -0.6374 -0.2469  0.1895
   9423SM   H8F12725   0.198   6.634  13.318  1.3508  0.3740 -2.6689
   9423SM   H8G12726   0.324   6.512  13.286 -0.0603  1.8730  1.3247
   9423SM   C9F12727   0.173   6.454  13.437 -0.4829 -1.4538 -0.0605
   9423SM   H9F12728   0.198   6.349  13.409  2.2756 -0.7110 -0.6996
   9423SM   H9G12729   0.068   6.476  13.466  0.6094  0.4316  2.9543
   9423SM  C10F12730   0.263   6.495  13.566 -0.0736 -0.0113 -0.2399
   9423SM  H10F12731   0.368   6.515  13.533  1.6412 -4.4484  1.7352
   9423SM  H10G12732   0.262   6.414  13.642  0.0563 -0.0382 -0.2650
   9423SM  C11F12733   0.208   6.620  13.637  0.6700  0.2989  0.4798
   9423SM  H11F12734   0.104   6.608  13.674  0.0629  0.4431 -1.1072
   9423SM  H11G12735   0.214   6.704  13.564 -0.7331 -1.1374 -1.3983
   9423SM  C12F12736   0.296   6.663  13.754 -0.3219  0.6233 -0.1777
   9423SM  H12F12737   0.299   6.774  13.757  1.8522  0.5903  0.5281
   9423SM  H12G12738   0.401   6.628  13.742  0.4532  1.9030  2.1252
   9423SM  C13F12739   0.251   6.618  13.892 -0.6597  0.1403 -0.0848
   9423SM  H13F12740   0.281   6.512  13.909 -1.2565 -0.3548 -1.8596
   9423SM  H13G12741   0.140   6.625  13.888 -0.8223 -1.3963  0.8981
   9423SM  C14F12742   0.323   6.695  14.005  0.3607 -0.0927  0.4201
   9423SM  H14F12743   0.275   6.794  13.987  0.0361 -0.4271 -0.6273
   9423SM  H14G12744   0.430   6.716  13.990 -0.0472  1.0022 -1.1090
   9423SM  C15F12745   0.298   6.653  14.149  0.2398  0.2690 -0.2009
   9423SM  H15F12746   0.322   6.545  14.150 -1.8093 -0.2470 -1.2536
   9423SM  H15G12747   0.189   6.665  14.169  0.5139 -1.4224  2.8902
   9423SM  C16F12748   0.380   6.725  14.259  0.1155 -0.5367 -0.9862
   9423SM  H16F12749   0.366   6.834  14.243  0.1407 -0.2878  0.5176
   9423SM  H16G12750   0.488   6.696  14.257  0.0333 -0.8827 -0.4572
   9423SM  C17F12751   0.323   6.690  14.399  0.1983  0.0441  0.6035
   9423SM  H17F12752   0.216   6.663  14.389  0.5387 -1.1580  0.0452
   9423SM  H17G12753   0.330   6.784  14.458 -0.4238 -2.0778  4.3384
   9423SM  C18F12754   0.399   6.579  14.470 -0.4612 -0.8296 -0.4749
   9423SM  H18F12755   0.507   6.607  14.470 -0.9224  1.1128  0.2036
   9423SM  H18G12756   0.382   6.481  14.420  0.1070 -1.0713 -0.2042
   9423SM  C19F12757   0.374   6.568  14.625 -0.2950 -0.2217  0.4300
   9423SM  H19F12758   0.400   6.661  14.680  0.4149 -1.1765  1.7739
   9423SM  H19G12759   0.422   6.477  14.667  0.8971  0.7263  1.2022
   9423SM  C20F12760   0.226   6.552  14.647 -0.2776  0.3260  0.4847
   9423SM  H20F12761   0.202   6.470  14.576  2.5646 -4.0186  3.9651
   9423SM  H20G12762   0.177   6.648  14.622  0.9692  0.3961 -1.9798
   9423SM  C21F12763   0.186   6.510  14.788 -0.0489  0.1052  0.2126
   9423SM  H21F12764   0.200   6.604  14.845  4.0243  0.1692 -0.5705
   9423SM  H21G12765   0.252   6.431  14.831  0.0677  0.0335 -0.0972
   9423SM  C22F12766   0.046   6.450  14.791  0.9564 -0.5056 -0.6411
   9423SM  H22F12767   0.052   6.353  14.738  2.5527  0.5609 -2.5717
   9423SM  H22G12768  -0.028   6.526  14.757  0.9125 -0.0930  0.3269
   9423SM  C23F12769   0.006   6.419  14.935 -0.3505  0.0488 -0.4000
   9423SM  H23F12770  -0.022   6.520  14.972 -1.0705  0.3323 -1.6623
   9423SM  H23G12771   0.086   6.363  14.989 -2.7665 -2.2241  1.0847
   9423SM  H23H12772  -0.090   6.363  14.940 -0.3346 -0.0775 -1.3118
   9523SM     N12773   2.941   2.093  12.303 -0.2667 -0.2929 -0.3992
   9523SM   C1512774   3.010   2.092  12.173  0.6000 -0.5328 -0.2338
   9523SM  H15A12775   2.944   2.141  12.102  1.3363  0.4572 -0.2561
   9523SM  H15B12776   3.047   1.994  12.148  0.6861 -1.0867  1.8174
   9523SM  H15C12777   3.096   2.156  12.187  1.0223 -1.6005  2.8617
   9523SM   C1412778   2.805   2.025  12.281  0.3380 -1.1994 -0.5259
   9523SM  H14A12779   2.750   2.060  12.195 -2.2074 -1.4660  0.8944
   9523SM  H14B12780   2.745   2.034  12.371 -0.1381 -3.2364 -0.5880
   9523SM  H14C12781   2.828   1.920  12.273  1.7707 -1.0122  0.7641
   9523SM   C1312782   3.022   2.024  12.407  0.3136 -0.2842 -0.9859
   9523SM  H13A12783   3.010   1.917  12.397  0.4094 -0.2346 -1.6119
   9523SM  H13B12784   2.984   2.033  12.509  3.2171 -2.7135  0.4522
   9523SM  H13C12785   3.122   2.063  12.404  0.0727  0.6304  1.0736
   9523SM   C1212786   2.910   2.243  12.350  0.1250 -0.0376  0.5780
   9523SM  H12A12787   2.845   2.238  12.436  0.7268 -3.1856  0.9974
   9523SM  H12B12788   2.870   2.292  12.263  3.5280 -1.4453 -2.0543
   9523SM   C1112789   3.024   2.330  12.401  0.5809 -0.3862  0.1509
   9523SM  H11A12790   3.057   2.281  12.495 -0.3620 -1.8737 -0.2680
   9523SM  H11B12791   2.986   2.431  12.426 -0.1676 -1.2071  2.6521
   9523SM     P12792   3.269   2.416  12.330  0.5237  0.2671  0.5949
   9523SM   O1312793   3.370   2.313  12.288  0.8921 -0.0942  0.0706
   9523SM   O1412794   3.276   2.553  12.280  0.2575 -0.3311  0.1233
   9523SM   O1112795   3.274   2.424  12.485 -0.4134  0.1457 -0.0687
   9523SM   O1212796   3.130   2.346  12.304  0.7197  0.2406 -0.6681
   9523SM   C1S12797   3.401   2.439  12.553  0.1548  0.6063 -0.0876
   9523SM   H1S12798   3.413   2.549  12.544 -1.2030  0.7364 -0.5793
   9523SM   H1T12799   3.482   2.378  12.508 -0.7820  0.0847 -1.1033
   9523SM    NF12800   3.490   2.454  12.787  0.5097  0.1906  0.4285
   9523SM   HNF12801   3.537   2.395  12.852  1.6335  1.0372  0.4211
   9523SM   C2S12802   3.390   2.394  12.701 -0.3404 -0.1274  0.4733
   9523SM   H2S12803   3.291   2.427  12.739 -0.2593 -1.6889  2.1547
   9523SM   C3S12804   3.373   2.242  12.704  0.0212  0.4830 -0.0778
   9523SM   H3S12805   3.465   2.197  12.660  1.8591  1.7257  2.2669
   9523SM    O312806   3.261   2.194  12.625  0.1452  0.5689 -0.4404
   9523SM   HO312807   3.240   2.266  12.565 -1.9420  1.6650  1.4703
   9523SM   C4S12808   3.364   2.180  12.845 -0.4641 -0.2784 -0.1831
   9523SM   H4S12809   3.462   2.161  12.890 -0.3463 -0.5173 -0.5393
   9523SM   C5S12810   3.248   2.147  12.908 -0.0622  0.2441  0.4242
   9523SM   H5S12811   3.159   2.154  12.845 -1.3416 -1.0669  2.0028
   9523SM   C6S12812   3.246   2.091  13.044  0.0355  0.0478 -0.2673
   9523SM   H6S12813   3.287   1.989  13.035  2.5463  1.0969 -1.8924
   9523SM   H6T12814   3.145   2.074  13.088 -0.8607  1.5706 -1.5971
   9523SM   C7S12815   3.341   2.157  13.144 -0.1309  0.4409 -0.1567
   9523SM   H7S12816   3.319   2.265  13.132  2.0739  0.9014 -0.4531
   9523SM   H7T12817   3.446   2.141  13.112 -0.3647 -0.4699 -0.5173
   9523SM   C8S12818   3.319   2.110  13.288  0.2509  0.5061 -0.1311
   9523SM   H8S12819   3.386   2.024  13.308 -0.5877 -0.1841 -0.2130
   9523SM   H8T12820   3.216   2.070  13.297 -0.5297  2.0617 -1.6942
   9523SM   C9S12821   3.353   2.223  13.393  0.2878  0.3863  0.6960
   9523SM   H9S12822   3.298   2.318  13.376  1.6603  1.0980  0.0886
   9523SM   H9T12823   3.458   2.258  13.402  0.1694  1.0714 -0.5017
   9523SM  C10S12824   3.319   2.179  13.536 -0.5557 -0.3304  0.8451
   9523SM  H10S12825   3.387   2.097  13.567  1.5960  0.6226 -1.1223
   9523SM  H10T12826   3.215   2.140  13.531 -1.0125  1.0192 -0.9904
   9523SM  C11S12827   3.322   2.296  13.635  0.7962 -0.7602  0.0383
   9523SM  H11S12828   3.251   2.373  13.601  2.3779  0.1370 -1.4009
   9523SM  H11T12829   3.423   2.341  13.628 -0.1648  1.3813 -0.7954
   9523SM  C12S12830   3.294   2.249  13.778 -0.3894 -0.1018 -0.2161
   9523SM  H12S12831   3.361   2.168  13.816 -0.0821  0.7927  1.2580
   9523SM  H12T12832   3.189   2.215  13.779 -0.1940 -1.0915 -3.2860
   9523SM  C13S12833   3.313   2.364  13.881  0.6507 -0.7492  0.1236
   9523SM  H13S12834   3.255   2.448  13.839  2.4188  0.8660  0.7165
   9523SM  H13T12835   3.419   2.397  13.892  0.8830 -1.6966  0.9291
   9523SM  C14S12836   3.257   2.328  14.020  0.5310  0.3301  0.5647
   9523SM  H14S12837   3.298   2.227  14.042  0.7591  0.2730 -0.0920
   9523SM  H14T12838   3.146   2.325  14.023  0.3065 -0.2556 -3.2229
   9523SM  C15S12839   3.297   2.427  14.138 -0.2514  0.7440  0.2521
   9523SM  H15S12840   3.239   2.520  14.120 -0.4844  0.3190 -1.2887
   9523SM  H15T12841   3.405   2.448  14.124 -0.4080  2.4986  1.4058
   9523SM  C16S12842   3.255   2.377  14.283 -0.4997  0.2506 -0.2155
   9523SM  H16S12843   3.277   2.456  14.358  0.8783  0.2007 -0.5395
   9523SM  H16T12844   3.312   2.286  14.313  0.6460  1.4275  1.3350
   9523SM  C17S12845   3.109   2.347  14.295  0.7444 -0.1578 -0.4428
   9523SM  H17S12846   3.086   2.248  14.251 -2.1843 -0.5525  1.7056
   9523SM  H17T12847   3.047   2.424  14.244 -0.7307 -0.7553  0.3873
   9523SM  C18S12848   3.049   2.346  14.437 -0.0780 -0.5036  0.1492
   9523SM  H18S12849   2.940   2.325  14.440 -0.1974  0.2013  0.9173
   9523SM  H18T12850   3.060   2.435  14.502 -0.7350 -0.6077  0.4108
   9523SM  H18U12851   3.096   2.263  14.495 -2.2494 -1.5018  0.5767
   9523SM   C1F12852   3.508   2.587  12.799 -0.4828 -0.0783 -0.0588
   9523SM    OF12853   3.438   2.679  12.744 -0.5351 -0.1171  0.0099
   9523SM   C2F12854   3.618   2.627  12.892  0.2700 -0.7026 -0.2004
   9523SM   H2F12855   3.658   2.727  12.868 -2.2318  1.0225  2.2324
   9523SM   H2G12856   3.692   2.545  12.906  1.4537  0.1145 -1.4397
   9523SM   C3F12857   3.558   2.661  13.028  0.0271 -0.3712 -0.0429
   9523SM   H3F12858   3.493   2.575  13.055  0.9044 -1.5569 -1.5552
   9523SM   H3G12859   3.500   2.755  13.019  0.4733 -0.1836 -1.0971
   9523SM   C4F12860   3.661   2.694  13.133 -0.1698 -0.2577  0.4065
   9523SM   H4F12861   3.703   2.796  13.120 -1.3404  0.4338  1.7468
   9523SM   H4G12862   3.743   2.624  13.106 -0.8221 -1.6120  1.8134
   9523SM   C5F12863   3.597   2.677  13.272 -0.1185 -0.2553  0.0530
   9523SM   H5F12864   3.585   2.567  13.276  3.3307 -0.8040 -0.9953
   9523SM   H5G12865   3.500   2.730  13.276  0.0762  0.2629 -1.5366
   9523SM   C6F12866   3.674   2.712  13.400 -0.0354 -0.5702 -0.4129
   9523SM   H6F12867   3.691   2.821  13.388 -1.4226 -0.5261 -2.4796
   9523SM   H6G12868   3.774   2.665  13.408  0.1863  0.1171  1.0719
   9523SM   C7F12869   3.602   2.690  13.533 -0.0198  0.4148 -0.4853
   9523SM   H7F12870   3.661   2.718  13.623 -3.3885  1.3668  1.6404
   9523SM   H7G12871   3.581   2.583  13.554 -1.0953  0.3558 -1.7074
   9523SM   C8F12872   3.473   2.774  13.543 -0.3222 -0.4211  0.4469
   9523SM   H8F12873   3.391   2.726  13.485  1.6743 -1.3720 -1.7709
   9523SM   H8G12874   3.494   2.861  13.478 -0.8064 -0.7269 -0.1382
   9523SM   C9F12875   3.432   2.811  13.681  0.3745 -0.2756 -0.2004
   9523SM   H9F12876   3.333   2.861  13.688 -0.3223 -1.8150  1.6923
   9523SM   H9G12877   3.511   2.885  13.702  0.7516  0.1636 -2.7696
   9523SM  C10F12878   3.418   2.698  13.783 -0.3868 -0.0679 -0.5909
   9523SM  H10F12879   3.494   2.621  13.758  0.5647  0.3231  0.9720
   9523SM  H10G12880   3.314   2.658  13.782 -1.2643  2.0182  0.7671
   9523SM  C11F12881   3.438   2.747  13.922  0.2576 -0.3320  0.2797
   9523SM  H11F12882   3.538   2.794  13.939 -0.1627  0.6415  0.1077
   9523SM  H11G12883   3.420   2.666  13.996  0.8936 -1.0128 -0.2866
   9523SM  C12F12884   3.346   2.858  13.961  0.2808  0.1053 -0.0298
   9523SM  H12F12885   3.241   2.824  13.945 -0.0778  1.6266 -1.1501
   9523SM  H12G12886   3.370   2.948  13.901  1.8452 -0.8083 -0.8469
   9523SM  C13F12887   3.340   2.879  14.110 -0.5827 -0.4166  0.5357
   9523SM  H13F12888   3.436   2.883  14.166  1.2326 -1.4780 -2.2887
   9523SM  H13G12889   3.306   2.780  14.146  0.4514 -0.9549  0.0761
   9523SM  C14F12890   3.244   2.988  14.149  0.0946  0.3071 -0.3248
   9523SM  H14F12891   3.153   2.986  14.085  0.2366 -1.6703 -0.5346
   9523SM  H14G12892   3.282   3.088  14.121 -2.3534  1.8496  1.5249
   9523SM  C15F12893   3.219   2.979  14.304  0.7306  0.2010  0.3632
   9523SM  H15F12894   3.310   2.966  14.367  0.2619  0.4657  1.0983
   9523SM  H15G12895   3.164   2.885  14.323  0.2934  0.3522 -0.1287
   9523SM  C16F12896   3.137   3.104  14.351  0.2937  0.1393 -0.7891
   9523SM  H16F12897   3.049   3.130  14.287 -1.0717 -0.7297  0.6653
   9523SM  H16G12898   3.207   3.190  14.339  1.0370 -0.5785 -1.8382
   9523SM  C17F12899   3.088   3.093  14.496 -0.4373  0.0582 -0.5030
   9523SM  H17F12900   3.072   2.987  14.527  0.9442  0.0111  0.0763
   9523SM  H17G12901   2.990   3.142  14.516  0.2864  0.4793  2.4213
   9523SM  C18F12902   3.197   3.164  14.589  0.7479  1.0483  0.4086
   9523SM  H18F12903   3.223   3.268  14.557  1.3719  0.6588 -0.3788
   9523SM  H18G12904   3.283   3.095  14.587 -1.4224 -1.8686  0.9379
   9523SM  C19F12905   3.140   3.179  14.733 -0.4067  0.0621 -0.2668
   9523SM  H19F12906   3.089   3.084  14.760 -0.4955  0.5555  1.4517
   9523SM  H19G12907   3.062   3.258  14.731  0.4490  0.9487  0.2015
   9523SM  C20F12908   3.258   3.202  14.838  0.0067 -0.2112  0.2950
   9523SM  H20F12909   3.323   3.278  14.790 -3.6333  2.4318 -0.9845
   9523SM  H20G12910   3.318   3.110  14.856 -0.0797  0.0722  2.2668
   9523SM  C21F12911   3.203   3.265  14.965 -0.6256 -0.4136  0.0784
   9523SM  H21F12912   3.119   3.195  14.984 -0.3330 -1.0173 -0.7928
   9523SM  H21G12913   3.169   3.369  14.946 -0.3600 -0.6271 -1.7352
   9523SM  C22F12914   3.295   3.282  15.091 -0.4892 -0.0105  0.0705
   9523SM  H22F12915   3.378   3.346  15.054 -1.1392  0.3604 -0.7654
   9523SM  H22G12916   3.337   3.184  15.122  0.4193 -0.0577 -1.2539
   9523SM  C23F12917   3.222   3.347  15.214  0.0156 -0.2814  1.0867
   9523SM  H23F12918   3.258   3.303  15.310 -0.5445 -2.0882  0.5084
   9523SM  H23G12919   3.115   3.323  15.201  0.0617 -0.6339  1.3550
   9523SM  H23H12920   3.243   3.456  15.208 -0.3672 -0.2745 -3.7102
   9623SM     N12921   5.561   0.640  11.853 -0.4738 -0.0838 -0.0842
   9623SM   C1512922   5.461   0.538  11.828  0.5762 -0.3080 -0.2996
   9623SM  H15A12923   5.486   0.441  11.790 -0.3441 -0.2013 -1.2385
   9623SM  H15B12924   5.388   0.560  11.751 -1.0812 -2.0426  0.6757
   9623SM  H15C12925   5.396   0.536  11.914 -0.8664 -0.6457 -1.3593
   9623SM   C1412926   5.670   0.622  11.748 -0.7643 -0.1308  0.5332
   9623SM  H14A12927   5.754   0.688  11.768 -1.3222  1.3715 -1.7277
   9623SM  H14B12928   5.634   0.633  11.647 -1.8375 -1.3369  0.7613
   9623SM  H14C12929   5.705   0.520  11.756  1.3159  0.4270 -0.7664
   9623SM   C1312930   5.508   0.781  11.830 -1.1221 -0.4777 -0.0276
   9623SM  H13A12931   5.586   0.856  11.837 -0.0311 -1.6819  1.0681
   9623SM  H13B12932   5.431   0.804  11.903 -1.5854  0.8882 -0.8868
   9623SM  H13C12933   5.460   0.785  11.733 -1.4650  0.2454  0.1613
   9623SM   C1212934   5.625   0.624  11.991  0.3924  0.2185  0.0026
   9623SM  H12A12935   5.714   0.686  11.990  0.7965 -0.3458  0.0072
   9623SM  H12B12936   5.661   0.523  12.005  1.0047  0.1973 -1.5432
   9623SM   C1112937   5.534   0.648  12.112  0.3473 -0.7193 -0.3668
   9623SM  H11A12938   5.499   0.754  12.117  2.1659 -0.0671 -0.5660
   9623SM  H11B12939   5.603   0.634  12.198 -0.8082 -1.2270  0.4946
   9623SM     P12940   5.481   0.405  12.186  0.1546  0.1935  0.3952
   9623SM   O1312941   5.385   0.303  12.129  0.0441  0.1411  0.0926
   9623SM   O1412942   5.623   0.374  12.173 -0.3604  0.0121  0.1025
   9623SM   O1112943   5.463   0.427  12.340 -0.0442 -0.2774  1.0491
   9623SM   O1212944   5.433   0.550  12.126  0.1585 -0.3379  0.3279
   9623SM   C1S12945   5.368   0.521  12.391  0.2227  0.0820  1.0042
   9623SM   H1S12946   5.269   0.470  12.388  1.6596 -2.9825 -2.1071
   9623SM   H1T12947   5.349   0.618  12.340 -2.4149 -0.3436  1.0228
   9623SM    NF12948   5.288   0.624  12.599  0.2796  0.7689  0.2956
   9623SM   HNF12949   5.285   0.723  12.616  0.5936  0.6182  1.2688
   9623SM   C2S12950   5.405   0.558  12.538 -0.0470 -0.3167 -0.7408
   9623SM   H2S12951   5.425   0.461  12.587  0.9886  0.7321  1.0465
   9623SM   C3S12952   5.537   0.647  12.546  0.0330  0.3071 -0.2076
   9623SM   H3S12953   5.503   0.745  12.505  0.2361  0.8266  0.8250
   9623SM    O312954   5.643   0.601  12.462 -0.5917 -0.2762 -0.1138
   9623SM   HO312955   5.622   0.521  12.413 -0.5908 -1.2784  1.4761
   9623SM   C4S12956   5.573   0.667  12.695 -0.2005 -0.5547  0.0688
   9623SM   H4S12957   5.596   0.576  12.753  0.8258 -1.2148 -1.2993
   9623SM   C5S12958   5.554   0.790  12.752 -0.3276  0.9006  0.2113
   9623SM   H5S12959   5.514   0.867  12.684 -0.5586 -0.2488 -0.9892
   9623SM   C6S12960   5.549   0.836  12.896  0.8794 -0.0294 -0.1055
   9623SM   H6S12961   5.465   0.907  12.908  1.2712  0.5039 -0.4921
   9623SM   H6T12962   5.643   0.890  12.921  1.4390 -0.8525 -0.3587
   9623SM   C7S12963   5.539   0.724  12.992  0.0146 -0.6702 -0.1131
   9623SM   H7S12964   5.611   0.641  12.978  0.2711  0.0263 -4.0286
   9623SM   H7T12965   5.440   0.675  12.987 -0.8735  1.1060 -1.0737
   9623SM   C8S12966   5.552   0.792  13.135  0.5301 -0.0592  0.3523
   9623SM   H8S12967   5.466   0.862  13.142  0.5292  0.0414 -0.6237
   9623SM   H8T12968   5.644   0.854  13.143  0.5110  0.0200 -0.0358
   9623SM   C9S12969   5.539   0.682  13.240 -0.7363 -0.4064 -0.0839
   9623SM   H9S12970   5.632   0.622  13.227  0.1331  0.6623  0.9591
   9623SM   H9T12971   5.466   0.600  13.224  0.6697 -1.9679  1.0692
   9623SM  C10S12972   5.542   0.731  13.379  0.4454 -0.2665 -0.4693
   9623SM  H10S12973   5.631   0.796  13.386  0.3223 -0.2729  1.8184
   9623SM  H10T12974   5.573   0.644  13.441  0.0635  1.9455  3.0769
   9623SM  C11S12975   5.408   0.779  13.430  0.0895 -1.1114 -0.1031
   9623SM  H11S12976   5.319   0.714  13.416 -1.5821  0.8633  0.8243
   9623SM  H11T12977   5.386   0.872  13.373 -0.2301 -1.8214 -1.1691
   9623SM  C12S12978   5.433   0.836  13.569 -0.0007  1.6320  0.5306
   9623SM  H12S12979   5.340   0.890  13.594 -1.0918 -0.2428  0.7629
   9623SM  H12T12980   5.519   0.906  13.571  0.7004  0.7855  0.9040
   9623SM  C13S12981   5.469   0.741  13.680 -0.3208  0.7091 -0.6227
   9623SM  H13S12982   5.568   0.691  13.671  1.6290  3.7288  1.8391
   9623SM  H13T12983   5.394   0.660  13.693  0.2420  0.3433  0.4557
   9623SM  C14S12984   5.464   0.810  13.818  0.2569 -0.1286 -0.3012
   9623SM  H14S12985   5.362   0.850  13.839  0.4046  0.7551 -1.2280
   9623SM  H14T12986   5.523   0.904  13.824 -1.4147  0.8862  3.3227
   9623SM  C15S12987   5.494   0.712  13.930 -0.2304  0.2635 -0.8106
   9623SM  H15S12988   5.595   0.672  13.908 -0.4401  0.1479 -1.6098
   9623SM  H15T12989   5.418   0.632  13.923  0.4463 -0.5314  0.5972
   9623SM  C16S12990   5.497   0.774  14.078  0.2049  0.4607  0.0029
   9623SM  H16S12991   5.392   0.804  14.095 -0.9327 -2.4455 -1.2692
   9623SM  H16T12992   5.566   0.860  14.067  2.2693 -0.8831  1.4002
   9623SM  C17S12993   5.546   0.679  14.187  0.2671 -0.6027 -0.0540
   9623SM  H17S12994   5.642   0.633  14.156  2.1786  1.4518  2.3809
   9623SM  H17T12995   5.471   0.601  14.210 -0.8044 -0.3254 -2.3416
   9623SM  C18S12996   5.584   0.756  14.310 -0.0259 -0.1136 -0.1278
   9623SM  H18S12997   5.489   0.807  14.338  0.7132  0.0835  2.2192
   9623SM  H18T12998   5.673   0.821  14.292 -0.3549  0.7060  1.0715
   9623SM  H18U12999   5.597   0.692  14.399  0.3727  0.4822  0.2507
   9623SM   C1F13000   5.174   0.554  12.618  0.3235  0.0581  0.4095
   9623SM    OF13001   5.169   0.432  12.605 -0.0057  0.1829 -0.1715
   9623SM   C2F13002   5.049   0.625  12.667  0.0504  0.3122  0.2876
   9623SM   H2F13003   4.968   0.549  12.675 -1.6189  1.9799  0.0302
   9623SM   H2G13004   5.005   0.701  12.599 -0.4142  0.5668  0.8625
   9623SM   C3F13005   5.059   0.696  12.804  0.4437 -0.2700  0.2232
   9623SM   H3F13006   4.953   0.703  12.836  0.4011 -0.0795  0.0430
   9623SM   H3G13007   5.109   0.794  12.816  0.7589 -0.4880  0.6929
   9623SM   C4F13008   5.126   0.600  12.907  0.3867 -0.5216  0.1947
   9623SM   H4F13009   5.234   0.615  12.887  0.0718  0.5589 -0.8040
   9623SM   H4G13010   5.098   0.496  12.881 -1.9776  0.4861 -1.6893
   9623SM   C5F13011   5.110   0.649  13.054  0.0391 -0.0965  0.0459
   9623SM   H5F13012   5.114   0.760  13.056  2.1504 -0.0888  3.2871
   9623SM   H5G13013   5.196   0.607  13.112 -0.7235 -0.6268  0.8248
   9623SM   C6F13014   4.983   0.598  13.122 -0.1352  0.0340 -0.1489
   9623SM   H6F13015   4.985   0.489  13.142 -0.0036  0.2595  1.2119
   9623SM   H6G13016   4.890   0.630  13.070 -0.6552 -2.7946 -1.1111
   9623SM   C7F13017   4.974   0.666  13.267 -0.4597 -0.7241 -0.0451
   9623SM   H7F13018   4.865   0.667  13.291  0.1561 -1.2050  3.0902
   9623SM   H7G13019   5.001   0.773  13.256 -1.3287 -0.4563  0.3237
   9623SM   C8F13020   5.046   0.600  13.379 -0.0325  0.1105  0.2507
   9623SM   H8F13021   5.150   0.570  13.355 -0.1374  0.4653 -0.6982
   9623SM   H8G13022   4.993   0.503  13.394 -1.2497  0.4710 -1.3342
   9623SM   C9F13023   5.033   0.676  13.511  0.6123  0.0699  0.9576
   9623SM   H9F13024   4.925   0.693  13.531  0.1508  0.2440 -1.4049
   9623SM   H9G13025   5.080   0.775  13.494  1.2780 -0.6046 -1.3784
   9623SM  C10F13026   5.105   0.620  13.630  0.8025  0.0209 -0.8086
   9623SM  H10F13027   5.216   0.627  13.620  1.0538 -0.7996  0.8788
   9623SM  H10G13028   5.084   0.511  13.624  0.9758 -0.1253  0.6737
   9623SM  C11F13029   5.060   0.672  13.769 -0.1897  0.0416 -0.8081
   9623SM  H11F13030   4.950   0.679  13.773 -0.1935 -0.2644 -0.3276
   9623SM  H11G13031   5.103   0.774  13.776  2.6883 -1.1838  1.3900
   9623SM  C12F13032   5.124   0.589  13.882  0.1654  0.1248 -0.2275
   9623SM  H12F13033   5.233   0.583  13.863  0.4863 -1.0744  1.7164
   9623SM  H12G13034   5.083   0.486  13.889  3.1756 -1.1432  0.7403
   9623SM  C13F13035   5.104   0.660  14.012 -0.2708  0.8131  0.0196
   9623SM  H13F13036   4.996   0.669  14.035 -0.8072 -2.4042 -0.7896
   9623SM  H13G13037   5.152   0.760  14.009  0.7584  0.4054  1.4523
   9623SM  C14F13038   5.172   0.581  14.126  0.5583 -0.5067 -0.6747
   9623SM  H14F13039   5.281   0.568  14.110  0.6343 -1.4327  0.4763
   9623SM  H14G13040   5.115   0.486  14.137 -0.0330  0.0561  1.7507
   9623SM  C15F13041   5.149   0.652  14.267 -0.4141  0.6713  0.0455
   9623SM  H15F13042   5.041   0.657  14.291 -0.0569 -0.2477  1.9898
   9623SM  H15G13043   5.202   0.749  14.260  3.0194 -1.1479 -1.5442
   9623SM  C16F13044   5.202   0.571  14.382 -0.0758 -0.6521  0.4475
   9623SM  H16F13045   5.312   0.579  14.379 -0.1992  1.6104  0.7911
   9623SM  H16G13046   5.167   0.466  14.367 -1.9470 -0.2742  1.7571
   9623SM  C17F13047   5.142   0.629  14.511 -0.0003 -0.5752  0.0132
   9623SM  H17F13048   5.031   0.640  14.514  0.0154 -0.6047  0.7402
   9623SM  H17G13049   5.183   0.732  14.520 -0.9201 -0.3172  1.6822
   9623SM  C18F13050   5.168   0.547  14.641 -0.5278  0.1942  0.1983
   9623SM  H18F13051   5.278   0.535  14.643 -0.4766  0.6284 -0.0193
   9623SM  H18G13052   5.122   0.446  14.628  2.7228 -1.2410 -1.3656
   9623SM  C19F13053   5.105   0.607  14.769 -0.4207  0.0255  0.4071
   9623SM  H19F13054   4.994   0.614  14.774 -0.6137 -2.1374  0.3283
   9623SM  H19G13055   5.146   0.708  14.787  0.7148 -0.2625 -0.4678
   9623SM  C20F13056   5.144   0.520  14.897  0.2585 -1.0256 -0.2507
   9623SM  H20F13057   5.255   0.520  14.906  0.6399  1.7513 -3.1043
   9623SM  H20G13058   5.104   0.420  14.874  0.0901 -1.1807  0.6932
   9623SM  C21F13059   5.070   0.567  15.020 -0.1834 -0.5436 -0.0126
   9623SM  H21F13060   4.960   0.575  15.005 -0.0363  1.7506 -0.2608
   9623SM  H21G13061   5.097   0.668  15.057  0.6304 -1.3490  1.7323
   9623SM  C22F13062   5.082   0.460  15.129 -0.5798 -0.4259  0.1543
   9623SM  H22F13063   5.181   0.480  15.176 -0.3746 -1.8674  0.3907
   9623SM  H22G13064   5.095   0.355  15.097  0.7172 -0.4048  0.5622
   9623SM  C23F13065   4.976   0.463  15.242  0.8003  0.9909  0.2196
   9623SM  H23F13066   4.988   0.382  15.317 -1.8808  0.5762  0.3082
   9623SM  H23G13067   4.879   0.451  15.189  2.0943  1.2199 -2.3390
   9623SM  H23H13068   4.966   0.563  15.289 -1.6537  0.5403  0.7744
   9723SM     N13069   5.210   6.679  12.075 -0.2727  0.0982  0.2868
   9723SM   C1513070   5.165   6.560  11.997 -0.4706  0.4272  0.0416
   9723SM  H15A13071   5.135   6.601  11.902  2.3200  0.4600 -0.8961
   9723SM  H15B13072   5.067   6.539  12.036  0.1248  0.6371  1.7431
   9723SM  H15C13073   5.235   6.479  11.989 -0.7801  0.0556  0.9716
   9723SM   C1413074   5.347   6.729  12.024  0.3774  0.2171 -0.1878
   9723SM  H14A13075   5.353   6.724  11.917 -2.3448 -1.9038 -0.3625
   9723SM  H14B13076   5.424   6.672  12.074  0.0824  1.0574  1.3143
   9723SM  H14C13077   5.360   6.831  12.057 -0.2692 -0.3552  2.0503
   9723SM   C1313078   5.118   6.794  12.055 -0.1795  0.0586  0.1735
   9723SM  H13A13079   5.020   6.774  12.093 -0.1490 -2.5295 -0.8982
   9723SM  H13B13080   5.096   6.808  11.950 -0.4825 -3.4556 -0.3743
   9723SM  H13C13081   5.158   6.883  12.101  0.4154 -0.4574  0.6758
   9723SM   C1213082   5.214   6.642  12.222 -0.3599 -0.1836  0.0270
   9723SM  H12A13083   5.236   6.732  12.278  1.1153 -1.8698  2.3650
   9723SM  H12B13084   5.302   6.584  12.247  0.2804  0.6017 -0.3523
   9723SM   C1113085   5.090   6.586  12.285  0.2279  0.5598  0.6585
   9723SM  H11A13086   5.122   6.524  12.372  1.8837 -0.8358 -0.8749
   9723SM  H11B13087   5.038   6.521  12.212  0.1704  0.3062  0.9239
   9723SM     P13088   4.852   6.683  12.321 -0.2117 -0.0198 -0.0765
   9723SM   O1313089   4.787   6.804  12.271 -0.7951  0.4018 -0.2489
   9723SM   O1413090   4.809   6.555  12.265  0.5597  0.4328  0.0077
   9723SM   O1113091   4.825   6.674  12.474  0.1580  0.3159  0.3982
   9723SM   O1213092   5.005   6.697  12.328  0.3427  0.0864  0.1589
   9723SM   C1S13093   4.848   6.777  12.565  0.5642 -0.5961  0.1730
   9723SM   H1S13094   4.762   6.846  12.573  0.0034 -1.1741 -0.6776
   9723SM   H1T13095   4.931   6.840  12.526  0.3796 -0.4637 -0.0073
   9723SM    NF13096   4.932   6.842  12.786 -0.1908  0.0242 -0.8971
   9723SM   HNF13097   5.031   6.852  12.792 -0.3110  0.7375  0.1729
   9723SM   C2S13098   4.885   6.728  12.707 -0.1961  0.1380  0.4793
   9723SM   H2S13099   4.795   6.689  12.760 -0.9655  1.7027  0.3841
   9723SM   C3S13100   4.991   6.614  12.691  0.5156  0.1061  0.4369
   9723SM   H3S13101   5.067   6.648  12.617  0.3408 -0.1603  0.1315
   9723SM    O313102   4.939   6.492  12.641  0.0311  0.1352 -0.1451
   9723SM   HO313103   4.881   6.522  12.571 -0.4398  1.3017  0.7110
   9723SM   C4S13104   5.054   6.580  12.819  0.0358  0.0485 -0.4434
   9723SM   H4S13105   4.986   6.529  12.890 -0.8629  0.6240 -0.8769
   9723SM   C5S13106   5.183   6.590  12.840 -0.1372 -0.1991 -0.4356
   9723SM   H5S13107   5.252   6.624  12.761  1.4826  1.8013  1.6955
   9723SM   C6S13108   5.250   6.543  12.963 -0.3218  0.3961 -0.3240
   9723SM   H6S13109   5.313   6.629  12.996  0.6488 -0.1632 -0.6828
   9723SM   H6T13110   5.324   6.464  12.937  0.5604  1.0082  0.2743
   9723SM   C7S13111   5.183   6.492  13.087  0.4391 -0.1767 -0.5339
   9723SM   H7S13112   5.126   6.397  13.072 -0.7817  0.5617 -0.6633
   9723SM   H7T13113   5.106   6.565  13.118  1.4372  0.6231  0.1255
   9723SM   C8S13114   5.285   6.484  13.202 -0.4275 -0.1043 -0.6256
   9723SM   H8S13115   5.331   6.583  13.219 -0.3824 -0.2406  0.0535
   9723SM   H8T13116   5.369   6.413  13.183  0.5146 -0.3909  3.6665
   9723SM   C9S13117   5.217   6.442  13.339  1.2422  0.2993  0.6855
   9723SM   H9S13118   5.208   6.332  13.346  0.9403  0.3862  1.9277
   9723SM   H9T13119   5.112   6.478  13.341  1.3161  0.6740 -0.8313
   9723SM  C10S13120   5.297   6.482  13.464  0.5383  0.8590 -0.3089
   9723SM  H10S13121   5.337   6.586  13.465 -0.9173  1.4715 -1.6612
   9723SM  H10T13122   5.390   6.422  13.470  1.3670  2.1165 -0.2633
   9723SM  C11S13123   5.218   6.454  13.593 -0.2894 -0.4115 -0.3139
   9723SM  H11S13124   5.205   6.344  13.597  1.4812 -0.7731 -2.4561
   9723SM  H11T13125   5.125   6.515  13.593 -0.4787 -0.6857  0.6150
   9723SM  C12S13126   5.303   6.501  13.715 -0.2713  0.2189  0.9664
   9723SM  H12S13127   5.332   6.608  13.704  2.2032 -0.4929 -0.0968
   9723SM  H12T13128   5.403   6.454  13.721  0.6089  2.0122  1.0611
   9723SM  C13S13129   5.219   6.476  13.846 -0.8479  0.6741 -0.2772
   9723SM  H13S13130   5.203   6.369  13.872  1.8494  0.3277  0.2808
   9723SM  H13T13131   5.115   6.513  13.836 -0.9727  0.0751 -1.3682
   9723SM  C14S13132   5.295   6.539  13.960  0.2940 -0.2400  0.1095
   9723SM  H14S13133   5.314   6.646  13.939 -0.9716 -0.2190 -1.0370
   9723SM  H14T13134   5.388   6.483  13.984  0.8238  0.9710  0.9791
   9723SM  C15S13135   5.204   6.524  14.087  0.0240  0.0149  0.1123
   9723SM  H15S13136   5.213   6.415  14.109 -0.7570  0.1405  1.1046
   9723SM  H15T13137   5.099   6.553  14.065  0.0015 -0.1612 -0.0215
   9723SM  C16S13138   5.249   6.596  14.214 -0.4084  0.3208  0.6768
   9723SM  H16S13139   5.258   6.704  14.190  0.5312 -0.0792 -0.9212
   9723SM  H16T13140   5.350   6.553  14.230 -1.9959 -3.6379  1.2430
   9723SM  C17S13141   5.172   6.580  14.341 -0.0179  0.1317 -0.5375
   9723SM  H17S13142   5.143   6.474  14.356 -1.5220  0.5795  0.0051
   9723SM  H17T13143   5.076   6.635  14.352 -0.7449 -1.2613  0.4067
   9723SM  C18S13144   5.247   6.623  14.469 -0.1100  0.7498  0.2056
   9723SM  H18S13145   5.176   6.621  14.554 -1.1126 -0.4352 -0.6272
   9723SM  H18T13146   5.279   6.726  14.442  1.3945 -0.0698 -1.3050
   9723SM  H18U13147   5.335   6.563  14.502 -0.4260  0.7492  1.0799
   9723SM   C1F13148   4.842   6.922  12.846  0.6543  0.1924 -0.6416
   9723SM    OF13149   4.722   6.908  12.815 -0.1029 -0.5808 -0.0161
   9723SM   C2F13150   4.899   7.015  12.950  0.6961 -0.0712  0.1825
   9723SM   H2F13151   4.880   7.122  12.931  3.4939  0.6429  0.9430
   9723SM   H2G13152   5.009   6.999  12.946  0.4802 -1.6356 -0.4599
   9723SM   C3F13153   4.852   6.977  13.097  0.5125  0.0696 -0.6129
   9723SM   H3F13154   4.742   6.989  13.099  0.4490  0.1679 -2.6162
   9723SM   H3G13155   4.914   7.047  13.156  0.8333  0.1177 -0.9998
   9723SM   C4F13156   4.889   6.831  13.139  0.3059 -0.7877  0.7970
   9723SM   H4F13157   4.994   6.807  13.113 -0.0247 -0.9288 -0.4910
   9723SM   H4G13158   4.819   6.759  13.090 -0.9835  1.5920 -1.0557
   9723SM   C5F13159   4.873   6.790  13.283  0.1368  0.6136 -0.1128
   9723SM   H5F13160   4.882   6.680  13.277 -0.7699  0.5413 -0.2439
   9723SM   H5G13161   4.768   6.815  13.308 -0.2722  0.5897 -1.6760
   9723SM   C6F13162   4.983   6.850  13.373 -0.1981  0.7693  0.3923
   9723SM   H6F13163   4.981   6.961  13.360  1.0470  0.9950  1.8337
   9723SM   H6G13164   5.085   6.818  13.340  0.0299  2.8127 -1.1235
   9723SM   C7F13165   4.951   6.805  13.514 -0.5389  0.1588  0.0144
   9723SM   H7F13166   4.957   6.695  13.528  4.5439  0.1191 -0.6862
   9723SM   H7G13167   4.843   6.828  13.531 -0.5902  1.2998 -1.6210
   9723SM   C8F13168   5.059   6.851  13.616 -0.4987  0.2599  0.1364
   9723SM   H8F13169   5.075   6.959  13.597  0.6290 -0.0422 -0.7920
   9723SM   H8G13170   5.149   6.790  13.589 -1.7740 -1.5825 -0.1669
   9723SM   C9F13171   5.024   6.819  13.764  0.5301 -0.1539  0.0347
   9723SM   H9F13172   5.118   6.825  13.823  0.6938 -1.4504 -0.0619
   9723SM   H9G13173   4.977   6.718  13.766  2.1037 -0.9184  0.4772
   9723SM  C10F13174   4.912   6.904  13.818 -0.8006 -0.1432  0.4454
   9723SM  H10F13175   4.815   6.881  13.768  0.1246 -1.3097 -0.8715
   9723SM  H10G13176   4.923   7.015  13.819 -1.6565 -0.0455  1.8589
   9723SM  C11F13177   4.888   6.869  13.961 -0.7206  0.4792 -0.7804
   9723SM  H11F13178   4.870   6.760  13.979  0.0003  0.8151  2.6136
   9723SM  H11G13179   4.790   6.905  13.998  0.5814  0.7466  2.7768
   9723SM  C12F13180   4.999   6.927  14.049 -0.1623 -0.3376 -0.1865
   9723SM  H12F13181   5.005   7.038  14.046 -2.7672 -0.1642 -2.2054
   9723SM  H12G13182   5.099   6.886  14.023  0.1599 -0.2786  0.8760
   9723SM  C13F13183   4.987   6.887  14.200 -0.2428 -0.0096 -0.9168
   9723SM  H13F13184   5.086   6.907  14.247 -0.7423  0.8320 -0.2054
   9723SM  H13G13185   4.977   6.776  14.204  0.3700 -0.0480  2.0880
   9723SM  C14F13186   4.887   6.964  14.287  0.3305 -0.6082  0.1127
   9723SM  H14F13187   4.783   6.945  14.251 -0.2226 -2.8552  2.6494
   9723SM  H14G13188   4.896   7.074  14.275 -0.0666 -0.6753 -0.9780
   9723SM  C15F13189   4.910   6.925  14.429  0.3447 -0.9593 -0.0876
   9723SM  H15F13190   5.017   6.943  14.455  0.1759  2.1995 -1.1539
   9723SM  H15G13191   4.895   6.815  14.439  0.4325 -0.8096  2.1613
   9723SM  C16F13192   4.817   7.005  14.530 -1.4000 -0.5529 -0.2926
   9723SM  H16F13193   4.715   6.972  14.501 -1.1883  0.0815 -1.9062
   9723SM  H16G13194   4.832   7.113  14.508 -0.6009 -0.5305  0.3224
   9723SM  C17F13195   4.844   6.969  14.679 -0.2331  0.3029 -0.1194
   9723SM  H17F13196   4.952   6.982  14.704  0.1811 -1.6456 -0.6865
   9723SM  H17G13197   4.828   6.859  14.685 -3.4772  0.7077  0.6812
   9723SM  C18F13198   4.754   7.031  14.781 -0.0430 -0.3304 -0.9319
   9723SM  H18F13199   4.646   7.013  14.761 -0.4409  1.8997 -1.1489
   9723SM  H18G13200   4.753   7.141  14.764 -1.0189  0.0734  1.4256
   9723SM  C19F13201   4.807   7.001  14.924  0.3276  0.3194  0.1509
   9723SM  H19F13202   4.769   7.075  14.998  1.0207 -0.0346  0.8769
   9723SM  H19G13203   4.918   7.004  14.932  0.6227 -0.6542 -2.7177
   9723SM  C20F13204   4.770   6.863  14.969 -0.0578  1.0908  0.4490
   9723SM  H20F13205   4.822   6.786  14.908 -1.3374  0.0212  0.6343
   9723SM  H20G13206   4.660   6.847  14.955  0.2506 -0.9725  0.0305
   9723SM  C21F13207   4.803   6.841  15.116  0.2427 -0.0491  0.9178
   9723SM  H21F13208   4.749   6.904  15.190 -1.3205 -0.8796  0.5242
   9723SM  H21G13209   4.913   6.845  15.130  0.1344 -0.6755  2.0899
   9723SM  C22F13210   4.771   6.696  15.149 -1.0702 -0.0206  0.3434
   9723SM  H22F13211   4.828   6.631  15.079  1.3305  1.2788  0.9592
   9723SM  H22G13212   4.663   6.675  15.140 -1.0365 -0.9075  1.7643
   9723SM  C23F13213   4.811   6.657  15.297 -0.0355  0.1850 -0.5054
   9723SM  H23F13214   4.740   6.706  15.367  0.1481 -2.5932  1.8311
   9723SM  H23G13215   4.917   6.673  15.326 -0.0761 -0.4286  0.0142
   9723SM  H23H13216   4.786   6.551  15.320 -1.3298  0.5907  0.0297
   9823SM     N13217   6.726   1.746  12.227  0.6026 -0.7156  0.3383
   9823SM   C1513218   6.677   1.655  12.331  0.1714 -0.2525  0.2575
   9823SM  H15A13219   6.720   1.558  12.311 -0.9169 -0.9744  1.2530
   9823SM  H15B13220   6.571   1.640  12.317  0.4955 -1.7642 -0.7750
   9823SM  H15C13221   6.680   1.686  12.434 -0.1865  0.2762  0.1153
   9823SM   C1413222   6.654   1.879  12.253 -0.0549  0.1108 -0.1702
   9823SM  H14A13223   6.553   1.865  12.218 -0.3495 -1.1644  1.0727
   9823SM  H14B13224   6.694   1.961  12.195  1.6432 -0.5629 -0.0225
   9823SM  H14C13225   6.638   1.902  12.357 -2.1083  1.6149 -0.7515
   9823SM   C1313226   6.874   1.768  12.250  0.2148  0.3116  0.2783
   9823SM  H13A13227   6.920   1.670  12.252 -0.3242  0.0619  0.8826
   9823SM  H13B13228   6.890   1.816  12.346  2.6443 -0.5591  0.3933
   9823SM  H13C13229   6.920   1.828  12.173  1.6864 -0.7605  0.2786
   9823SM   C1213230   6.704   1.694  12.095  0.3307  0.2646 -0.0775
   9823SM  H12A13231   6.749   1.754  12.018  1.0824 -1.1860 -0.8086
   9823SM  H12B13232   6.598   1.694  12.072 -0.5737 -0.0130  3.4611
   9823SM   C1113233   6.752   1.550  12.070 -0.1507 -0.9644  0.5717
   9823SM  H11A13234   6.861   1.544  12.093 -0.0777  0.7660  0.7995
   9823SM  H11B13235   6.749   1.525  11.961 -0.7592  0.3145  0.2786
   9823SM     P13236   6.562   1.378  12.072  0.0269 -0.5227 -0.6975
   9823SM   O1313237   6.467   1.482  12.022  0.2601 -0.1969  0.2291
   9823SM   O1413238   6.621   1.279  11.979 -0.0253  0.0333 -0.2191
   9823SM   O1113239   6.493   1.295  12.191 -0.2213  0.0167 -0.1056
   9823SM   O1213240   6.683   1.458  12.143  0.2505  0.1366 -0.4375
   9823SM   C1S13241   6.580   1.235  12.294  0.2808  0.8005 -0.3144
   9823SM   H1S13242   6.679   1.224  12.244  0.0437  2.0966 -1.1163
   9823SM   H1T13243   6.534   1.141  12.332  1.0615  0.9653  1.1068
   9823SM    NF13244   6.697   1.257  12.503  0.1626 -0.0577  0.0816
   9823SM   HNF13245   6.667   1.196  12.576 -2.1131  0.3846 -0.4048
   9823SM   C2S13246   6.595   1.317  12.418 -0.1508  0.2694 -0.5511
   9823SM   H2S13247   6.639   1.412  12.380 -0.4331  0.4855 -0.3401
   9823SM   C3S13248   6.460   1.343  12.488 -0.0159 -0.4833 -0.4793
   9823SM   H3S13249   6.412   1.247  12.517 -1.2026  0.6472  1.5113
   9823SM    O313250   6.356   1.391  12.399  0.3697 -0.8088 -0.6425
   9823SM   HO313251   6.378   1.357  12.312 -0.7983  1.4148 -1.8795
   9823SM   C4S13252   6.486   1.429  12.612 -0.3961  0.3455  0.4852
   9823SM   H4S13253   6.478   1.371  12.705 -1.7406 -2.6373 -1.3671
   9823SM   C5S13254   6.473   1.564  12.613 -0.3637 -0.6989 -0.5931
   9823SM   H5S13255   6.460   1.625  12.522  3.1645 -0.7287 -1.2520
   9823SM   C6S13256   6.479   1.654  12.734  0.4348  0.4792 -0.4226
   9823SM   H6S13257   6.399   1.730  12.735  0.8811  0.9686 -1.0486
   9823SM   H6T13258   6.578   1.705  12.742  0.6797 -0.2369  2.2739
   9823SM   C7S13259   6.465   1.596  12.876 -0.4339 -0.7670  0.3146
   9823SM   H7S13260   6.557   1.539  12.900 -1.6949 -2.5231  1.1747
   9823SM   H7T13261   6.389   1.515  12.874 -1.5734  0.2551 -1.6564
   9823SM   C8S13262   6.441   1.694  12.993 -0.1738  0.6344  0.5561
   9823SM   H8S13263   6.338   1.736  12.986  1.0207  3.7122 -0.0537
   9823SM   H8T13264   6.513   1.778  12.983  1.0162 -0.4732 -0.6957
   9823SM   C9S13265   6.462   1.628  13.131 -0.2327 -0.0506 -0.5055
   9823SM   H9S13266   6.409   1.531  13.123  0.3861 -0.5164  0.7565
   9823SM   H9T13267   6.419   1.685  13.216  0.1451 -0.6870  0.1231
   9823SM  C10S13268   6.615   1.620  13.154 -0.0357  0.1992  0.0423
   9823SM  H10S13269   6.651   1.723  13.171  0.9884 -0.3707  1.5841
   9823SM  H10T13270   6.663   1.564  13.070  1.0107  0.2495  0.5832
   9823SM  C11S13271   6.638   1.550  13.288 -0.3340  0.3810  0.0240
   9823SM  H11S13272   6.746   1.524  13.286 -0.3625  0.2072 -2.9373
   9823SM  H11T13273   6.573   1.460  13.285 -0.2101  0.2737  0.4558
   9823SM  C12S13274   6.603   1.633  13.407 -0.0981 -0.4385 -0.5236
   9823SM  H12S13275   6.499   1.673  13.410  0.4602  1.1107  3.0629
   9823SM  H12T13276   6.674   1.716  13.426 -1.2828  0.1131  2.0003
   9823SM  C13S13277   6.603   1.555  13.539 -0.2523  0.0063  0.6768
   9823SM  H13S13278   6.704   1.510  13.549  0.2221  0.2448 -2.2175
   9823SM  H13T13279   6.533   1.474  13.511 -0.8363  0.7112  0.0565
   9823SM  C14S13280   6.552   1.637  13.662 -0.2589  0.1517  0.1346
   9823SM  H14S13281   6.449   1.674  13.644 -0.5008 -1.1731 -1.4054
   9823SM  H14T13282   6.622   1.722  13.676  0.3348 -0.6500  2.4804
   9823SM  C15S13283   6.566   1.564  13.794 -0.0113 -0.2698 -0.8999
   9823SM  H15S13284   6.654   1.497  13.797 -1.0665 -1.7546 -1.7077
   9823SM  H15T13285   6.477   1.497  13.799  0.0167 -0.2547 -0.1197
   9823SM  C16S13286   6.571   1.667  13.907  0.3977 -0.6186 -0.3142
   9823SM  H16S13287   6.485   1.737  13.902 -0.0305 -0.9632  1.5571
   9823SM  H16T13288   6.664   1.726  13.890  0.4056 -0.7878 -0.9090
   9823SM  C17S13289   6.584   1.614  14.048  0.0627 -0.5945  0.0286
   9823SM  H17S13290   6.670   1.545  14.059  1.0432  0.6338  0.3313
   9823SM  H17T13291   6.488   1.561  14.068 -1.3016  1.6604 -0.1361
   9823SM  C18S13292   6.601   1.732  14.156 -0.1503 -0.2920 -0.2846
   9823SM  H18S13293   6.689   1.799  14.148 -1.2981  1.2945 -0.1281
   9823SM  H18T13294   6.597   1.690  14.259 -0.5600 -3.6537 -1.5325
   9823SM  H18U13295   6.511   1.797  14.147  0.2968  0.6547  1.7257
   9823SM   C1F13296   6.829   1.269  12.473 -0.2089  0.7333  0.4184
   9823SM    OF13297   6.871   1.319  12.366  0.3059 -0.5579 -0.5298
   9823SM   C2F13298   6.925   1.219  12.573 -0.8278  0.2421 -0.4876
   9823SM   H2F13299   7.000   1.151  12.527 -0.3817 -0.2134  0.8940
   9823SM   H2G13300   6.880   1.175  12.664  1.4927 -3.2610 -0.8428
   9823SM   C3F13301   7.014   1.344  12.619  0.0049  0.0861 -0.0724
   9823SM   H3F13302   7.068   1.371  12.526  1.5710  0.6803  0.9647
   9823SM   H3G13303   7.077   1.304  12.701  0.5210 -1.2393 -1.0640
   9823SM   C4F13304   6.935   1.464  12.666 -0.5199  1.1210 -0.7665
   9823SM   H4F13305   6.852   1.429  12.731  1.7182 -2.0543  0.7052
   9823SM   H4G13306   6.899   1.509  12.571  0.9710 -0.7804 -2.3534
   9823SM   C5F13307   7.007   1.577  12.733 -0.3065 -0.3195 -0.1096
   9823SM   H5F13308   6.947   1.670  12.733  1.1035  0.6354 -0.7006
   9823SM   H5G13309   7.100   1.610  12.682 -0.2646  0.1752  0.2759
   9823SM   C6F13310   7.042   1.551  12.879  0.1781  0.2347  0.7060
   9823SM   H6F13311   7.087   1.450  12.888 -2.3160 -0.9578  0.5218
   9823SM   H6G13312   6.948   1.547  12.939 -0.4090  0.6700 -0.1655
   9823SM   C7F13313   7.137   1.663  12.949  0.3103  0.0940  0.1976
   9823SM   H7F13314   7.091   1.760  12.923 -1.0557  0.1041  2.3590
   9823SM   H7G13315   7.232   1.658  12.892 -0.0846 -0.2520 -0.4447
   9823SM   C8F13316   7.167   1.648  13.096 -0.1180  0.2790  0.1043
   9823SM   H8F13317   7.254   1.710  13.127 -0.5830  0.4232  1.1553
   9823SM   H8G13318   7.188   1.543  13.126  0.2422  0.1515 -0.5787
   9823SM   C9F13319   7.045   1.674  13.179 -0.2833  0.2580 -0.4775
   9823SM   H9F13320   6.963   1.599  13.173 -1.1562  1.2275 -1.0228
   9823SM   H9G13321   7.006   1.772  13.143 -0.5620 -0.1812 -1.4029
   9823SM  C10F13322   7.089   1.684  13.331  0.4512  0.1471  0.7254
   9823SM  H10F13323   7.145   1.779  13.344  0.6022 -0.1508  2.4481
   9823SM  H10G13324   7.142   1.593  13.366  0.2462  0.2146  1.2141
   9823SM  C11F13325   6.973   1.698  13.418  0.1492 -0.2074 -0.1450
   9823SM  H11F13326   6.959   1.601  13.472 -0.3528 -0.2071 -0.2771
   9823SM  H11G13327   6.877   1.726  13.371  0.4541  2.4073  0.6450
   9823SM  C12F13328   7.002   1.797  13.535 -0.4924  0.0173  0.5271
   9823SM  H12F13329   6.966   1.896  13.500  0.5134 -0.1188 -0.9823
   9823SM  H12G13330   7.112   1.803  13.545 -0.7019  1.2005  2.8093
   9823SM  C13F13331   6.945   1.753  13.664 -0.0449  0.2595  0.2058
   9823SM  H13F13332   6.970   1.647  13.689  1.3905  0.5182 -0.0524
   9823SM  H13G13333   6.834   1.756  13.659 -0.1109  1.9579  1.8158
   9823SM  C14F13334   6.998   1.835  13.781 -0.0209 -0.7204  0.3428
   9823SM  H14F13335   6.966   1.941  13.770 -1.8381 -1.0629  1.8494
   9823SM  H14G13336   7.108   1.836  13.767 -0.1620  0.8925 -1.0481
   9823SM  C15F13337   6.965   1.808  13.927 -0.1274  0.2503 -0.0068
   9823SM  H15F13338   6.993   1.700  13.938  0.9262  0.5019 -0.0551
   9823SM  H15G13339   6.859   1.830  13.952 -0.2848 -1.6324  1.2337
   9823SM  C16F13340   7.041   1.902  14.022  0.3823  0.4920  0.3286
   9823SM  H16F13341   7.000   2.004  14.006  1.0443  0.5910 -0.8205
   9823SM  H16G13342   7.147   1.904  13.989  0.7460  1.8625  1.5226
   9823SM  C17F13343   7.021   1.865  14.170  0.0124  0.6385  0.5157
   9823SM  H17F13344   7.077   1.768  14.168 -0.3612  0.2732 -4.3312
   9823SM  H17G13345   6.915   1.847  14.196  0.3361  0.4006  1.7660
   9823SM  C18F13346   7.065   1.974  14.267 -0.2784 -0.0748  0.4499
   9823SM  H18F13347   7.036   2.073  14.226 -0.9621 -0.1893  0.6406
   9823SM  H18G13348   7.175   1.965  14.280 -0.3637 -0.1496  1.1631
   9823SM  C19F13349   7.002   1.991  14.402  0.3055  0.4352  0.0101
   9823SM  H19F13350   6.893   2.003  14.380  0.7960  0.4746 -2.7177
   9823SM  H19G13351   7.034   2.085  14.453 -1.5753  0.9959  0.2574
   9823SM  C20F13352   7.036   1.878  14.497 -0.0442  0.1550 -0.4150
   9823SM  H20F13353   7.146   1.873  14.505  0.0815  1.2229 -1.3131
   9823SM  H20G13354   6.989   1.785  14.458  1.1667 -0.5038 -0.3325
   9823SM  C21F13355   6.988   1.892  14.645  0.2135 -0.3806 -0.4867
   9823SM  H21F13356   6.913   1.973  14.648  0.9622  0.3061  0.0529
   9823SM  H21G13357   7.066   1.944  14.704 -2.2610  2.0168  0.8751
   9823SM  C22F13358   6.970   1.760  14.716 -0.4954  0.6013 -0.7460
   9823SM  H22F13359   6.926   1.688  14.644  1.2603 -2.1393  0.7533
   9823SM  H22G13360   6.892   1.762  14.795  0.1191  0.9228 -0.1309
   9823SM  C23F13361   7.110   1.704  14.762  0.2677  0.5622  0.1587
   9823SM  H23F13362   7.172   1.665  14.678  1.0173 -0.4950  1.1742
   9823SM  H23G13363   7.097   1.618  14.830 -1.7796  1.0786  0.4997
   9823SM  H23H13364   7.169   1.785  14.810 -0.6894  0.3631  1.7193
   9923SM     N13365   2.502   0.223  12.115  0.6120  0.1821  0.7664
   9923SM   C1513366   2.371   0.302  12.088  0.1992 -0.3550  0.1700
   9923SM  H15A13367   2.354   0.386  12.155 -0.1110 -0.4341  0.1960
   9923SM  H15B13368   2.278   0.248  12.078 -2.2698  3.3492  0.7612
   9923SM  H15C13369   2.382   0.352  11.993 -2.8189 -0.9303 -0.5894
   9923SM   C1413370   2.544   0.153  11.985  0.1633  0.1064 -0.7701
   9923SM  H14A13371   2.558   0.220  11.902  1.1087 -0.0854 -0.7813
   9923SM  H14B13372   2.466   0.081  11.964  2.3313 -2.3258 -0.9013
   9923SM  H14C13373   2.639   0.103  11.991  0.0818  0.1399  1.9719
   9923SM   C1313374   2.608   0.330  12.148  1.0498 -0.1791 -0.4217
   9923SM  H13A13375   2.587   0.419  12.090 -1.8463 -0.6456 -0.2397
   9923SM  H13B13376   2.712   0.304  12.137  1.4786  0.1282  2.1489
   9923SM  H13C13377   2.590   0.358  12.251  0.1613  0.6006 -0.7635
   9923SM   C1213378   2.477   0.120  12.225  0.0001  0.1282 -0.1788
   9923SM  H12A13379   2.573   0.074  12.239  0.2718  0.9564  0.7517
   9923SM  H12B13380   2.407   0.047  12.185  1.5345 -1.0042 -0.9068
   9923SM   C1113381   2.427   0.169  12.357  0.0937 -0.5231 -0.2299
   9923SM  H11A13382   2.395   0.085  12.422 -1.8065  0.2056 -0.1458
   9923SM  H11B13383   2.329   0.221  12.341 -0.4521 -1.8803 -1.5042
   9923SM     P13384   2.665   0.195  12.472 -0.1425 -0.0443  0.5093
   9923SM   O1313385   2.687   0.067  12.408 -0.5716 -0.2422 -0.3560
   9923SM   O1413386   2.767   0.301  12.452  0.0365  0.5281  0.1966
   9923SM   O1113387   2.637   0.174  12.631 -0.1591 -0.1054 -0.1699
   9923SM   O1213388   2.531   0.247  12.423 -0.3560  0.1545  0.5783
   9923SM   C1S13389   2.691   0.265  12.725 -0.6622  0.0925 -0.1994
   9923SM   H1S13390   2.641   0.364  12.722 -0.5036  0.1420 -2.5546
   9923SM   H1T13391   2.801   0.281  12.721 -0.5181 -0.6182  0.6252
   9923SM    NF13392   2.749   0.305  12.961 -0.4844 -0.2081  0.4415
   9923SM   HNF13393   2.847   0.289  12.968 -0.0427  0.3492 -2.8509
   9923SM   C2S13394   2.682   0.213  12.878  0.0448 -0.0675 -0.1907
   9923SM   H2S13395   2.581   0.199  12.923  0.5086 -2.0511  0.3204
   9923SM   C3S13396   2.745   0.077  12.889  0.4214 -0.0596  0.2593
   9923SM   H3S13397   2.853   0.103  12.892  0.5789 -0.7447  1.0490
   9923SM    O313398   2.723  -0.017  12.783 -0.3479 -0.3211  0.2991
   9923SM   HO313399   2.694   0.039  12.710 -1.6759 -1.1703  0.1369
   9923SM   C4S13400   2.712   0.015  13.026 -0.6086  0.0271 -0.0601
   9923SM   H4S13401   2.611  -0.028  13.038  0.5112 -2.2292  2.4283
   9923SM   C5S13402   2.806  -0.011  13.122 -0.4728  0.0894 -0.5543
   9923SM   H5S13403   2.909   0.027  13.117 -0.4078 -0.1823 -1.3716
   9923SM   C6S13404   2.751  -0.067  13.249 -0.2304  0.4543  0.0292
   9923SM   H6S13405   2.818  -0.144  13.292  0.0305  2.7936  4.3893
   9923SM   H6T13406   2.653  -0.117  13.233  0.7455 -0.6929 -3.1883
   9923SM   C7S13407   2.752   0.042  13.360  0.3342  0.2953  0.5261
   9923SM   H7S13408   2.664   0.108  13.343  0.1778  0.0046  0.1967
   9923SM   H7T13409   2.842   0.108  13.355 -0.1658  0.9086 -3.1579
   9923SM   C8S13410   2.749  -0.017  13.501  0.2889  0.1265 -0.2172
   9923SM   H8S13411   2.851  -0.055  13.524 -0.0075 -0.9184 -0.5929
   9923SM   H8T13412   2.677  -0.101  13.503 -1.3716  1.4972 -0.2005
   9923SM   C9S13413   2.703   0.088  13.607 -0.1528  0.8033 -0.7521
   9923SM   H9S13414   2.599   0.116  13.579 -0.1116  2.5697  0.6441
   9923SM   H9T13415   2.769   0.177  13.618  1.7435 -0.6498  0.2237
   9923SM  C10S13416   2.682   0.023  13.749  0.0986 -0.3324  0.3718
   9923SM  H10S13417   2.783  -0.015  13.775  0.5432 -2.6992 -3.9007
   9923SM  H10T13418   2.616  -0.066  13.756 -0.3990  0.0635  0.7488
   9923SM  C11S13419   2.619   0.123  13.842  0.4588  0.6044 -0.6915
   9923SM  H11S13420   2.524   0.146  13.790  0.8801  0.6942 -1.4424
   9923SM  H11T13421   2.680   0.217  13.844 -2.1425  2.4078 -1.2344
   9923SM  C12S13422   2.596   0.065  13.985  0.6179  0.2195  0.7840
   9923SM  H12S13423   2.694   0.025  14.019  0.5410 -0.5377  0.1546
   9923SM  H12T13424   2.534  -0.027  13.974 -0.3170  1.0549 -1.8145
   9923SM  C13S13425   2.537   0.169  14.083  0.0717 -0.3685 -0.4618
   9923SM  H13S13426   2.432   0.182  14.048  0.7936 -0.1037 -2.6330
   9923SM  H13T13427   2.594   0.264  14.079  0.7548 -0.6688  1.0890
   9923SM  C14S13428   2.535   0.134  14.233 -0.7600  0.7764  0.0410
   9923SM  H14S13429   2.513   0.026  14.249  0.0966  0.1919 -2.2545
   9923SM  H14T13430   2.450   0.193  14.273 -3.5074 -0.7253 -3.0566
   9923SM  C15S13431   2.666   0.176  14.301 -0.2598 -0.4582  0.1461
   9923SM  H15S13432   2.698   0.274  14.257  1.0570 -0.5426  0.8470
   9923SM  H15T13433   2.737   0.099  14.264  0.3729  0.0808  0.1995
   9923SM  C16S13434   2.659   0.180  14.453  0.7641 -0.0607 -0.2543
   9923SM  H16S13435   2.758   0.209  14.493  0.7300  0.2857 -0.4198
   9923SM  H16T13436   2.627   0.079  14.487  0.0757 -0.1441 -1.1217
   9923SM  C17S13437   2.563   0.275  14.521  0.7703 -0.9235 -0.0962
   9923SM  H17S13438   2.456   0.253  14.502  0.8457 -1.3806 -0.0145
   9923SM  H17T13439   2.581   0.381  14.494 -0.6962 -0.7783 -0.6286
   9923SM  C18S13440   2.568   0.266  14.673  0.3412 -0.3498  0.3949
   9923SM  H18S13441   2.665   0.298  14.715 -0.1271  0.7018  0.7161
   9923SM  H18T13442   2.547   0.158  14.693  1.8896 -0.6938  0.3052
   9923SM  H18U13443   2.497   0.338  14.718 -1.4499 -0.8722 -1.4341
   9923SM   C1F13444   2.700   0.427  12.981 -0.0855  0.4562  0.0565
   9923SM    OF13445   2.576   0.447  12.975  0.0586 -0.0809 -0.2243
   9923SM   C2F13446   2.796   0.534  13.020  0.3683 -0.8517  0.9492
   9923SM   H2F13447   2.780   0.623  12.957  2.6439 -1.4785 -0.5967
   9923SM   H2G13448   2.901   0.503  13.001  0.9475  0.3464  2.0029
   9923SM   C3F13449   2.777   0.576  13.171 -0.3575 -0.6182  0.6166
   9923SM   H3F13450   2.673   0.616  13.174 -0.1191  0.0674 -0.0480
   9923SM   H3G13451   2.852   0.656  13.190  1.6950 -2.9045  2.7805
   9923SM   C4F13452   2.795   0.464  13.280 -0.3840  0.5531 -0.7610
   9923SM   H4F13453   2.891   0.412  13.256  0.1048  0.3317  1.4119
   9923SM   H4G13454   2.706   0.398  13.267 -0.9910  0.8308  1.5288
   9923SM   C5F13455   2.802   0.511  13.422  0.6274 -0.1441  0.6908
   9923SM   H5F13456   2.892   0.576  13.421  0.2583  0.3763 -0.3530
   9923SM   H5G13457   2.828   0.417  13.474  2.3488 -0.9955 -1.5478
   9923SM   C6F13458   2.680   0.573  13.472 -0.2133  0.3061  0.3705
   9923SM   H6F13459   2.591   0.509  13.454  0.0640  0.0748 -0.1981
   9923SM   H6G13460   2.656   0.672  13.425 -0.5983 -0.2637 -0.6793
   9923SM   C7F13461   2.679   0.596  13.625  0.2665  0.3066  0.1199
   9923SM   H7F13462   2.577   0.623  13.659 -0.5971 -0.9763 -1.3221
   9923SM   H7G13463   2.735   0.688  13.652  1.0663 -0.7615  2.3510
   9923SM   C8F13464   2.735   0.479  13.708  0.2305 -0.2626  0.3395
   9923SM   H8F13465   2.835   0.443  13.676 -0.2488 -0.5863 -0.8516
   9923SM   H8G13466   2.671   0.388  13.709  0.2470 -0.2774  0.1016
   9923SM   C9F13467   2.756   0.525  13.850 -0.0300  0.6542  0.4249
   9923SM   H9F13468   2.847   0.584  13.874 -0.5818  1.1170  1.4336
   9923SM   H9G13469   2.764   0.439  13.921 -2.4859 -0.7645 -0.8868
   9923SM  C10F13470   2.638   0.597  13.925  1.1501  0.2326 -0.4507
   9923SM  H10F13471   2.549   0.534  13.901 -0.8453  2.8232 -0.1943
   9923SM  H10G13472   2.614   0.691  13.871 -1.4627 -0.1274 -0.0427
   9923SM  C11F13473   2.645   0.609  14.076  0.1877 -0.3984  0.2338
   9923SM  H11F13474   2.730   0.673  14.106  2.2872 -2.2993 -1.3344
   9923SM  H11G13475   2.671   0.510  14.121 -1.4252  0.0561  2.3380
   9923SM  C12F13476   2.506   0.662  14.140 -0.0325  0.3933  0.1970
   9923SM  H12F13477   2.433   0.578  14.137  1.5377 -1.0401  0.2322
   9923SM  H12G13478   2.466   0.749  14.085 -2.8664 -2.1800 -2.1564
   9923SM  C13F13479   2.529   0.681  14.291 -0.6562  0.6500  0.2426
   9923SM  H13F13480   2.611   0.755  14.303 -1.5668  1.3975  2.4824
   9923SM  H13G13481   2.573   0.584  14.321  0.1633  0.8495 -0.2576
   9923SM  C14F13482   2.408   0.734  14.369 -0.7316  0.3800  0.3140
   9923SM  H14F13483   2.329   0.662  14.337 -0.8663  0.6238  0.0973
   9923SM  H14G13484   2.378   0.837  14.342 -0.1271  0.7680  1.0670
   9923SM  C15F13485   2.427   0.716  14.520  0.6950 -0.6972  0.3868
   9923SM  H15F13486   2.472   0.616  14.535 -0.1741 -1.0319  0.8138
   9923SM  H15G13487   2.335   0.725  14.580  1.0086 -0.7412  0.8807
   9923SM  C16F13488   2.522   0.824  14.578  0.1782  0.1542 -0.2140
   9923SM  H16F13489   2.475   0.924  14.565 -0.8623 -0.2344  0.4586
   9923SM  H16G13490   2.616   0.840  14.520  0.2476 -0.0301 -0.1503
   9923SM  C17F13491   2.559   0.790  14.723  0.0793  0.1050 -0.4250
   9923SM  H17F13492   2.593   0.684  14.726 -0.3649 -0.0107  0.9087
   9923SM  H17G13493   2.460   0.791  14.774 -0.2661  0.1837 -1.0806
   9923SM  C18F13494   2.655   0.893  14.767  0.3063  0.4556 -1.2736
   9923SM  H18F13495   2.608   0.989  14.797  1.2195  0.3752  0.6085
   9923SM  H18G13496   2.732   0.906  14.689 -0.1417  3.9984 -1.2862
   9923SM  C19F13497   2.712   0.830  14.903 -0.0931 -0.5853  0.1517
   9923SM  H19F13498   2.817   0.861  14.920 -0.6392  0.1234  2.6039
   9923SM  H19G13499   2.706   0.720  14.885  0.8304 -0.5748 -0.2751
   9923SM  C20F13500   2.629   0.876  15.030 -0.2186 -0.7674  0.2341
   9923SM  H20F13501   2.654   0.808  15.114  2.3961  2.0731  1.9461
   9923SM  H20G13502   2.522   0.860  15.002 -0.6621  1.5868  0.3714
   9923SM  C21F13503   2.646   1.020  15.072  0.0572  0.0114 -0.0448
   9923SM  H21F13504   2.626   1.081  14.981  0.8672  1.5374  0.7562
   9923SM  H21G13505   2.753   1.028  15.098  0.1628 -2.7069  0.6725
   9923SM  C22F13506   2.555   1.059  15.192  0.4473 -0.1894 -0.6593
   9923SM  H22F13507   2.448   1.038  15.174  0.5344 -0.3920 -0.9506
   9923SM  H22G13508   2.571   1.167  15.210 -1.9482 -0.2018  2.2439
   9923SM  C23F13509   2.594   0.990  15.328  0.3849  0.5021 -0.1255
   9923SM  H23F13510   2.520   1.019  15.406  0.8864  1.8730 -0.1291
   9923SM  H23G13511   2.695   1.017  15.365  0.5054 -0.1191  0.0079
   9923SM  H23H13512   2.586   0.880  15.317  0.2947  0.1166  2.9844
  10023SM     N13513   2.646   1.498  12.138  0.0329  0.4706 -0.0789
  10023SM   C1513514   2.526   1.547  12.078  0.9122 -0.0267  0.5194
  10023SM  H15A13515   2.440   1.482  12.085  0.2177  0.7796 -0.2247
  10023SM  H15B13516   2.542   1.566  11.972 -1.5268  0.6704  0.2158
  10023SM  H15C13517   2.503   1.644  12.120 -0.2300  0.8137 -1.8324
  10023SM   C1413518   2.683   1.360  12.088  0.4659  0.2121  0.2462
  10023SM  H14A13519   2.775   1.330  12.136  0.6875 -0.1202 -0.3659
  10023SM  H14B13520   2.707   1.368  11.983  0.5729 -0.1394  0.2398
  10023SM  H14C13521   2.615   1.280  12.114  1.4537 -1.9519 -3.0794
  10023SM   C1313522   2.774   1.577  12.102  0.9000  0.6117  0.1054
  10023SM  H13A13523   2.861   1.514  12.111 -0.5296 -1.6152 -0.7010
  10023SM  H13B13524   2.781   1.659  12.172  0.6966 -1.7098  3.0357
  10023SM  H13C13525   2.768   1.613  12.000 -1.0620 -1.8821 -0.7833
  10023SM   C1213526   2.619   1.477  12.283  0.0907  0.3414  0.1271
  10023SM  H12A13527   2.526   1.422  12.289 -0.1744  0.9302  2.0526
  10023SM  H12B13528   2.598   1.575  12.324  0.1766  0.0775  0.8163
  10023SM   C1113529   2.729   1.418  12.374  0.2545  0.0015  0.3161
  10023SM  H11A13530   2.767   1.327  12.323  0.6214  1.2925 -1.8047
  10023SM  H11B13531   2.680   1.377  12.465  1.1111 -0.7536  0.4435
  10023SM     P13532   2.830   1.640  12.473  0.1112  0.4834  0.0088
  10023SM   O1313533   2.901   1.731  12.382  0.0870 -0.0842 -0.1931
  10023SM   O1413534   2.688   1.672  12.501 -0.3395 -0.2891  0.1312
  10023SM   O1113535   2.907   1.622  12.619 -0.0961 -0.0621  0.0240
  10023SM   O1213536   2.841   1.501  12.403 -0.3067 -0.1313  0.7714
  10023SM   C1S13537   3.048   1.604  12.631 -0.5821  0.3337 -0.2299
  10023SM   H1S13538   3.099   1.671  12.558 -0.0645 -0.9519 -1.0749
  10023SM   H1T13539   3.086   1.505  12.600 -0.2278 -0.0892  1.4495
  10023SM    NF13540   3.234   1.580  12.794  0.2101  0.0245 -0.7300
  10023SM   HNF13541   3.251   1.496  12.844  0.6134 -0.2501 -1.3074
  10023SM   C2S13542   3.094   1.623  12.778 -0.0305 -0.6437 -0.2890
  10023SM   H2S13543   3.090   1.733  12.792 -1.4599 -0.3332 -2.5822
  10023SM   C3S13544   2.996   1.544  12.873 -0.3532 -0.2910 -0.4396
  10023SM   H3S13545   3.000   1.444  12.824 -0.6809  0.6889 -2.6035
  10023SM    O313546   2.854   1.583  12.874  0.6181 -0.1949 -0.2688
  10023SM   HO313547   2.850   1.645  12.800 -0.6519 -0.2762 -0.2929
  10023SM   C4S13548   3.048   1.537  13.016  0.2752  0.4717  0.1857
  10023SM   H4S13549   3.112   1.451  13.040 -1.4387 -1.6535 -2.3827
  10023SM   C5S13550   3.027   1.634  13.104 -0.0551  0.0445  0.5384
  10023SM   H5S13551   2.971   1.723  13.071 -0.4872  0.1282  1.4732
  10023SM   C6S13552   3.078   1.632  13.249  0.3067 -0.3753  0.3763
  10023SM   H6S13553   3.161   1.561  13.267 -0.8440 -1.8662 -0.0123
  10023SM   H6T13554   3.001   1.610  13.326  2.1771  2.0800  3.1581
  10023SM   C7S13555   3.132   1.769  13.271 -0.5630  0.2195 -0.3091
  10023SM   H7S13556   3.054   1.844  13.246 -1.3777 -0.9021 -1.1662
  10023SM   H7T13557   3.222   1.778  13.206 -0.1431 -0.1257  0.2125
  10023SM   C8S13558   3.192   1.795  13.416  0.8635 -0.0537 -0.4403
  10023SM   H8S13559   3.276   1.867  13.405  0.7690 -0.1379 -1.9865
  10023SM   H8T13560   3.240   1.702  13.456  0.0098  0.6641  2.4527
  10023SM   C9S13561   3.095   1.838  13.536 -0.3577 -0.7127 -0.0180
  10023SM   H9S13562   2.999   1.781  13.539 -1.0241  0.3573 -0.3394
  10023SM   H9T13563   3.070   1.946  13.532 -0.8669 -0.7998  0.6589
  10023SM  C10S13564   3.165   1.808  13.674  0.6834  1.0385 -0.3598
  10023SM  H10S13565   3.224   1.894  13.713  2.0814 -1.0998  2.5545
  10023SM  H10T13566   3.238   1.726  13.659 -0.0311  0.7090 -2.5044
  10023SM  C11S13567   3.059   1.763  13.780  0.0441  0.0449 -0.2216
  10023SM  H11S13568   3.045   1.653  13.770 -2.2579  0.4426 -2.3545
  10023SM  H11T13569   2.959   1.805  13.756  0.0390 -0.4533 -1.1076
  10023SM  C12S13570   3.115   1.803  13.919  0.1337  0.4032 -0.7615
  10023SM  H12S13571   3.125   1.913  13.916 -1.4675  0.6023  0.0675
  10023SM  H12T13572   3.204   1.738  13.932 -0.6002 -0.6686 -0.9500
  10023SM  C13S13573   3.020   1.781  14.039 -0.2752 -0.5337 -0.1433
  10023SM  H13S13574   3.011   1.671  14.043 -1.2470 -0.5769 -2.4701
  10023SM  H13T13575   2.926   1.826  14.002 -0.5373  0.5954  1.7328
  10023SM  C14S13576   3.074   1.841  14.168 -0.0100 -0.3300 -0.1278
  10023SM  H14S13577   3.119   1.939  14.142 -0.7201 -0.5475 -2.4205
  10023SM  H14T13578   3.144   1.767  14.213  0.0243 -0.1551  0.1068
  10023SM  C15S13579   2.961   1.869  14.268  0.7368 -0.0295  0.2323
  10023SM  H15S13580   2.906   1.781  14.307  0.5817 -1.3900 -2.7548
  10023SM  H15T13581   2.889   1.943  14.226 -0.1530 -0.0789  1.6170
  10023SM  C16S13582   3.023   1.940  14.388 -0.0368 -0.5309 -0.7220
  10023SM  H16S13583   3.086   2.026  14.357 -1.6589  0.5834 -1.0429
  10023SM  H16T13584   3.097   1.868  14.429 -1.5387 -1.5976  0.2082
  10023SM  C17S13585   2.928   1.991  14.506  0.1891 -0.1129  0.1758
  10023SM  H17S13586   2.876   2.077  14.460 -0.5951 -0.7952 -0.2397
  10023SM  H17T13587   2.998   2.024  14.585 -0.4328  3.0390 -0.4741
  10023SM  C18S13588   2.835   1.889  14.578  0.1939 -0.0062 -1.1378
  10023SM  H18S13589   2.808   1.909  14.684  1.1427 -1.6742 -0.5537
  10023SM  H18T13590   2.883   1.789  14.583 -1.6601 -0.8921  0.4356
  10023SM  H18U13591   2.739   1.884  14.521 -0.4987 -0.1359  0.0113
  10023SM   C1F13592   3.334   1.632  12.724 -0.0782 -0.0409 -0.1055
  10023SM    OF13593   3.314   1.714  12.635 -0.0839 -0.3075 -0.3476
  10023SM   C2F13594   3.466   1.596  12.783  0.1155  0.5539 -0.2601
  10023SM   H2F13595   3.505   1.509  12.727 -0.6946  0.7005 -1.0798
  10023SM   H2G13596   3.448   1.569  12.889  1.6618 -1.9380 -0.5449
  10023SM   C3F13597   3.576   1.703  12.766  0.2053 -1.0358 -0.0828
  10023SM   H3F13598   3.591   1.738  12.661  0.3791 -1.0265 -0.0555
  10023SM   H3G13599   3.667   1.659  12.811 -0.6026 -3.0272 -0.3159
  10023SM   C4F13600   3.548   1.828  12.856  0.2547  0.4536 -0.0507
  10023SM   H4F13601   3.458   1.880  12.817 -0.4996 -0.4037  0.5072
  10023SM   H4G13602   3.637   1.894  12.857  1.5341 -1.2085  0.6821
  10023SM   C5F13603   3.532   1.796  13.012 -0.2773  0.4603 -0.1892
  10023SM   H5F13604   3.441   1.731  13.020 -0.4115  0.6198 -0.4104
  10023SM   H5G13605   3.500   1.894  13.052  0.5256  1.3452 -1.6360
  10023SM   C6F13606   3.657   1.732  13.070 -0.3061  0.4090 -0.8168
  10023SM   H6F13607   3.749   1.787  13.040 -2.3379  3.2107 -2.4797
  10023SM   H6G13608   3.660   1.627  13.034  1.5086  0.9724 -2.5087
  10023SM   C7F13609   3.658   1.713  13.223 -0.0842  0.1959 -0.2266
  10023SM   H7F13610   3.757   1.678  13.258 -0.3194 -0.3703 -0.1170
  10023SM   H7G13611   3.581   1.634  13.236  0.3171 -0.5644 -2.1226
  10023SM   C8F13612   3.608   1.821  13.309 -0.1777 -0.2353  0.2731
  10023SM   H8F13613   3.506   1.859  13.286 -0.2768 -0.3993  0.4336
  10023SM   H8G13614   3.679   1.906  13.305 -0.4583  0.0180  0.6441
  10023SM   C9F13615   3.617   1.778  13.448  0.2950 -1.1727  0.8915
  10023SM   H9F13616   3.722   1.745  13.462  1.2743  0.5727 -1.4799
  10023SM   H9G13617   3.545   1.698  13.476 -0.3830 -1.3796 -1.2674
  10023SM  C10F13618   3.590   1.887  13.544 -0.1170 -0.0163 -0.5072
  10023SM  H10F13619   3.488   1.927  13.525 -1.3741 -1.6731  2.2425
  10023SM  H10G13620   3.655   1.976  13.524  0.7903 -0.6331 -0.3767
  10023SM  C11F13621   3.607   1.830  13.684  1.2315  0.3635  0.3076
  10023SM  H11F13622   3.706   1.783  13.699  1.8061  0.4268 -2.8112
  10023SM  H11G13623   3.529   1.755  13.708  2.0026 -0.7790 -0.6676
  10023SM  C12F13624   3.621   1.937  13.797  0.2022 -0.0890 -0.8805
  10023SM  H12F13625   3.580   2.038  13.775  0.3640  0.4737  1.1655
  10023SM  H12G13626   3.728   1.944  13.824 -0.3528 -0.1198  1.6357
  10023SM  C13F13627   3.552   1.889  13.928 -0.3843  0.1933  0.1995
  10023SM  H13F13628   3.596   1.794  13.965  0.4561  1.2336  2.0065
  10023SM  H13G13629   3.446   1.874  13.901 -0.3905 -1.1346  0.8794
  10023SM  C14F13630   3.554   1.986  14.047 -0.1871 -0.5269 -0.6577
  10023SM  H14F13631   3.488   2.071  14.018  1.1640 -0.2195 -3.2077
  10023SM  H14G13632   3.652   2.032  14.072  0.6178 -0.6645 -3.1794
  10023SM  C15F13633   3.486   1.922  14.170 -0.6054 -0.4909  0.3593
  10023SM  H15F13634   3.526   1.821  14.192 -0.7428 -1.0723 -1.8018
  10023SM  H15G13635   3.389   1.890  14.126  0.0907 -2.8676  0.4070
  10023SM  C16F13636   3.475   2.016  14.291 -0.1372  0.0687  0.0313
  10023SM  H16F13637   3.424   2.109  14.258 -0.5169  0.1534  0.8139
  10023SM  H16G13638   3.579   2.045  14.319 -0.0370 -0.1717 -0.0976
  10023SM  C17F13639   3.400   1.952  14.409  0.9149  0.1168 -0.8416
  10023SM  H17F13640   3.454   1.867  14.457 -1.6458 -0.7458  0.7283
  10023SM  H17G13641   3.304   1.902  14.383  0.6257  0.7435 -0.9975
  10023SM  C18F13642   3.356   2.048  14.521 -0.1008  0.8247 -0.2171
  10023SM  H18F13643   3.286   1.983  14.577  1.2591  0.2909  0.9192
  10023SM  H18G13644   3.297   2.134  14.481 -1.0514 -1.0620 -3.2412
  10023SM  C19F13645   3.470   2.109  14.592 -0.0407 -0.1783  0.0145
  10023SM  H19F13646   3.526   2.190  14.540 -0.9513  1.2312  1.1564
  10023SM  H19G13647   3.549   2.034  14.611  0.5700  0.8442  1.7809
  10023SM  C20F13648   3.437   2.165  14.727  0.5540 -0.5878 -0.2591
  10023SM  H20F13649   3.536   2.181  14.774  0.5748 -1.3176 -0.0432
  10023SM  H20G13650   3.380   2.099  14.796  1.7017 -0.6223  0.6864
  10023SM  C21F13651   3.366   2.299  14.729  0.4173  0.4707 -0.5065
  10023SM  H21F13652   3.342   2.316  14.836  2.0676  0.2856 -0.0775
  10023SM  H21G13653   3.274   2.297  14.667 -1.1624  1.9628  1.6325
  10023SM  C22F13654   3.443   2.415  14.673 -0.0775 -0.0881 -0.7103
  10023SM  H22F13655   3.470   2.395  14.566 -1.9346  1.4234 -1.5135
  10023SM  H22G13656   3.541   2.423  14.724 -0.6411  1.1962  0.2158
  10023SM  C23F13657   3.384   2.555  14.689  0.0433 -0.2692  0.7113
  10023SM  H23F13658   3.452   2.629  14.642  0.4238 -0.5983  0.7433
  10023SM  H23G13659   3.365   2.579  14.796 -2.3850 -0.8972  0.4819
  10023SM  H23H13660   3.290   2.569  14.630 -0.1961  1.5113  1.4536
  101CHL1    C313661   5.811   3.947  16.916 -0.2420 -0.0431  0.4524
  101CHL1    H313662   5.921   3.954  16.923 -0.0554 -0.0679 -1.6727
  101CHL1    O313663   5.756   3.943  17.045 -0.3060 -0.0615  0.1749
  101CHL1   H3'13664   5.825   3.990  17.094  0.5714  0.2543 -1.2979
  101CHL1    C413665   5.759   4.072  16.839  0.4783  0.4223  0.2248
  101CHL1   H4A13666   5.649   4.077  16.851  0.4401  0.3200 -0.0721
  101CHL1   H4B13667   5.798   4.162  16.890 -1.1081  0.8235  0.7955
  101CHL1    C513668   5.783   4.084  16.689  0.1167  0.1427  0.1303
  101CHL1    C613669   5.829   4.194  16.631 -0.7130 -0.3004  0.1627
  101CHL1    H613670   5.856   4.282  16.692  1.6420  0.0961 -1.3285
  101CHL1    C713671   5.849   4.217  16.488 -0.0429 -0.3282 -0.2423
  101CHL1   H7A13672   5.813   4.314  16.448 -1.9548 -1.4829 -1.5011
  101CHL1   H7B13673   5.954   4.213  16.454  0.4271 -4.5058  1.0845
  101CHL1    C813674   5.783   4.101  16.411 -0.4455  0.1298  0.0900
  101CHL1    H813675   5.675   4.126  16.412 -0.0867  1.9952 -1.1751
  101CHL1   C1413676   5.826   4.102  16.261  0.5547 -0.2402  0.2202
  101CHL1   H1413677   5.936   4.092  16.260  1.1484  3.9226 -3.0196
  101CHL1   C1513678   5.799   4.234  16.181 -0.1023  0.2486 -0.0494
  101CHL1  H15A13679   5.712   4.294  16.217 -0.0891 -0.0632  0.4995
  101CHL1  H15B13680   5.892   4.293  16.197 -0.5534  1.2904 -1.0568
  101CHL1   C1613681   5.778   4.193  16.029 -0.3245 -0.0511 -0.6970
  101CHL1  H16A13682   5.669   4.202  16.011 -0.8727 -0.1439  2.1353
  101CHL1  H16B13683   5.829   4.244  15.945  0.8726 -0.4335 -0.2278
  101CHL1   C1713684   5.805   4.041  16.032  0.1810  0.7590 -0.5443
  101CHL1   H1713685   5.916   4.038  16.033  0.1949  1.2276 -0.8396
  101CHL1   C1313686   5.765   3.994  16.180  0.2692 -0.8415  0.4865
  101CHL1   C1813687   5.610   3.983  16.191 -0.5397 -0.2612 -0.1875
  101CHL1  H18A13688   5.556   4.073  16.156 -0.4075 -0.1153 -0.0218
  101CHL1  H18B13689   5.572   3.905  16.123 -1.3607 -0.9701  1.0375
  101CHL1  H18C13690   5.582   3.955  16.295 -0.3369  2.1758  0.6026
  101CHL1   C1213691   5.834   3.865  16.228 -0.7238 -0.2165  0.0337
  101CHL1  H12A13692   5.784   3.778  16.180 -0.9284  0.8276 -1.7517
  101CHL1  H12B13693   5.942   3.884  16.209 -0.6584 -0.5984  0.0290
  101CHL1   C1113694   5.810   3.844  16.381  0.8127  0.1644  1.1433
  101CHL1  H11A13695   5.709   3.798  16.389  0.6085  0.1545 -0.8625
  101CHL1  H11B13696   5.878   3.770  16.428  2.8241  2.1368  1.5206
  101CHL1    C913697   5.817   3.967  16.472  0.5324 -0.0364  0.4059
  101CHL1    H913698   5.927   3.977  16.487  0.3543  1.3064  1.0548
  101CHL1   C1013699   5.754   3.953  16.606 -0.3744  0.3374 -0.0779
  101CHL1   C1913700   5.604   3.922  16.589 -0.5566  0.4356  0.1867
  101CHL1  H19A13701   5.559   4.000  16.523 -1.3513  0.4095  0.6855
  101CHL1  H19B13702   5.586   3.826  16.535  0.8589  0.5342 -0.5140
  101CHL1  H19C13703   5.542   3.918  16.681 -1.7368 -3.3232 -0.6110
  101CHL1    C113704   5.813   3.830  16.681  0.7575  0.0666 -0.0475
  101CHL1   H1A13705   5.782   3.732  16.638 -0.1815 -0.5358  1.8955
  101CHL1   H1B13706   5.923   3.836  16.682  0.7849  0.5522  2.7616
  101CHL1    C213707   5.774   3.819  16.838 -0.5502  0.5135  0.7402
  101CHL1   H2A13708   5.840   3.743  16.885  1.6382  2.6078  1.2685
  101CHL1   H2B13709   5.671   3.786  16.860 -0.3529 -2.1309 -1.6719
  101CHL1   C2013710   5.754   3.964  15.910 -0.2348 -0.2278  0.4620
  101CHL1   H2013711   5.759   3.857  15.939  0.8256  0.0247  1.3029
  101CHL1   C2113712   5.852   3.997  15.797 -1.0168  0.5299  0.5766
  101CHL1  H21A13713   5.951   3.952  15.816  0.9875  4.0207 -0.6437
  101CHL1  H21B13714   5.879   4.105  15.787 -0.6954  0.3044 -1.2832
  101CHL1  H21C13715   5.813   3.951  15.704 -1.5741  2.0349  0.0375
  101CHL1   C2213716   5.607   3.987  15.867  0.0110  0.0045  0.1586
  101CHL1  H22A13717   5.543   3.983  15.958  2.1569  0.9813  1.8160
  101CHL1  H22B13718   5.596   4.092  15.833  0.0556  0.0490  0.2837
  101CHL1   C2313719   5.563   3.891  15.759  0.2462  0.3483  0.6053
  101CHL1  H23A13720   5.645   3.838  15.707  0.4747  2.1730 -0.9960
  101CHL1  H23B13721   5.510   3.803  15.802 -1.3081  0.8855 -0.1156
  101CHL1   C2413722   5.479   3.957  15.653  0.3505 -0.5263  0.7172
  101CHL1  H24A13723   5.388   4.009  15.690 -0.0709  0.5263 -1.6090
  101CHL1  H24B13724   5.538   4.034  15.598  1.5220 -0.5439  1.9017
  101CHL1   C2513725   5.437   3.850  15.550 -0.1399 -0.1238  0.1944
  101CHL1   H2513726   5.412   3.753  15.598  0.7789 -1.4875 -1.9051
  101CHL1   C2613727   5.322   3.911  15.467 -0.4819 -0.6008 -0.3177
  101CHL1  H26A13728   5.268   3.846  15.395 -1.2909  0.3466 -0.5840
  101CHL1  H26B13729   5.244   3.942  15.540  0.5816 -2.0225  1.5335
  101CHL1  H26C13730   5.355   4.004  15.416 -1.8642 -0.4494 -0.9881
  101CHL1   C2713731   5.546   3.823  15.448 -0.0648 -0.3898 -0.0034
  101CHL1  H27A13732   5.624   3.772  15.508 -0.4891  0.8790  1.7054
  101CHL1  H27B13733   5.510   3.759  15.365  0.9664  2.4156 -2.8162
  101CHL1  H27C13734   5.587   3.916  15.402  0.3445 -0.7774 -0.4333
  102CHL1    C313735   4.562   4.652  17.312 -0.1558  0.1569  0.8661
  102CHL1    H313736   4.454   4.640  17.288  0.2701 -1.5905 -0.4402
  102CHL1    O313737   4.590   4.643  17.445  0.0884 -0.4779  0.3660
  102CHL1   H3'13738   4.559   4.728  17.476  2.4054  0.3859  0.5005
  102CHL1    C413739   4.634   4.539  17.239  0.5778 -0.1207  0.8771
  102CHL1   H4A13740   4.738   4.551  17.275  0.8656  1.5436 -0.4231
  102CHL1   H4B13741   4.608   4.440  17.283  1.2284 -1.4487 -1.5599
  102CHL1    C513742   4.619   4.563  17.088  0.6168 -0.7072 -0.1380
  102CHL1    C613743   4.564   4.471  17.017 -0.2144 -0.0066 -0.2954
  102CHL1    H613744   4.550   4.376  17.071  1.3107 -0.7482 -1.1296
  102CHL1    C713745   4.552   4.482  16.870  0.2028 -0.1094  0.0980
  102CHL1   H7A13746   4.585   4.387  16.822  1.4779  0.6062 -0.5088
  102CHL1   H7B13747   4.447   4.498  16.836  0.5540 -0.3577 -1.1606
  102CHL1    C813748   4.624   4.594  16.792 -0.8771 -0.4246 -0.8508
  102CHL1    H813749   4.729   4.558  16.787 -0.1654  0.8343  2.4669
  102CHL1   C1413750   4.575   4.621  16.658 -0.4065  0.0728 -0.2888
  102CHL1   H1413751   4.474   4.661  16.679 -0.4760 -1.2735  2.4083
  102CHL1   C1513752   4.546   4.501  16.561 -0.6988  0.0859 -0.1564
  102CHL1  H15A13753   4.636   4.435  16.563 -1.4705 -1.0291 -0.7533
  102CHL1  H15B13754   4.476   4.427  16.606  4.1173 -3.4827  2.3618
  102CHL1   C1613755   4.530   4.568  16.424  0.2774 -0.1896  0.3480
  102CHL1  H16A13756   4.585   4.517  16.343  0.9078 -0.9901  1.2598
  102CHL1  H16B13757   4.422   4.570  16.401  0.5046 -1.6865 -0.9425
  102CHL1   C1713758   4.581   4.721  16.441 -0.1723 -0.2876 -0.1426
  102CHL1   H1713759   4.495   4.790  16.453 -1.2917 -1.5732 -0.4750
  102CHL1   C1313760   4.659   4.726  16.577  0.1165 -0.2677 -0.5866
  102CHL1   C1813761   4.806   4.675  16.570 -0.3422  0.0615  0.6875
  102CHL1  H18A13762   4.851   4.670  16.671  0.5471  0.9252  0.3502
  102CHL1  H18B13763   4.811   4.580  16.512  0.9565 -0.5311  1.7309
  102CHL1  H18C13764   4.864   4.747  16.508  0.0451 -0.0091  0.9678
  102CHL1   C1213765   4.640   4.857  16.664 -0.1215 -0.2211 -0.4462
  102CHL1  H12A13766   4.689   4.947  16.621 -1.9711  0.3236 -1.4968
  102CHL1  H12B13767   4.530   4.874  16.663 -0.2469 -0.5394  2.1275
  102CHL1   C1113768   4.693   4.835  16.810 -0.7991 -0.7453 -0.0826
  102CHL1  H11A13769   4.804   4.828  16.812 -0.6827  0.6679 -0.6448
  102CHL1  H11B13770   4.670   4.925  16.871  0.5889 -1.5311  1.7264
  102CHL1    C913771   4.621   4.718  16.880 -0.5534 -0.5830 -0.7306
  102CHL1    H913772   4.512   4.739  16.891 -0.5587 -0.9177 -0.1287
  102CHL1   C1013773   4.668   4.699  17.029 -0.5123  0.1449  0.9900
  102CHL1   C1913774   4.821   4.711  17.041 -0.1780  0.0530  0.0318
  102CHL1  H19A13775   4.853   4.815  17.023  1.8364 -0.1390  1.9705
  102CHL1  H19B13776   4.851   4.685  17.145 -3.0882  0.5875  1.0781
  102CHL1  H19C13777   4.880   4.653  16.966  1.8534  1.2519  0.6162
  102CHL1    C113778   4.610   4.809  17.117  0.1237 -0.3731 -0.4544
  102CHL1   H1A13779   4.657   4.906  17.091 -0.7956  0.2260  0.0417
  102CHL1   H1B13780   4.501   4.824  17.098 -0.6148 -0.9150  2.7173
  102CHL1    C213781   4.622   4.781  17.269  0.0831  0.0698 -0.4728
  102CHL1   H2A13782   4.576   4.872  17.313 -2.9071  0.3107 -3.6220
  102CHL1   H2B13783   4.732   4.771  17.287  0.7309  0.1446 -3.7385
  102CHL1   C2013784   4.664   4.775  16.320 -0.0737  0.2442 -0.1441
  102CHL1   H2013785   4.748   4.705  16.303 -0.3544 -0.4232  1.0938
  102CHL1   C2113786   4.710   4.916  16.353  0.6280  0.4471  0.5796
  102CHL1  H21A13787   4.773   4.955  16.271  1.1873  0.8513  1.1920
  102CHL1  H21B13788   4.778   4.925  16.440  1.9753  0.2759 -0.4309
  102CHL1  H21C13789   4.613   4.969  16.367 -1.1476 -2.2868 -0.5142
  102CHL1   C2213790   4.584   4.773  16.194  0.2432 -0.4319  0.1079
  102CHL1  H22A13791   4.477   4.792  16.219  0.1727  0.4084 -0.7636
  102CHL1  H22B13792   4.609   4.856  16.124 -1.8290  1.0545  1.0114
  102CHL1   C2313793   4.598   4.650  16.101  0.3035 -0.4378 -0.6757
  102CHL1  H23A13794   4.704   4.619  16.101  0.0559 -1.3856 -1.6947
  102CHL1  H23B13795   4.548   4.560  16.143 -0.4232  0.8618  1.3753
  102CHL1   C2413796   4.532   4.670  15.962  0.5982 -0.0396 -0.2809
  102CHL1  H24A13797   4.421   4.661  15.971  0.7239 -1.7314 -0.0556
  102CHL1  H24B13798   4.547   4.768  15.913 -2.4220  1.1039  0.8196
  102CHL1   C2513799   4.578   4.560  15.865  0.0944  0.0894 -0.6133
  102CHL1   H2513800   4.560   4.463  15.915 -2.4500  1.0988  0.5942
  102CHL1   C2613801   4.490   4.564  15.742  0.3824  0.2016  0.2542
  102CHL1  H26A13802   4.516   4.660  15.691  3.4156 -0.9010 -0.4847
  102CHL1  H26B13803   4.512   4.475  15.680 -0.4622 -0.3415  0.7118
  102CHL1  H26C13804   4.381   4.563  15.767  0.1826  1.1299 -0.5092
  102CHL1   C2713805   4.728   4.559  15.820 -0.1065 -0.2549 -0.0040
  102CHL1  H27A13806   4.757   4.465  15.769 -0.6092  0.2022 -1.1822
  102CHL1  H27B13807   4.751   4.637  15.744  1.2480 -2.0788 -1.5565
  102CHL1  H27C13808   4.795   4.570  15.908 -1.5177  2.4548  0.8422
  103CHL1    C313809   4.996   3.755  17.081 -0.4976 -0.0454  0.6832
  103CHL1    H313810   5.091   3.698  17.086  0.7480  1.9837  1.2662
  103CHL1    O313811   4.955   3.783  17.212 -0.3887  0.4671 -0.1994
  103CHL1   H3'13812   4.883   3.847  17.209  0.4010  1.3850 -0.1025
  103CHL1    C413813   5.031   3.877  16.991 -0.0484  0.8394  0.6329
  103CHL1   H4A13814   4.949   3.952  16.993 -0.8996 -0.0255  3.7039
  103CHL1   H4B13815   5.115   3.937  17.032 -0.1036  0.6738  0.9963
  103CHL1    C513816   5.064   3.850  16.846  0.1246 -0.4695 -0.4573
  103CHL1    C613817   5.176   3.903  16.795  0.3836  0.1494 -0.0744
  103CHL1    H613818   5.240   3.964  16.860  0.6635  0.0953 -0.2929
  103CHL1    C713819   5.211   3.899  16.650  0.1600  0.4383 -0.0806
  103CHL1   H7A13820   5.223   3.995  16.594 -0.2804  0.3002 -0.4205
  103CHL1   H7B13821   5.307   3.846  16.636 -0.0863 -0.5583  1.6668
  103CHL1    C813822   5.105   3.822  16.561  0.0720  0.2585  0.1664
  103CHL1    H813823   5.037   3.906  16.536 -0.4825  0.3652  1.8935
  103CHL1   C1413824   5.171   3.756  16.439  0.0648 -0.1893 -0.2714
  103CHL1   H1413825   5.240   3.682  16.484  0.5718  0.7560  0.5448
  103CHL1   C1513826   5.257   3.846  16.351  0.2388 -0.1008 -0.8122
  103CHL1  H15A13827   5.210   3.947  16.341 -1.0344 -0.6056 -0.1727
  103CHL1  H15B13828   5.350   3.868  16.408 -1.8412 -0.8882  3.2306
  103CHL1   C1613829   5.269   3.776  16.217  0.0569 -0.1361 -0.7062
  103CHL1  H16A13830   5.242   3.835  16.127  0.4927 -0.3757 -0.9969
  103CHL1  H16B13831   5.369   3.729  16.206 -0.2083 -1.7577  2.5711
  103CHL1   C1713832   5.172   3.650  16.228  0.1518 -0.3139  0.0885
  103CHL1   H1713833   5.241   3.569  16.261  2.0656 -0.1219 -3.0840
  103CHL1   C1313834   5.071   3.683  16.349 -0.1071  0.1256  0.1935
  103CHL1   C1813835   4.956   3.780  16.297 -0.0729 -0.3017  0.5010
  103CHL1  H18A13836   5.011   3.869  16.260 -0.2316 -1.0034 -1.5807
  103CHL1  H18B13837   4.892   3.742  16.214  1.3305  2.0048 -1.7888
  103CHL1  H18C13838   4.911   3.836  16.382  2.1092  3.4517 -0.5954
  103CHL1   C1213839   5.010   3.571  16.430  0.0511  0.5517 -0.1124
  103CHL1  H12A13840   4.945   3.505  16.368 -1.6955  1.3659  0.7890
  103CHL1  H12B13841   5.095   3.510  16.469 -1.5200 -1.7405 -0.0654
  103CHL1   C1113842   4.942   3.625  16.555  0.2152 -0.2063  0.2698
  103CHL1  H11A13843   4.858   3.692  16.525  0.9683 -0.2838 -2.1928
  103CHL1  H11B13844   4.906   3.540  16.618 -1.1516 -1.1282 -1.6381
  103CHL1    C913845   5.033   3.708  16.641 -0.5455 -0.3602 -0.2738
  103CHL1    H913846   5.119   3.647  16.678  0.9336 -0.0888 -3.0349
  103CHL1   C1013847   4.967   3.757  16.771  0.4570 -0.7816 -1.0449
  103CHL1   C1913848   4.834   3.825  16.747 -0.7397  0.0637 -0.1785
  103CHL1  H19A13849   4.767   3.759  16.687  0.8211 -0.3833 -1.5191
  103CHL1  H19B13850   4.769   3.852  16.833 -0.4665  0.3597 -0.0677
  103CHL1  H19C13851   4.850   3.918  16.689  0.1230 -0.2839 -0.5097
  103CHL1    C113852   4.940   3.635  16.865  0.2543  0.2319  0.2784
  103CHL1   H1A13853   4.857   3.581  16.815  0.8017 -0.0161 -0.3582
  103CHL1   H1B13854   5.020   3.559  16.856 -1.2576 -1.4883  0.7644
  103CHL1    C213855   4.898   3.660  17.009  0.4186 -0.2427  0.1233
  103CHL1   H2A13856   4.891   3.570  17.073 -0.9565  0.6755  1.3531
  103CHL1   H2B13857   4.799   3.711  17.003  1.5989  2.0613 -1.7811
  103CHL1   C2013858   5.109   3.601  16.092 -0.5777 -0.1773  0.4769
  103CHL1   H2013859   5.012   3.653  16.077 -0.6770 -0.4347  0.2144
  103CHL1   C2113860   5.088   3.452  16.108  0.0059  0.8869  0.0289
  103CHL1  H21A13861   5.038   3.405  16.020 -2.3688  1.7297  0.8485
  103CHL1  H21B13862   5.021   3.441  16.196  0.7569  3.9245  1.0930
  103CHL1  H21C13863   5.183   3.396  16.123 -1.0780 -1.1011 -0.1028
  103CHL1   C2213864   5.194   3.618  15.962  0.3218  0.2499 -0.2756
  103CHL1  H22A13865   5.223   3.724  15.954 -3.0391  1.4624  1.4725
  103CHL1  H22B13866   5.284   3.553  15.962  0.2413  0.0971  1.4442
  103CHL1   C2313867   5.110   3.587  15.832 -0.0733 -0.5297 -0.6653
  103CHL1  H23A13868   5.104   3.476  15.833  0.3392 -0.5692  0.7558
  103CHL1  H23B13869   5.010   3.634  15.827  1.0325  2.7938  2.8620
  103CHL1   C2413870   5.183   3.635  15.697  0.2252  0.1595 -0.1184
  103CHL1  H24A13871   5.224   3.737  15.715  0.6305  0.0552 -0.4286
  103CHL1  H24B13872   5.273   3.570  15.687 -0.7385 -0.8124 -4.3890
  103CHL1   C2513873   5.091   3.603  15.575 -0.3528 -0.4162 -0.1285
  103CHL1   H2513874   5.149   3.616  15.481 -2.5449  1.3890 -1.3295
  103CHL1   C2613875   5.032   3.464  15.591  0.1254  0.4312  0.6472
  103CHL1  H26A13876   4.985   3.434  15.495 -1.7565 -1.6758  2.1118
  103CHL1  H26B13877   5.113   3.392  15.613 -0.7276 -0.5159  0.7526
  103CHL1  H26C13878   4.954   3.460  15.671  0.7246 -1.5057  1.1899
  103CHL1   C2713879   4.982   3.713  15.564  0.2734 -0.0505 -0.4252
  103CHL1  H27A13880   4.921   3.723  15.657 -0.5174 -0.1652 -0.9196
  103CHL1  H27B13881   5.034   3.808  15.537  1.6079 -1.3303 -2.6796
  103CHL1  H27C13882   4.913   3.687  15.481  0.3037 -0.8657 -0.2015
  104CHL1    C313883   1.702   4.863  17.040  0.0027 -0.3704  0.2749
  104CHL1    H313884   1.804   4.823  17.020  0.6407  1.2511  0.1660
  104CHL1    O313885   1.677   4.839  17.179 -0.3555 -0.0764 -0.2489
  104CHL1   H3'13886   1.608   4.905  17.193  0.5744  1.2402 -1.5404
  104CHL1    C413887   1.707   5.019  17.011 -0.6088  0.4340 -0.3656
  104CHL1   H4A13888   1.621   5.068  17.062 -0.5744  1.9233 -1.6366
  104CHL1   H4B13889   1.790   5.065  17.069  1.3972 -1.9400 -1.1889
  104CHL1    C513890   1.726   5.052  16.860 -0.3509 -0.0365 -0.1529
  104CHL1    C613891   1.824   5.130  16.813 -0.3810  0.1483 -0.0623
  104CHL1    H613892   1.898   5.172  16.882  1.7173  0.2409 -2.2570
  104CHL1    C713893   1.844   5.166  16.667 -0.2001 -0.0554 -0.1111
  104CHL1   H7A13894   1.854   5.277  16.661 -1.7084  0.1191  0.2287
  104CHL1   H7B13895   1.943   5.123  16.640 -0.9929 -2.5049  0.6580
  104CHL1    C813896   1.722   5.120  16.578 -0.0325  0.5126  0.2537
  104CHL1    H813897   1.639   5.191  16.597 -0.3771 -0.0906  1.0821
  104CHL1   C1413898   1.768   5.114  16.437  0.4245  0.1630  0.2131
  104CHL1   H1413899   1.844   5.033  16.431 -0.1654 -0.3972  0.2176
  104CHL1   C1513900   1.824   5.245  16.376 -0.3523  0.1303  0.4433
  104CHL1  H15A13901   1.762   5.333  16.401  1.7092  1.8994 -0.3806
  104CHL1  H15B13902   1.929   5.265  16.407 -0.3233 -0.4630  0.7516
  104CHL1   C1613903   1.828   5.207  16.229  0.1121 -0.1333 -0.6629
  104CHL1  H16A13904   1.814   5.300  16.170  0.8059  0.9813  0.8475
  104CHL1  H16B13905   1.937   5.189  16.216  1.0689  3.2075  1.4209
  104CHL1   C1713906   1.738   5.086  16.209  0.2092  0.4002 -0.0868
  104CHL1   H1713907   1.797   4.993  16.192  0.6706  1.1450 -3.2503
  104CHL1   C1313908   1.659   5.073  16.341 -0.5275  0.0104  1.0047
  104CHL1   C1813909   1.548   5.178  16.335  0.0483 -0.3553  0.0981
  104CHL1  H18A13910   1.461   5.131  16.286  0.2947 -0.6522 -0.0593
  104CHL1  H18B13911   1.506   5.204  16.434  2.3203  0.6477  0.8602
  104CHL1  H18C13912   1.570   5.274  16.284 -2.0995  2.0967  3.3778
  104CHL1   C1213913   1.608   4.934  16.377 -0.1468  0.0787  0.3176
  104CHL1  H12A13914   1.528   4.914  16.302 -1.9030 -1.2194  2.4523
  104CHL1  H12B13915   1.690   4.863  16.353 -1.1792 -0.6898 -1.1158
  104CHL1   C1113916   1.554   4.924  16.521  0.1389 -0.3055  0.0470
  104CHL1  H11A13917   1.463   4.986  16.525  0.0022 -0.5821  2.5353
  104CHL1  H11B13918   1.526   4.819  16.543 -0.3214 -0.0678  0.6112
  104CHL1    C913919   1.666   4.977  16.621  0.6594  0.4343  0.7685
  104CHL1    H913920   1.750   4.908  16.600  1.8792  1.7846  1.0589
  104CHL1   C1013921   1.629   4.969  16.770 -0.4870  0.4950 -0.0538
  104CHL1   C1913922   1.485   5.029  16.784 -0.0189  0.2350 -0.1115
  104CHL1  H19A13923   1.464   5.059  16.889  2.6274 -0.7282  0.7705
  104CHL1  H19B13924   1.476   5.116  16.715 -0.7177  1.2989  1.2738
  104CHL1  H19C13925   1.402   4.959  16.761  0.8775 -1.2008  0.8513
  104CHL1    C113926   1.638   4.822  16.814 -0.0185 -0.0095 -0.6462
  104CHL1   H1A13927   1.569   4.768  16.747 -2.4331  0.2162  1.5027
  104CHL1   H1B13928   1.740   4.780  16.798  1.1036  2.1680  0.3720
  104CHL1    C213929   1.595   4.799  16.961 -0.6213  0.4950  1.0470
  104CHL1   H2A13930   1.606   4.690  16.979  2.1913  0.0463 -2.2575
  104CHL1   H2B13931   1.491   4.827  16.990 -1.0591 -1.9507  2.0810
  104CHL1   C2013932   1.663   5.091  16.075  0.3336 -0.1908 -0.0483
  104CHL1   H2013933   1.600   5.182  16.081 -0.2799 -0.2989 -2.9628
  104CHL1   C2113934   1.579   4.966  16.045 -0.7015 -0.0376 -0.5190
  104CHL1  H21A13935   1.559   4.954  15.936  0.8475 -0.4218 -0.7834
  104CHL1  H21B13936   1.478   4.974  16.091  0.3882  0.3077  1.9942
  104CHL1  H21C13937   1.624   4.871  16.080 -1.7317  0.2168  1.6467
  104CHL1   C2213938   1.760   5.116  15.952  0.2550 -0.1763  0.0886
  104CHL1  H22A13939   1.831   5.198  15.976 -1.6222  1.2459  1.0367
  104CHL1  H22B13940   1.811   5.020  15.930  0.2805 -0.1092 -0.1479
  104CHL1   C2313941   1.694   5.167  15.825 -0.3449  0.1788  0.6951
  104CHL1  H23A13942   1.607   5.100  15.810  1.6195 -2.3759 -0.2125
  104CHL1  H23B13943   1.648   5.266  15.845 -1.0922 -0.1041  0.3917
  104CHL1   C2413944   1.789   5.172  15.699  0.9358 -0.4411  0.4113
  104CHL1  H24A13945   1.858   5.258  15.708  2.2439 -1.4852  0.6854
  104CHL1  H24B13946   1.850   5.080  15.717  0.6230 -0.3886  1.8597
  104CHL1   C2513947   1.714   5.166  15.565 -0.2341  0.6969 -0.1202
  104CHL1   H2513948   1.665   5.067  15.564  1.2557 -0.0629 -1.6076
  104CHL1   C2613949   1.592   5.262  15.556 -0.1250 -0.3321  0.1265
  104CHL1  H26A13950   1.518   5.234  15.633 -1.0879 -1.4067 -1.1407
  104CHL1  H26B13951   1.633   5.361  15.585  0.8221 -1.0028  1.1368
  104CHL1  H26C13952   1.550   5.265  15.453  1.1629  1.5883 -0.3892
  104CHL1   C2713953   1.800   5.177  15.437 -0.1826 -0.6087 -0.9154
  104CHL1  H27A13954   1.876   5.257  15.449 -0.5992  0.2187 -3.2731
  104CHL1  H27B13955   1.864   5.087  15.425  0.2864 -0.1903 -1.6172
  104CHL1  H27C13956   1.729   5.189  15.352  0.8669 -0.1871 -1.7500
  105CHL1    C313957   1.172   4.635  16.831  0.0295  0.1893  0.4124
  105CHL1    H313958   1.274   4.636  16.786 -1.0076  2.5341 -2.1191
  105CHL1    O313959   1.175   4.643  16.973  0.4335 -0.1229 -0.0319
  105CHL1   H3'13960   1.135   4.562  17.005  0.2687 -1.1771 -2.6338
  105CHL1    C413961   1.103   4.757  16.760 -0.8583 -0.1118 -0.5978
  105CHL1   H4A13962   0.998   4.756  16.795 -0.4682 -1.7775  0.6690
  105CHL1   H4B13963   1.153   4.847  16.803  0.2064 -0.3334 -1.3507
  105CHL1    C513964   1.116   4.753  16.612 -0.4762 -0.0571  0.4560
  105CHL1    C613965   1.188   4.841  16.546  0.1404 -0.5641 -0.1624
  105CHL1    H613966   1.241   4.920  16.603 -2.3741  2.4478 -1.6651
  105CHL1    C713967   1.197   4.848  16.397  0.0324  0.5644 -0.2345
  105CHL1   H7A13968   1.195   4.952  16.358 -0.9838  0.3248 -0.8656
  105CHL1   H7B13969   1.297   4.810  16.367 -0.1440 -0.2349  0.1566
  105CHL1    C813970   1.099   4.745  16.322 -0.3032  0.1483 -0.0032
  105CHL1    H813971   1.004   4.802  16.317 -0.9391 -0.7525  1.3549
  105CHL1   C1413972   1.142   4.719  16.181 -0.5139  0.0382 -0.1181
  105CHL1   H1413973   1.238   4.664  16.185 -1.9013 -2.4991 -0.1526
  105CHL1   C1513974   1.177   4.837  16.087 -0.1116 -0.5108  0.5581
  105CHL1  H15A13975   1.121   4.930  16.109  1.1481  1.0698 -2.4170
  105CHL1  H15B13976   1.282   4.865  16.107  0.8545 -3.1530 -0.3969
  105CHL1   C1613977   1.162   4.786  15.943 -0.3166 -0.5326 -0.4135
  105CHL1  H16A13978   1.089   4.844  15.884  0.3266  2.4539  1.4806
  105CHL1  H16B13979   1.258   4.782  15.888  0.0354  0.5203  0.0964
  105CHL1   C1713980   1.120   4.636  15.960 -0.1923 -0.4922 -0.1471
  105CHL1   H1713981   1.218   4.583  15.966 -0.4316 -1.0855 -1.1239
  105CHL1   C1313982   1.051   4.625  16.096 -0.9961 -0.3021 -0.3255
  105CHL1   C1813983   0.911   4.688  16.079  0.0662  1.1071 -0.2957
  105CHL1  H18A13984   0.918   4.795  16.049  1.7352  1.3710  0.8850
  105CHL1  H18B13985   0.843   4.641  16.004 -0.5950 -0.2603  1.1016
  105CHL1  H18C13986   0.858   4.702  16.176 -4.1870 -0.3599 -2.1328
  105CHL1   C1213987   1.047   4.487  16.168 -0.1525  0.3775  0.6019
  105CHL1  H12A13988   0.984   4.417  16.109 -0.0471  1.2073 -0.5421
  105CHL1  H12B13989   1.147   4.441  16.180 -1.3012 -2.7214 -0.6621
  105CHL1   C1113990   0.995   4.507  16.316 -0.0812 -0.3250 -0.2646
  105CHL1  H11A13991   0.894   4.552  16.307 -0.1668 -0.4704 -0.0513
  105CHL1  H11B13992   1.002   4.405  16.359 -2.1667 -0.3529  0.0974
  105CHL1    C913993   1.085   4.613  16.401  0.0492  0.2300  0.4870
  105CHL1    H913994   1.184   4.564  16.400 -1.1514 -2.4125  1.5697
  105CHL1   C1013995   1.054   4.630  16.550 -0.2096  0.2782 -0.7453
  105CHL1   C1913996   0.900   4.640  16.564  0.3457 -0.2834 -0.6164
  105CHL1  H19A13997   0.884   4.650  16.674  1.5592 -0.5830 -0.3915
  105CHL1  H19B13998   0.862   4.729  16.511  0.6748 -0.5362 -1.2812
  105CHL1  H19C13999   0.854   4.548  16.522 -0.4179  0.1620 -0.7774
  105CHL1    C114000   1.101   4.502  16.627  0.1159 -0.2309  0.1936
  105CHL1   H1A14001   1.042   4.418  16.586 -0.0409  0.3250 -0.7475
  105CHL1   H1B14002   1.208   4.482  16.604 -0.0472 -1.3661  0.3917
  105CHL1    C214003   1.106   4.510  16.783  0.3487 -0.0536 -0.0279
  105CHL1   H2A14004   1.151   4.417  16.824 -1.4657 -0.2898  1.5977
  105CHL1   H2B14005   1.001   4.514  16.819 -0.6315 -0.4526 -2.5941
  105CHL1   C2014006   1.051   4.578  15.834  0.5087 -0.0067 -0.1097
  105CHL1   H2014007   0.944   4.607  15.840  0.5989  0.3029  0.0700
  105CHL1   C2114008   1.078   4.426  15.842 -0.1046  0.2774  0.5540
  105CHL1  H21A14009   0.990   4.377  15.795 -0.0796 -0.1170  0.9107
  105CHL1  H21B14010   1.075   4.375  15.941 -0.4594  1.3619  1.1247
  105CHL1  H21C14011   1.171   4.403  15.785 -0.0173  1.3775  0.2214
  105CHL1   C2214012   1.101   4.633  15.697  1.2627  0.1494 -0.7950
  105CHL1  H22A14013   1.102   4.744  15.694 -3.7698  0.3990 -1.3629
  105CHL1  H22B14014   1.208   4.604  15.688  0.7398 -1.5206 -1.9293
  105CHL1   C2314015   1.020   4.574  15.574 -0.2360  0.6679  0.2582
  105CHL1  H23A14016   0.981   4.480  15.619  1.8786  0.0696  0.9640
  105CHL1  H23B14017   0.935   4.638  15.544 -1.0021 -0.4492 -0.0108
  105CHL1   C2414018   1.099   4.534  15.451 -0.2665  0.2949  0.1074
  105CHL1  H24A14019   1.125   4.625  15.393  1.4529 -0.2544 -0.0235
  105CHL1  H24B14020   1.193   4.475  15.463 -0.6101  0.0985  2.2798
  105CHL1   C2514021   1.014   4.445  15.351  0.2446 -0.4291  0.8591
  105CHL1   H2514022   0.925   4.492  15.306  2.3863  1.2660 -1.9585
  105CHL1   C2614023   1.098   4.425  15.217 -0.8839 -0.4798 -0.2843
  105CHL1  H26A14024   1.184   4.356  15.233 -0.8015 -0.2242  0.4292
  105CHL1  H26B14025   1.042   4.353  15.152 -2.5341 -1.1210  1.7128
  105CHL1  H26C14026   1.125   4.516  15.160  1.1950  0.6280  2.2773
  105CHL1   C2714027   0.991   4.306  15.404 -0.1214  0.1981 -0.3536
  105CHL1  H27A14028   1.062   4.267  15.479 -0.7876  0.8494  0.6424
  105CHL1  H27B14029   0.896   4.290  15.459  0.4593 -1.1515  0.3009
  105CHL1  H27C14030   0.983   4.227  15.326 -0.1926 -1.3293  1.1268
  106CHL1    C314031   4.923   3.253  17.037 -0.1990  0.4318 -0.4477
  106CHL1    H314032   4.873   3.327  16.971 -3.1021 -0.6906  0.3364
  106CHL1    O314033   4.902   3.280  17.176  0.6286  0.0427 -0.0256
  106CHL1   H3'14034   4.989   3.263  17.213  0.4123 -0.7865  0.1222
  106CHL1    C414035   4.877   3.114  16.992 -0.3239 -0.7021 -0.4349
  106CHL1   H4A14036   4.943   3.047  17.052  0.7849  0.0457 -0.7818
  106CHL1   H4B14037   4.771   3.109  17.023 -0.0789 -1.3546  0.3406
  106CHL1    C514038   4.902   3.082  16.848 -0.1966  0.5235  0.3489
  106CHL1    C614039   4.799   3.049  16.767 -0.2287 -0.3883  0.4273
  106CHL1    H614040   4.697   3.043  16.808 -1.7385  4.0033 -1.9990
  106CHL1    C714041   4.803   3.024  16.618 -0.5055 -0.7598  0.1842
  106CHL1   H7A14042   4.761   2.924  16.597 -3.2148  0.0727  1.2496
  106CHL1   H7B14043   4.739   3.097  16.565  0.4140 -0.1455 -0.0997
  106CHL1    C814044   4.951   3.014  16.572  0.1777  0.1083  0.3306
  106CHL1    H814045   4.987   2.912  16.600  1.3516 -0.3351 -2.5076
  106CHL1   C1414046   4.961   3.041  16.422 -0.3305 -0.1665  0.0975
  106CHL1   H1414047   4.934   3.148  16.410 -0.5364 -0.0720  1.3490
  106CHL1   C1514048   4.862   2.965  16.341  0.2230  0.1915  0.2818
  106CHL1  H15A14049   4.866   2.857  16.368  1.2233  0.2277  0.2939
  106CHL1  H15B14050   4.761   3.010  16.353  0.2457 -0.0779  1.6302
  106CHL1   C1614051   4.915   2.977  16.199  0.1404 -0.3798 -0.3848
  106CHL1  H16A14052   4.926   2.873  16.161  0.0929 -0.8919  0.9227
  106CHL1  H16B14053   4.851   3.036  16.131 -0.4116  1.2360  1.4329
  106CHL1   C1714054   5.059   3.042  16.211  0.0650  0.5599 -0.6961
  106CHL1   H1714055   5.059   3.147  16.175  2.2620  1.2893  1.1773
  106CHL1   C1314056   5.106   3.020  16.357  0.7872  0.1996  0.3685
  106CHL1   C1814057   5.146   2.872  16.380  0.7344  0.2266 -0.0452
  106CHL1  H18A14058   5.246   2.855  16.336  0.5935  2.0193 -1.1465
  106CHL1  H18B14059   5.154   2.851  16.489  0.2440  1.5509  0.2656
  106CHL1  H18C14060   5.072   2.802  16.338  2.6184 -1.3132 -0.9361
  106CHL1   C1214061   5.199   3.127  16.427  0.0581  0.3501  0.5387
  106CHL1  H12A14062   5.301   3.117  16.385  0.2584  0.8060  0.9056
  106CHL1  H12B14063   5.167   3.230  16.401 -1.7031 -0.5868 -1.3431
  106CHL1   C1114064   5.200   3.103  16.581 -0.0594  0.2674  0.7271
  106CHL1  H11A14065   5.247   3.004  16.599  0.5209  0.5805  0.9550
  106CHL1  H11B14066   5.265   3.183  16.620 -0.9229  0.9754  0.7587
  106CHL1    C914067   5.051   3.112  16.638 -0.4860 -0.6347 -0.4206
  106CHL1    H914068   5.021   3.214  16.605 -0.6326  0.2980  2.3890
  106CHL1   C1014069   5.043   3.110  16.792 -0.0262 -0.6520 -0.5424
  106CHL1   C1914070   5.135   2.999  16.840  0.1141 -0.0667 -0.4592
  106CHL1  H19A14071   5.129   2.900  16.790  1.0377 -1.4427  1.9829
  106CHL1  H19B14072   5.240   3.034  16.832  0.3508 -1.1638 -3.1118
  106CHL1  H19C14073   5.130   2.977  16.949 -0.0183  1.2210 -0.1896
  106CHL1    C114074   5.094   3.247  16.846 -0.2175  0.4965 -0.4386
  106CHL1   H1A14075   5.203   3.252  16.826 -0.0701  2.2613  0.6151
  106CHL1   H1B14076   5.055   3.328  16.780  0.0719  0.8529 -0.1725
  106CHL1    C214077   5.072   3.260  17.002 -0.6222 -0.0515  0.5048
  106CHL1   H2A14078   5.109   3.361  17.029 -2.2592  1.5306 -2.5441
  106CHL1   H2B14079   5.129   3.176  17.047  1.1586  0.3230 -0.9192
  106CHL1   C2014080   5.149   2.977  16.108  0.3717 -0.0413  0.4747
  106CHL1   H2014081   5.168   2.869  16.122  1.0846  0.3791  3.3623
  106CHL1   C2114082   5.283   3.054  16.107  0.3405  0.0598 -0.1749
  106CHL1  H21A14083   5.348   3.017  16.025  0.0560 -0.9908  0.0516
  106CHL1  H21B14084   5.334   3.040  16.204  0.6488  1.8130 -0.0557
  106CHL1  H21C14085   5.266   3.162  16.088  0.6930 -0.0096 -0.8989
  106CHL1   C2214086   5.089   2.968  15.961 -0.1940  0.6488 -0.5625
  106CHL1  H22A14087   5.150   2.896  15.902 -0.2820  0.0149  0.1073
  106CHL1  H22B14088   4.988   2.922  15.967 -0.6489  1.7031  0.1511
  106CHL1   C2314089   5.083   3.101  15.885  0.7567  0.0522 -0.5014
  106CHL1  H23A14090   5.031   3.175  15.950  1.4209 -2.6067  3.4059
  106CHL1  H23B14091   5.188   3.139  15.882  0.7218  0.2224  0.2952
  106CHL1   C2414092   5.010   3.092  15.752 -0.0837  0.5281 -0.1468
  106CHL1  H24A14093   4.917   3.034  15.769 -0.4636  0.7517 -1.3282
  106CHL1  H24B14094   4.991   3.198  15.725  1.5652  1.1528  1.0129
  106CHL1   C2514095   5.089   3.018  15.643  0.0414 -0.6636 -0.2569
  106CHL1   H2514096   5.074   2.908  15.658  1.1020 -0.6168  1.4561
  106CHL1   C2614097   5.043   3.065  15.500  0.6595  0.9705 -1.1174
  106CHL1  H26A14098   5.064   2.993  15.418  0.7260 -0.9257  0.5127
  106CHL1  H26B14099   4.932   3.077  15.499  0.7874  2.4852 -0.0971
  106CHL1  H26C14100   5.086   3.165  15.476 -0.3613  2.3687  2.3047
  106CHL1   C2714101   5.239   3.033  15.659 -0.9031  0.5487  0.3582
  106CHL1  H27A14102   5.280   3.133  15.632 -2.7350  1.2627  0.0628
  106CHL1  H27B14103   5.280   3.005  15.759  0.2602 -0.1119 -0.2880
  106CHL1  H27C14104   5.282   2.960  15.587  0.9398  1.0652  0.8695
  107CHL1    C314105   1.080   1.047  16.263 -0.5920 -0.0955  0.2990
  107CHL1    H314106   1.186   1.044  16.228 -0.9667 -0.3774 -0.8522
  107CHL1    O314107   1.069   1.067  16.398  0.5944 -0.1141  0.7509
  107CHL1   H3'14108   0.979   1.037  16.415  0.0656  1.3016  0.5759
  107CHL1    C414109   1.005   1.162  16.203  0.2716 -0.5646 -0.5361
  107CHL1   H4A14110   0.903   1.171  16.245 -0.5044  0.9802 -2.5778
  107CHL1   H4B14111   1.055   1.258  16.231 -1.2874  0.8241 -2.2455
  107CHL1    C514112   1.005   1.146  16.046  0.0969 -0.7483 -0.9924
  107CHL1    C614113   1.060   1.236  15.968  0.1642 -0.0198  0.0431
  107CHL1    H614114   1.093   1.329  16.017 -0.1793 -0.5188  1.2404
  107CHL1    C714115   1.053   1.237  15.815  0.2103 -0.1847 -0.4143
  107CHL1   H7A14116   1.013   1.333  15.778 -1.2414  0.0685  1.6478
  107CHL1   H7B14117   1.153   1.214  15.771 -0.3170 -1.1944 -1.1257
  107CHL1    C814118   0.960   1.126  15.761  0.3776  0.1619 -0.1328
  107CHL1    H814119   0.856   1.166  15.760 -0.3442 -1.6274 -0.7738
  107CHL1   C1414120   0.992   1.098  15.616  0.0229  0.0108  0.3060
  107CHL1   H1414121   1.099   1.070  15.606 -0.6374 -2.4863 -0.6972
  107CHL1   C1514122   0.983   1.211  15.514 -0.6012  0.3241 -0.0232
  107CHL1  H15A14123   0.891   1.270  15.538  0.1503  1.2953  0.5379
  107CHL1  H15B14124   1.066   1.284  15.511  0.6237 -0.9995  0.7092
  107CHL1   C1614125   0.958   1.147  15.376 -0.1960 -0.1722  0.6204
  107CHL1  H16A14126   0.866   1.181  15.324  0.2138 -0.3416 -0.2341
  107CHL1  H16B14127   1.042   1.155  15.303 -0.2909  2.1250  0.6830
  107CHL1   C1714128   0.945   0.999  15.406 -0.0446  0.1544 -0.3751
  107CHL1   H1714129   1.052   0.970  15.406 -0.3173 -1.7345 -4.9991
  107CHL1   C1314130   0.905   0.990  15.554  0.3257 -0.1771  0.5707
  107CHL1   C1814131   0.756   1.038  15.550  0.3561  0.1123  0.3871
  107CHL1  H18A14132   0.744   1.137  15.500 -0.1723  0.2958  0.8674
  107CHL1  H18B14133   0.693   0.970  15.489 -0.7093  1.6278 -0.2782
  107CHL1  H18C14134   0.713   1.043  15.652  0.0495 -1.4778  0.3577
  107CHL1   C1214135   0.920   0.864  15.639  0.6712  0.0180  0.2197
  107CHL1  H12A14136   0.850   0.792  15.590  2.7531 -0.2952 -2.5363
  107CHL1  H12B14137   1.021   0.820  15.632 -0.5239 -3.1317  0.9167
  107CHL1   C1114138   0.899   0.881  15.790  0.5285 -0.0746  0.3043
  107CHL1  H11A14139   0.790   0.881  15.811  0.7990  1.2755  1.8102
  107CHL1  H11B14140   0.933   0.787  15.837 -2.2276 -0.9496  0.7343
  107CHL1    C914141   0.975   1.000  15.848  0.1484  0.3988  0.5376
  107CHL1    H914142   1.083   0.975  15.842 -0.0992 -0.3522 -1.2274
  107CHL1   C1014143   0.944   1.015  16.004  0.0700 -0.0050 -0.2868
  107CHL1   C1914144   0.789   1.028  16.025 -0.2426 -0.1931 -0.2455
  107CHL1  H19A14145   0.755   1.110  15.959 -1.1034  0.6962  1.2354
  107CHL1  H19B14146   0.741   0.933  15.994 -0.6735 -0.4106  1.0311
  107CHL1  H19C14147   0.764   1.049  16.131  2.9512  3.0431  0.0771
  107CHL1    C114148   1.007   0.897  16.079  0.4420 -0.2791 -0.5859
  107CHL1   H1A14149   0.962   0.797  16.069 -0.4423  0.0312  0.1307
  107CHL1   H1B14150   1.113   0.889  16.047  0.1438  0.7682 -1.9382
  107CHL1    C214151   1.015   0.913  16.228 -0.1556  0.0160 -0.2451
  107CHL1   H2A14152   1.067   0.831  16.281 -0.2174  0.0356 -0.1533
  107CHL1   H2B14153   0.908   0.905  16.256 -0.4523 -0.5275 -1.4310
  107CHL1   C2014154   0.878   0.911  15.297 -0.3074  0.1143  0.1926
  107CHL1   H2014155   0.769   0.911  15.315 -0.6647 -1.8840 -1.5949
  107CHL1   C2114156   0.936   0.764  15.304  0.1763 -0.2749 -0.9983
  107CHL1  H21A14157   1.034   0.781  15.255 -0.7830  0.8274 -2.6079
  107CHL1  H21B14158   0.876   0.697  15.239 -3.6378  0.9956  0.9130
  107CHL1  H21C14159   0.941   0.736  15.412 -0.8357 -0.3035 -0.9497
  107CHL1   C2214160   0.883   0.975  15.150  0.3049 -0.2996 -0.0213
  107CHL1  H22A14161   0.822   1.068  15.153 -0.4393 -0.7809  0.1975
  107CHL1  H22B14162   0.987   1.010  15.134  0.2176  0.2251  0.4974
  107CHL1   C2314163   0.821   0.888  15.044 -0.3784  0.5973  0.6813
  107CHL1  H23A14164   0.893   0.804  15.028  0.8773  1.8323 -0.3641
  107CHL1  H23B14165   0.721   0.862  15.084 -1.4967  0.5511 -1.9212
  107CHL1   C2414166   0.816   0.957  14.906  0.5565  0.3842  0.6278
  107CHL1  H24A14167   0.734   1.032  14.904  0.1701 -0.0071  1.5508
  107CHL1  H24B14168   0.919   0.993  14.884  1.6138 -2.9315 -0.3357
  107CHL1   C2514169   0.795   0.856  14.788 -0.8470 -0.3601  0.3117
  107CHL1   H2514170   0.858   0.765  14.799 -1.0991 -0.2773  3.2916
  107CHL1   C2614171   0.645   0.808  14.779 -0.0094 -0.1037  0.3606
  107CHL1  H26A14172   0.637   0.733  14.698 -1.0455 -1.0574  1.3186
  107CHL1  H26B14173   0.610   0.763  14.874  0.1706  0.0862  0.5187
  107CHL1  H26C14174   0.584   0.896  14.750  1.7481  0.8377 -0.6833
  107CHL1   C2714175   0.828   0.919  14.653 -0.4539  0.1456 -0.5957
  107CHL1  H27A14176   0.936   0.946  14.649 -0.4824  0.2197 -0.9849
  107CHL1  H27B14177   0.808   0.841  14.576  1.3143 -0.1489 -0.8074
  107CHL1  H27C14178   0.769   1.013  14.642  0.4416  0.9414  0.9435
  108CHL1    C314179   1.162   3.930  17.220 -0.1096 -0.0262 -0.2104
  108CHL1    H314180   1.055   3.950  17.199 -0.2929 -0.7782 -0.0304
  108CHL1    O314181   1.194   3.909  17.354 -0.0883 -0.0213  0.6361
  108CHL1   H3'14182   1.290   3.904  17.351  0.1261  2.3117  1.5096
  108CHL1    C414183   1.211   3.803  17.141 -0.6669  0.1306 -0.8285
  108CHL1   H4A14184   1.314   3.787  17.179 -1.6193  0.0426  1.9401
  108CHL1   H4B14185   1.150   3.721  17.184 -0.4795  0.5636  0.2925
  108CHL1    C514186   1.202   3.814  16.987  0.2682 -0.3812  0.2093
  108CHL1    C614187   1.137   3.721  16.918  0.3052  0.2154 -0.0473
  108CHL1    H614188   1.101   3.628  16.966  0.5087 -0.4733 -1.2005
  108CHL1    C714189   1.123   3.730  16.767  0.5456  0.3163 -0.2948
  108CHL1   H7A14190   1.136   3.624  16.735  0.5371 -0.2027  1.3061
  108CHL1   H7B14191   1.017   3.759  16.750  0.5333  2.2840  2.3614
  108CHL1    C814192   1.217   3.830  16.701 -0.0932  0.2160  0.9662
  108CHL1    H814193   1.319   3.785  16.708  0.2625  0.0462 -3.0613
  108CHL1   C1414194   1.187   3.856  16.554 -0.3185  0.6967 -0.5164
  108CHL1   H1414195   1.091   3.911  16.554 -0.0566  1.1675 -1.2994
  108CHL1   C1514196   1.166   3.737  16.465 -0.2535 -0.0771 -0.3760
  108CHL1  H15A14197   1.237   3.654  16.482 -2.0691 -1.4388  0.9024
  108CHL1  H15B14198   1.068   3.688  16.484 -0.4373  0.1358 -0.7642
  108CHL1   C1614199   1.181   3.798  16.329 -0.0633 -0.2413 -0.1060
  108CHL1  H16A14200   1.261   3.740  16.278  1.0829  0.4231  0.8733
  108CHL1  H16B14201   1.083   3.793  16.277  0.0560 -0.4765 -0.3101
  108CHL1   C1714202   1.220   3.945  16.344  0.5587 -0.5352 -0.2468
  108CHL1   H1714203   1.126   4.004  16.341 -0.4145 -2.0570 -0.9205
  108CHL1   C1314204   1.278   3.953  16.489  0.1922  0.3932  0.6233
  108CHL1   C1814205   1.429   3.907  16.484 -0.0018  0.3890  0.4852
  108CHL1  H18A14206   1.492   3.983  16.433 -1.9114  1.4953 -0.3603
  108CHL1  H18B14207   1.466   3.909  16.589 -0.9016 -2.1630  0.9133
  108CHL1  H18C14208   1.436   3.803  16.446  2.2353  0.7152 -0.1487
  108CHL1   C1214209   1.273   4.089  16.557 -0.6021  0.2309  0.0761
  108CHL1  H12A14210   1.337   4.163  16.505 -1.0123 -0.0992 -0.9263
  108CHL1  H12B14211   1.168   4.123  16.546 -0.5434  0.9550  1.4540
  108CHL1   C1114212   1.292   4.084  16.710  0.2097 -0.0250  0.3189
  108CHL1  H11A14213   1.403   4.091  16.715  0.3820 -2.3870  1.0304
  108CHL1  H11B14214   1.264   4.183  16.750  0.6727  1.6870 -3.2054
  108CHL1    C914215   1.223   3.968  16.780  0.5069 -0.3666 -0.7625
  108CHL1    H914216   1.114   3.986  16.789  0.3862 -0.3811 -1.9573
  108CHL1   C1014217   1.269   3.943  16.926  0.3396 -0.1059  0.6820
  108CHL1   C1914218   1.423   3.918  16.930  0.4734 -0.3003  0.1442
  108CHL1  H19A14219   1.451   3.876  17.029 -0.7824  0.0297  0.6605
  108CHL1  H19B14220   1.466   3.852  16.853  1.1465  0.1300  0.1417
  108CHL1  H19C14221   1.483   4.011  16.918  0.3129 -0.1376  0.5599
  108CHL1    C114222   1.230   4.066  17.016 -0.1455 -0.1695 -0.3524
  108CHL1   H1A14223   1.293   4.151  16.983  0.1395 -0.4334 -0.4931
  108CHL1   H1B14224   1.128   4.100  16.991 -0.1188  1.0735  1.1265
  108CHL1    C214225   1.247   4.048  17.171  0.6097 -0.2084 -0.3739
  108CHL1   H2A14226   1.203   4.137  17.220  0.9454 -0.0094 -0.4395
  108CHL1   H2B14227   1.351   4.040  17.207 -0.6730 -1.0310  3.6140
  108CHL1   C2014228   1.305   3.989  16.216  0.4541  0.3004 -0.1485
  108CHL1   H2014229   1.406   3.945  16.219 -0.4299 -1.8354  0.1255
  108CHL1   C2114230   1.312   4.140  16.215  0.2129 -0.4208 -0.0306
  108CHL1  H21A14231   1.390   4.187  16.151 -0.3712  0.5377 -0.0684
  108CHL1  H21B14232   1.341   4.172  16.317  0.2756 -0.4449 -0.0409
  108CHL1  H21C14233   1.212   4.186  16.202 -0.2140 -1.7594 -1.9516
  108CHL1   C2214234   1.241   3.951  16.081  0.0191  0.0065 -0.3221
  108CHL1  H22A14235   1.233   3.840  16.080  2.9947 -0.2995 -0.9948
  108CHL1  H22B14236   1.134   3.980  16.077 -0.1924 -0.7512 -0.2550
  108CHL1   C2314237   1.331   3.983  15.959 -0.0978 -0.3296 -0.6930
  108CHL1  H23A14238   1.351   4.091  15.975 -1.1522 -0.2536  0.2542
  108CHL1  H23B14239   1.422   3.923  15.978 -1.8648 -3.0469 -0.2687
  108CHL1   C2414240   1.267   3.947  15.823 -0.5784 -0.2528 -0.7736
  108CHL1  H24A14241   1.268   3.836  15.817  3.3599 -0.3235 -1.0930
  108CHL1  H24B14242   1.163   3.986  15.831 -0.5630 -0.3159 -0.2358
  108CHL1   C2514243   1.342   3.997  15.698 -0.2344  0.3944 -0.3797
  108CHL1   H2514244   1.362   4.106  15.708  0.2100  0.2548  0.3492
  108CHL1   C2614245   1.479   3.919  15.686  0.5078 -0.1053 -0.2986
  108CHL1  H26A14246   1.537   3.945  15.595 -0.5110 -1.2430 -1.3157
  108CHL1  H26B14247   1.524   3.929  15.787 -0.9346 -1.7096  0.5682
  108CHL1  H26C14248   1.461   3.810  15.688  2.2276 -0.4201 -0.8421
  108CHL1   C2714249   1.254   3.990  15.571 -0.5952 -0.3351  0.3056
  108CHL1  H27A14250   1.149   4.013  15.596 -0.5083  0.1727  0.2011
  108CHL1  H27B14251   1.296   4.058  15.494  2.3151 -1.6329  0.5850
  108CHL1  H27C14252   1.268   3.883  15.544 -0.1505  0.1698 -1.6271
  109CHL1    C314253   2.057   1.386  16.310  0.1623  0.7338 -0.2759
  109CHL1    H314254   1.949   1.362  16.295  0.1186  2.4624 -3.8178
  109CHL1    O314255   2.090   1.411  16.445 -0.3206 -0.0028  1.2430
  109CHL1   H3'14256   2.178   1.448  16.439 -0.8312  1.0637 -0.1028
  109CHL1    C414257   2.132   1.262  16.264 -0.2793  0.5432  0.5882
  109CHL1   H4A14258   2.242   1.265  16.277  0.1933 -0.0395 -2.6063
  109CHL1   H4B14259   2.090   1.184  16.331 -1.2354  1.4104  1.0286
  109CHL1    C514260   2.114   1.223  16.127  0.0541 -0.6942  0.5743
  109CHL1    C614261   2.064   1.098  16.101  0.0088 -0.5091  0.1914
  109CHL1    H614262   2.047   1.033  16.188 -3.0452  1.6116  1.3735
  109CHL1    C714263   2.037   1.047  15.961  0.1172 -0.0241  0.2577
  109CHL1   H7A14264   2.090   0.949  15.954 -0.6249 -0.5225  1.2933
  109CHL1   H7B14265   1.929   1.024  15.947  0.3383 -0.4555 -0.7977
  109CHL1    C814266   2.086   1.151  15.847  0.3993  0.0476 -0.1274
  109CHL1    H814267   2.192   1.129  15.825 -0.3634 -2.1845 -1.9391
  109CHL1   C1414268   2.008   1.131  15.720 -0.2409 -0.1546 -0.0161
  109CHL1   H1414269   1.905   1.173  15.726  0.3219  1.3282 -0.2893
  109CHL1   C1514270   1.997   0.996  15.663  0.4399  0.1124 -0.3614
  109CHL1  H15A14271   2.102   0.961  15.652  0.4710  0.7368 -2.4399
  109CHL1  H15B14272   1.930   0.929  15.721  1.9923  1.1336  2.9068
  109CHL1   C1614273   1.965   1.012  15.519  0.1977 -0.5044  0.0878
  109CHL1  H16A14274   2.036   0.967  15.447 -1.7008  0.2736 -2.4223
  109CHL1  H16B14275   1.862   0.973  15.503 -0.4302 -0.2735  2.9789
  109CHL1   C1714276   1.978   1.163  15.482  0.2524  1.2079 -0.1429
  109CHL1   H1714277   1.879   1.213  15.493  0.5528  1.6243  0.7709
  109CHL1   C1314278   2.058   1.216  15.601 -0.4667  0.2503 -0.4397
  109CHL1   C1814279   2.208   1.200  15.574  0.1419  0.2661  0.3037
  109CHL1  H18A14280   2.248   1.268  15.495 -2.7353  3.0162  0.9834
  109CHL1  H18B14281   2.274   1.230  15.658  0.7837 -3.7283  1.4100
  109CHL1  H18C14282   2.240   1.098  15.544  0.6269  0.3333  0.5799
  109CHL1   C1214283   2.040   1.367  15.642 -0.3435 -0.0142  0.0206
  109CHL1  H12A14284   2.077   1.439  15.567 -0.6986 -2.5583 -2.8183
  109CHL1  H12B14285   1.932   1.392  15.643 -0.2476  0.3867  0.2533
  109CHL1   C1114286   2.097   1.401  15.781 -0.1604  0.7270  0.2156
  109CHL1  H11A14287   2.206   1.400  15.758 -0.1509 -0.3713  0.2392
  109CHL1  H11B14288   2.070   1.504  15.810  1.2170  1.0977  0.2585
  109CHL1    C914289   2.069   1.300  15.894  0.2158  0.1638  0.4009
  109CHL1    H914290   1.959   1.309  15.907  0.4093  2.4570  0.8975
  109CHL1   C1014291   2.133   1.341  16.032 -0.1232  0.3219 -0.2427
  109CHL1   C1914292   2.282   1.356  16.014 -0.0665 -0.4963  0.0564
  109CHL1  H19A14293   2.327   1.370  16.115 -1.3591 -1.4538  0.7814
  109CHL1  H19B14294   2.319   1.257  15.981 -1.0178 -0.4891 -1.0648
  109CHL1  H19C14295   2.310   1.442  15.949  3.2583 -0.9109  0.7315
  109CHL1    C114296   2.068   1.471  16.080 -0.3232 -0.0890  0.4308
  109CHL1   H1A14297   2.102   1.554  16.015 -0.8064 -1.3539 -1.5368
  109CHL1   H1B14298   1.958   1.471  16.064 -0.0868  1.7345 -1.8407
  109CHL1    C214299   2.094   1.505  16.224 -0.3901 -0.0412  0.0293
  109CHL1   H2A14300   2.039   1.595  16.257 -1.7727 -0.7005 -0.4070
  109CHL1   H2B14301   2.204   1.508  16.241 -0.3166 -1.0104 -0.1936
  109CHL1   C2014302   2.033   1.184  15.338 -0.0607 -0.5474 -0.1881
  109CHL1   H2014303   2.135   1.142  15.334 -0.0478 -0.8968  2.3610
  109CHL1   C2114304   2.037   1.334  15.302  0.8875 -0.7829  1.5384
  109CHL1  H21A14305   2.109   1.383  15.371 -3.5723  2.6416  4.3321
  109CHL1  H21B14306   1.938   1.383  15.315  0.8301 -0.7185  0.8691
  109CHL1  H21C14307   2.066   1.341  15.195 -0.7515  1.1042  1.1497
  109CHL1   C2214308   1.944   1.111  15.232  0.2070  0.2453 -0.8935
  109CHL1  H22A14309   1.911   1.020  15.285  1.8815  1.1989  2.0515
  109CHL1  H22B14310   1.862   1.183  15.210  0.6402  0.8831 -0.4830
  109CHL1   C2314311   2.011   1.086  15.105 -0.0931 -0.5882  0.5325
  109CHL1  H23A14312   2.020   1.186  15.058 -1.6609  0.1707  1.7571
  109CHL1  H23B14313   2.115   1.047  15.113  0.3639  0.3360 -0.5571
  109CHL1   C2414314   1.920   1.010  15.007  0.4932 -0.2199  0.0032
  109CHL1  H24A14315   1.891   0.919  15.064  0.1464  1.0622  1.9639
  109CHL1  H24B14316   1.829   1.064  14.973  1.0539  0.7570  0.0118
  109CHL1   C2514317   1.995   0.960  14.886  0.7266 -0.4247  0.6711
  109CHL1   H2514318   2.054   1.037  14.831 -0.3346  1.6331  2.2771
  109CHL1   C2614319   2.098   0.851  14.928  0.3584 -0.3009 -0.2853
  109CHL1  H26A14320   2.042   0.766  14.971 -2.4359  1.7469  0.4292
  109CHL1  H26B14321   2.158   0.805  14.846  1.3442 -1.6046  1.1350
  109CHL1  H26C14322   2.171   0.885  15.004 -0.0362  1.2022 -0.5344
  109CHL1   C2714323   1.893   0.902  14.786  0.0261  0.7651 -0.5896
  109CHL1  H27A14324   1.803   0.965  14.772 -1.1519 -0.5637  0.7104
  109CHL1  H27B14325   1.933   0.871  14.687  1.5757  0.9423 -0.0547
  109CHL1  H27C14326   1.845   0.815  14.836  0.2598  1.0023  0.0618
  110CHL1    C314327   3.578   5.485  17.062 -0.0778 -0.1665  0.3747
  110CHL1    H314328   3.682   5.451  17.041 -0.2749  1.1236 -3.3179
  110CHL1    O314329   3.567   5.535  17.190 -0.6185  0.3405 -0.3433
  110CHL1   H3'14330   3.556   5.629  17.177  0.4456  0.5375  0.0661
  110CHL1    C414331   3.546   5.596  16.961  0.0858 -0.0165 -1.0803
  110CHL1   H4A14332   3.444   5.633  16.986  0.0400  0.7363 -2.3165
  110CHL1   H4B14333   3.606   5.687  16.980 -2.8738  1.8158  0.2784
  110CHL1    C514334   3.548   5.557  16.817 -0.6229 -0.2385  0.3921
  110CHL1    C614335   3.626   5.624  16.733 -0.3172 -1.0154 -0.4638
  110CHL1    H614336   3.676   5.711  16.778 -0.2705 -1.2236 -0.1011
  110CHL1    C714337   3.638   5.592  16.590 -0.3698 -0.0323  0.1157
  110CHL1   H7A14338   3.629   5.689  16.536 -1.7492  1.0398  2.1449
  110CHL1   H7B14339   3.738   5.556  16.558 -0.1719 -0.8912  1.6335
  110CHL1    C814340   3.524   5.502  16.536 -0.1069 -0.7617 -0.3100
  110CHL1    H814341   3.429   5.560  16.534  0.1800 -0.0433  2.4299
  110CHL1   C1414342   3.563   5.444  16.404  0.3418 -0.0825  0.0003
  110CHL1   H1414343   3.650   5.379  16.428  0.0325  0.1187  1.7434
  110CHL1   C1514344   3.597   5.551  16.291 -1.0827  1.0033 -0.1293
  110CHL1  H15A14345   3.536   5.643  16.300 -0.6150  1.1496  1.8924
  110CHL1  H15B14346   3.701   5.589  16.301 -1.7846  2.7890  0.9003
  110CHL1   C1614347   3.574   5.475  16.156  0.1652  0.2898  0.3067
  110CHL1  H16A14348   3.496   5.524  16.094 -0.5275 -1.5946 -0.3920
  110CHL1  H16B14349   3.661   5.474  16.086 -1.6948  2.1877 -2.2130
  110CHL1   C1714350   3.519   5.334  16.194  0.6086 -0.4360  0.1113
  110CHL1   H1714351   3.609   5.270  16.210  1.0174  0.5492  1.9175
  110CHL1   C1314352   3.461   5.349  16.339 -0.4602 -0.2723 -0.4372
  110CHL1   C1814353   3.324   5.415  16.325  0.6447 -0.9262  0.2570
  110CHL1  H18A14354   3.244   5.343  16.296 -1.6372  0.5507  2.4204
  110CHL1  H18B14355   3.287   5.448  16.424 -0.5379  1.0785 -0.7936
  110CHL1  H18C14356   3.314   5.498  16.252 -0.8731 -0.1076  1.3365
  110CHL1   C1214357   3.448   5.229  16.436  0.3161  0.6381  0.1122
  110CHL1  H12A14358   3.370   5.167  16.387  1.0359 -1.4426  1.4531
  110CHL1  H12B14359   3.543   5.171  16.430  1.0557  1.8340 -0.1674
  110CHL1   C1114360   3.410   5.277  16.579 -0.5278  0.2570 -0.0952
  110CHL1  H11A14361   3.302   5.303  16.583 -0.7190 -0.4602 -0.4394
  110CHL1  H11B14362   3.417   5.184  16.640 -0.0186 -0.0353 -0.5876
  110CHL1    C914363   3.503   5.384  16.640 -0.3357 -0.0756 -0.3975
  110CHL1    H914364   3.604   5.338  16.646 -0.5182 -0.4777 -0.3586
  110CHL1   C1014365   3.474   5.435  16.781  0.0641  0.3642  0.1109
  110CHL1   C1914366   3.321   5.459  16.796  0.8587 -0.4234  0.0054
  110CHL1  H19A14367   3.265   5.363  16.787 -0.3124 -0.0661  2.6646
  110CHL1  H19B14368   3.296   5.503  16.895  0.3262  0.9193 -0.7003
  110CHL1  H19C14369   3.286   5.524  16.713 -0.9027 -2.0247 -0.5680
  110CHL1    C114370   3.503   5.322  16.883 -0.1141  0.7390  0.4308
  110CHL1   H1A14371   3.419   5.251  16.866 -0.6067  1.7211 -1.5341
  110CHL1   H1B14372   3.601   5.273  16.867 -0.6327  0.1500 -1.1707
  110CHL1    C214373   3.488   5.372  17.031  0.0636  0.9009 -0.1326
  110CHL1   H2A14374   3.512   5.289  17.100 -0.7481  1.6783  1.1203
  110CHL1   H2B14375   3.382   5.394  17.057  0.0340 -0.9091  1.4532
  110CHL1   C2014376   3.429   5.271  16.079 -0.8486  0.5986 -0.2393
  110CHL1   H2014377   3.345   5.341  16.060  0.6030  2.1525 -1.1278
  110CHL1   C2114378   3.374   5.130  16.120 -0.9220 -0.4454  0.4142
  110CHL1  H21A14379   3.298   5.136  16.201 -3.8882 -0.2779 -2.1752
  110CHL1  H21B14380   3.455   5.056  16.135  0.8790  0.8025 -2.4742
  110CHL1  H21C14381   3.318   5.085  16.035 -0.9190  0.7384 -0.2423
  110CHL1   C2214382   3.512   5.265  15.957  0.6428  0.5538  0.5339
  110CHL1  H22A14383   3.564   5.355  15.918  1.3039 -0.4480 -1.0218
  110CHL1  H22B14384   3.582   5.179  15.966 -1.2443 -1.1728 -0.5186
  110CHL1   C2314385   3.430   5.233  15.830 -0.2747  0.0880 -0.0589
  110CHL1  H23A14386   3.373   5.138  15.839 -0.8847  0.5114  0.6339
  110CHL1  H23B14387   3.348   5.306  15.815  0.7938  1.2151 -0.5348
  110CHL1   C2414388   3.529   5.225  15.710  0.1582 -0.3032 -0.4270
  110CHL1  H24A14389   3.575   5.325  15.696  1.4186 -0.8161 -0.0439
  110CHL1  H24B14390   3.616   5.158  15.726  2.2498  2.3722  0.1025
  110CHL1   C2514391   3.470   5.185  15.570 -0.1250  0.2593 -0.2171
  110CHL1   H2514392   3.407   5.268  15.532 -0.6963 -0.1328 -0.1471
  110CHL1   C2614393   3.577   5.174  15.463  0.4710  0.1573  0.4700
  110CHL1  H26A14394   3.602   5.277  15.431 -1.5338  0.8926  1.1090
  110CHL1  H26B14395   3.661   5.112  15.501 -1.3351 -3.6082 -1.1261
  110CHL1  H26C14396   3.534   5.130  15.370  0.2935  0.7158  0.2844
  110CHL1   C2714397   3.394   5.054  15.564 -0.2144  0.0470 -0.1872
  110CHL1  H27A14398   3.305   5.051  15.631  1.0827  1.9183  1.7824
  110CHL1  H27B14399   3.366   5.043  15.457 -2.2778  0.2764  0.2841
  110CHL1  H27C14400   3.453   4.966  15.595 -3.1165 -2.2392 -0.6889
  111CHL1    C314401   5.399   0.304  16.463 -0.5191  0.1173  0.0323
  111CHL1    H314402   5.497   0.320  16.413 -0.2185  0.9668  0.8597
  111CHL1    O314403   5.413   0.333  16.604  0.2370 -0.4739  0.3311
  111CHL1   H3'14404   5.362   0.264  16.646 -0.8992 -0.2576 -0.6493
  111CHL1    C414405   5.283   0.392  16.402 -0.3351 -0.5600 -0.2516
  111CHL1   H4A14406   5.185   0.375  16.450 -0.7000 -0.0163 -0.7891
  111CHL1   H4B14407   5.308   0.499  16.413  2.2601 -0.8503 -2.2579
  111CHL1    C514408   5.270   0.365  16.253  0.3542  0.1095  0.5280
  111CHL1    C614409   5.280   0.467  16.169 -0.1919 -0.1435 -0.0022
  111CHL1    H614410   5.310   0.565  16.208  1.9042 -0.5296 -0.5250
  111CHL1    C714411   5.276   0.455  16.023 -0.0323 -0.5871  0.4903
  111CHL1   H7A14412   5.226   0.541  15.974  1.6380  1.0508  1.4996
  111CHL1   H7B14413   5.378   0.460  15.978 -1.0605  3.5994 -1.9287
  111CHL1    C814414   5.208   0.329  15.974 -0.0597  0.5329  0.1057
  111CHL1    H814415   5.097   0.335  15.975 -0.1868 -1.2692  0.8641
  111CHL1   C1414416   5.261   0.301  15.830 -0.0154  0.0785  0.4026
  111CHL1   H1414417   5.370   0.288  15.843  0.4492  0.7003 -2.2945
  111CHL1   C1514418   5.242   0.408  15.721  0.2520 -0.1960  0.0975
  111CHL1  H15A14419   5.146   0.463  15.731  0.2455 -0.1584 -0.1612
  111CHL1  H15B14420   5.323   0.483  15.713  0.6983 -0.5331  1.2942
  111CHL1   C1614421   5.234   0.332  15.586  0.3427 -0.7649 -0.1289
  111CHL1  H16A14422   5.139   0.359  15.534  0.8380  1.9611  0.2416
  111CHL1  H16B14423   5.312   0.377  15.520 -0.8106  1.5179 -0.0558
  111CHL1   C1714424   5.249   0.181  15.619  0.3092 -0.4061  0.4816
  111CHL1   H1714425   5.357   0.158  15.617 -0.1087 -2.5098 -0.6119
  111CHL1   C1314426   5.198   0.174  15.769  0.5490 -0.6720 -1.0928
  111CHL1   C1814427   5.043   0.170  15.769 -0.3626  1.2162 -0.0520
  111CHL1  H18A14428   5.005   0.267  15.730 -1.0887  0.4571 -1.3063
  111CHL1  H18B14429   4.995   0.080  15.725  0.4853  0.6060  0.2329
  111CHL1  H18C14430   5.003   0.168  15.873 -1.0678 -0.8296 -0.3147
  111CHL1   C1214431   5.249   0.050  15.854  0.3308 -0.2000  0.4586
  111CHL1  H12A14432   5.198  -0.035  15.805 -3.1406  0.6774  2.2309
  111CHL1  H12B14433   5.359   0.050  15.842  0.6613 -2.1077  2.8083
  111CHL1   C1114434   5.212   0.069  15.997 -0.1626 -0.3794 -0.5528
  111CHL1  H11A14435   5.103   0.074  16.013 -0.1022  0.2355 -0.2808
  111CHL1  H11B14436   5.254  -0.012  16.060 -0.1387  0.2352  0.2393
  111CHL1    C914437   5.259   0.205  16.058  0.2908 -0.0169 -0.5564
  111CHL1    H914438   5.369   0.207  16.040  0.4715 -0.0382  0.5093
  111CHL1   C1014439   5.243   0.219  16.218 -0.1592 -1.1222 -0.0145
  111CHL1   C1914440   5.107   0.178  16.254 -0.3472 -0.8665  0.5075
  111CHL1  H19A14441   5.099   0.068  16.241  0.3881 -0.6841 -2.1648
  111CHL1  H19B14442   5.066   0.212  16.351 -2.2221 -1.5579  0.0050
  111CHL1  H19C14443   5.034   0.225  16.184 -0.8597  0.5956  1.9826
  111CHL1    C114444   5.344   0.126  16.292  0.0929 -0.3792  0.8518
  111CHL1   H1A14445   5.315   0.019  16.288 -1.5640  0.0269  1.1043
  111CHL1   H1B14446   5.447   0.142  16.255 -0.3757 -0.8993 -0.7361
  111CHL1    C214447   5.366   0.157  16.442 -0.0752  0.0274  0.0729
  111CHL1   H2A14448   5.449   0.089  16.469 -0.4334 -0.5256 -0.1681
  111CHL1   H2B14449   5.274   0.134  16.501 -0.5309 -0.8147 -0.9228
  111CHL1   C2014450   5.189   0.090  15.505 -0.5500  0.5431  0.0270
  111CHL1   H2014451   5.082   0.119  15.496 -0.1447  2.4682  0.7514
  111CHL1   C2114452   5.212  -0.058  15.547  0.1550 -0.2529  0.1119
  111CHL1  H21A14453   5.320  -0.059  15.572  0.1380 -1.2841  0.1956
  111CHL1  H21B14454   5.210  -0.125  15.458 -3.0406  1.0545 -0.9410
  111CHL1  H21C14455   5.163  -0.103  15.636  2.7087 -0.3448  1.5525
  111CHL1   C2214456   5.267   0.114  15.374 -0.4902 -0.3505  0.6171
  111CHL1  H22A14457   5.298   0.220  15.366 -3.5527  0.6916  1.1488
  111CHL1  H22B14458   5.359   0.052  15.371  0.9383  1.7346 -0.5428
  111CHL1   C2314459   5.185   0.087  15.241  0.1995 -0.0033  0.7371
  111CHL1  H23A14460   5.141  -0.015  15.249  1.0552 -0.4366  0.0923
  111CHL1  H23B14461   5.103   0.161  15.237  0.0454 -0.2254 -1.1084
  111CHL1   C2414462   5.271   0.098  15.109 -0.1219 -0.2155 -0.9757
  111CHL1  H24A14463   5.327   0.192  15.088 -3.0606  1.6051 -1.2310
  111CHL1  H24B14464   5.341   0.013  15.125 -0.2576 -0.3627 -1.1558
  111CHL1   C2514465   5.193   0.072  14.980 -0.0921  0.0855 -0.3103
  111CHL1   H2514466   5.094   0.122  14.972 -0.1822 -0.0952 -0.3239
  111CHL1   C2614467   5.266   0.124  14.861  0.2947  0.1559  0.7364
  111CHL1  H26A14468   5.375   0.142  14.859  0.5993 -1.4838 -1.7041
  111CHL1  H26B14469   5.244   0.067  14.768 -1.9038 -0.2468  1.4278
  111CHL1  H26C14470   5.226   0.227  14.844 -1.2849 -0.5479 -0.0265
  111CHL1   C2714471   5.170  -0.081  14.962  0.2816 -0.0300  1.0666
  111CHL1  H27A14472   5.118  -0.084  14.864  0.3257 -0.0192  1.0432
  111CHL1  H27B14473   5.269  -0.131  14.955 -0.1115 -0.6094 -0.8945
  111CHL1  H27C14474   5.107  -0.120  15.045 -2.4690 -0.3327 -1.0193
  112CHL1    C314475   0.263   1.277  16.662 -0.0262  0.7478  0.1575
  112CHL1    H314476   0.156   1.306  16.674 -0.2247  0.6850 -1.2949
  112CHL1    O314477   0.322   1.251  16.791  0.1450 -0.2715  0.2255
  112CHL1   H3'14478   0.392   1.186  16.775 -0.0433 -0.3506 -0.3141
  112CHL1    C414479   0.289   1.153  16.575 -0.0132 -0.8036 -0.6848
  112CHL1   H4A14480   0.399   1.138  16.584 -0.4494 -3.3842  2.1636
  112CHL1   H4B14481   0.232   1.069  16.620 -2.3085  1.3562  0.6614
  112CHL1    C514482   0.249   1.177  16.430  0.4966  0.1712  0.1090
  112CHL1    C614483   0.163   1.102  16.371 -0.1446  0.4194  0.0416
  112CHL1    H614484   0.130   1.017  16.431 -4.0980  1.1721 -0.7470
  112CHL1    C714485   0.106   1.120  16.231 -0.4159  0.4547  0.3653
  112CHL1   H7A14486   0.092   1.020  16.185  1.4243  0.6227 -0.6725
  112CHL1   H7B14487   0.006   1.168  16.230 -1.1339 -0.9758  0.9774
  112CHL1    C814488   0.207   1.203  16.154  1.0157 -0.2369 -0.0025
  112CHL1    H814489   0.299   1.144  16.133 -0.3332 -2.4886  0.1516
  112CHL1   C1414490   0.134   1.246  16.031  0.3849  0.1853  0.1184
  112CHL1   H1414491   0.047   1.311  16.054  0.1849  0.1809 -0.6128
  112CHL1   C1514492   0.068   1.134  15.948  0.3097  0.3053  0.4903
  112CHL1  H15A14493   0.132   1.043  15.954 -0.7831 -0.7295 -2.1983
  112CHL1  H15B14494  -0.034   1.106  15.983  0.0836 -0.8078 -0.9643
  112CHL1   C1614495   0.062   1.193  15.804  0.1976 -0.4881 -0.9350
  112CHL1  H16A14496   0.120   1.120  15.744  0.5994 -0.2792 -0.8026
  112CHL1  H16B14497  -0.039   1.203  15.760  0.4227  0.9507 -1.1849
  112CHL1   C1714498   0.125   1.334  15.806 -0.4597  0.5596  0.0679
  112CHL1   H1714499   0.051   1.410  15.841  0.3872  0.3692  2.5289
  112CHL1   C1314500   0.216   1.333  15.931 -0.9192 -0.1744 -0.5314
  112CHL1   C1814501   0.346   1.257  15.889  0.2513 -0.9635  0.2051
  112CHL1  H18A14502   0.327   1.149  15.871 -1.9141 -0.3428 -1.6343
  112CHL1  H18B14503   0.399   1.293  15.798  3.2498  1.3175  2.6104
  112CHL1  H18C14504   0.417   1.255  15.975  2.2994  0.9900 -1.3309
  112CHL1   C1214505   0.243   1.466  16.006 -0.1763  0.0447  0.1807
  112CHL1  H12A14506   0.311   1.529  15.946  1.2386 -0.9961  0.6398
  112CHL1  H12B14507   0.147   1.520  16.021 -0.3629 -0.2195 -0.0327
  112CHL1   C1114508   0.309   1.439  16.142 -0.0050 -0.9399 -0.0672
  112CHL1  H11A14509   0.414   1.405  16.124  0.0493 -0.8228  0.0245
  112CHL1  H11B14510   0.305   1.538  16.192 -1.9684 -1.0129 -0.0001
  112CHL1    C914511   0.237   1.331  16.229  0.6566 -0.5711  0.7046
  112CHL1    H914512   0.138   1.377  16.249  0.7213 -0.2040  0.2231
  112CHL1   C1014513   0.307   1.306  16.364  0.5706 -0.1591 -0.2787
  112CHL1   C1914514   0.452   1.264  16.330  0.8835  0.2410 -0.2497
  112CHL1  H19A14515   0.507   1.242  16.424 -0.5044  0.2506  0.5919
  112CHL1  H19B14516   0.461   1.179  16.259  0.6499  0.2148 -0.2489
  112CHL1  H19C14517   0.516   1.341  16.282  1.1184 -0.2735 -0.7735
  112CHL1    C114518   0.289   1.431  16.464  0.1942 -0.0797  0.0968
  112CHL1   H1A14519   0.348   1.521  16.436  0.8118 -0.7960 -1.0145
  112CHL1   H1B14520   0.181   1.456  16.468  0.4353  1.9175 -2.7988
  112CHL1    C214521   0.335   1.395  16.606  0.1062 -0.2999 -0.0781
  112CHL1   H2A14522   0.301   1.487  16.658 -2.6003 -0.9902 -0.4406
  112CHL1   H2B14523   0.445   1.388  16.619  0.4611 -0.2959 -2.5356
  112CHL1   C2014524   0.169   1.387  15.668 -0.5229 -0.3176  0.4769
  112CHL1   H2014525   0.263   1.335  15.641  0.4112  0.5827  1.8334
  112CHL1   C2114526   0.210   1.538  15.672  0.1112 -0.5114 -0.5515
  112CHL1  H21A14527   0.244   1.583  15.576 -0.0451  0.6859 -0.0573
  112CHL1  H21B14528   0.294   1.557  15.742  1.1334  4.2525 -2.6984
  112CHL1  H21C14529   0.126   1.601  15.708  0.9066  1.8614 -2.5493
  112CHL1   C2214530   0.072   1.348  15.542  0.1745 -0.0941  0.1366
  112CHL1  H22A14531   0.043   1.242  15.558 -1.1870  0.0991 -0.9000
  112CHL1  H22B14532  -0.010   1.422  15.549  1.2020  1.1375 -0.4786
  112CHL1   C2314533   0.138   1.364  15.400 -0.0614  0.6158  0.1007
  112CHL1  H23A14534   0.161   1.470  15.379 -0.1352  0.1297 -2.9077
  112CHL1  H23B14535   0.230   1.301  15.398 -0.3982  0.1128  0.2780
  112CHL1   C2414536   0.030   1.340  15.293 -0.3286  0.3251 -0.7458
  112CHL1  H24A14537  -0.011   1.238  15.311 -0.7261  0.6242  0.0874
  112CHL1  H24B14538  -0.050   1.415  15.312  2.4010  3.3618 -0.5296
  112CHL1   C2514539   0.090   1.343  15.158  0.0147 -0.0493 -0.0268
  112CHL1   H2514540   0.138   1.443  15.149  0.8414 -0.2740  1.5468
  112CHL1   C2614541   0.194   1.225  15.150 -0.8615 -0.2314 -0.4310
  112CHL1  H26A14542   0.146   1.131  15.185 -2.6469  1.0904  0.8386
  112CHL1  H26B14543   0.232   1.204  15.047  1.4487 -0.0860  0.3287
  112CHL1  H26C14544   0.288   1.247  15.206 -1.5737  2.4366 -0.1499
  112CHL1   C2714545  -0.013   1.340  15.042  0.3914  0.1443  0.0622
  112CHL1  H27A14546  -0.074   1.432  15.050 -0.6671 -0.6859  2.4549
  112CHL1  H27B14547   0.038   1.341  14.943 -1.1509 -0.3915 -0.7802
  112CHL1  H27C14548  -0.090   1.260  15.052 -0.6935  1.3637  1.9270
  113CHL1    C314549   3.172   4.723  16.825 -0.0282 -0.7448  0.6202
  113CHL1    H314550   3.104   4.811  16.816  0.1693 -0.4790  1.5884
  113CHL1    O314551   3.182   4.704  16.964 -0.3716 -0.3209  0.3391
  113CHL1   H3'14552   3.246   4.638  16.991  0.4907  0.1772 -0.4670
  113CHL1    C414553   3.100   4.598  16.775  0.0110  0.4099  0.8381
  113CHL1   H4A14554   3.161   4.507  16.796  0.2720  0.0034 -1.4126
  113CHL1   H4B14555   3.007   4.577  16.832  0.9941  0.0694  2.3709
  113CHL1    C514556   3.074   4.607  16.628 -0.3633  0.0989  0.0262
  113CHL1    C614557   2.951   4.586  16.575  0.2554 -0.6621 -0.1658
  113CHL1    H614558   2.860   4.559  16.631  0.2183 -2.8351 -1.1808
  113CHL1    C714559   2.918   4.615  16.435  0.6570  0.4304  0.1943
  113CHL1   H7A14560   2.851   4.531  16.409  0.7325 -0.2305  1.9792
  113CHL1   H7B14561   2.854   4.706  16.441  0.1180  0.0140  0.9634
  113CHL1    C814562   3.036   4.617  16.335 -0.0535  0.1621  0.6504
  113CHL1    H814563   3.077   4.515  16.317 -1.4655  0.1305 -3.4620
  113CHL1   C1414564   3.005   4.681  16.208 -0.1214  0.3337  0.1177
  113CHL1   H1414565   2.989   4.788  16.232  0.5088  0.2882  0.7741
  113CHL1   C1514566   2.872   4.632  16.142 -0.1087  0.1338 -0.1971
  113CHL1  H15A14567   2.860   4.523  16.161 -1.6283  0.4620  0.9775
  113CHL1  H15B14568   2.780   4.679  16.184 -0.5621  0.0345 -1.0446
  113CHL1   C1614569   2.890   4.676  15.995 -0.3577  0.4609 -0.3317
  113CHL1  H16A14570   2.875   4.587  15.929  0.0268  0.0701  0.1091
  113CHL1  H16B14571   2.809   4.751  15.980  0.2410  1.8461  2.7995
  113CHL1   C1714572   3.034   4.742  15.984 -0.5013  0.0572 -0.2534
  113CHL1   H1714573   3.015   4.849  16.005 -0.9717 -0.3326  1.5731
  113CHL1   C1314574   3.113   4.682  16.101  0.1525 -0.2861  0.7189
  113CHL1   C1814575   3.161   4.540  16.056 -0.3378  0.7136  0.4484
  113CHL1  H18A14576   3.238   4.557  15.978 -0.9256 -0.7058 -0.4723
  113CHL1  H18B14577   3.211   4.492  16.143 -1.6568  0.7676  1.2766
  113CHL1  H18C14578   3.078   4.480  16.013  1.1696 -0.4873 -0.8387
  113CHL1   C1214579   3.216   4.781  16.163  0.1816  0.1919 -0.0513
  113CHL1  H12A14580   3.304   4.793  16.096 -0.4971  1.0154 -0.8242
  113CHL1  H12B14581   3.176   4.885  16.169  0.5809  0.3148  0.6053
  113CHL1   C1114582   3.264   4.728  16.299  1.5465 -0.8088 -0.3114
  113CHL1  H11A14583   3.317   4.633  16.277  5.0039  0.4067  1.9008
  113CHL1  H11B14584   3.334   4.808  16.331  1.2833 -0.0706 -1.5248
  113CHL1    C914585   3.146   4.704  16.403 -0.4002  0.0240 -0.9055
  113CHL1    H914586   3.099   4.802  16.425  2.4030  1.0964  0.9196
  113CHL1   C1014587   3.194   4.654  16.539 -0.2382 -0.7244  0.1416
  113CHL1   C1914588   3.281   4.535  16.524 -0.0181  0.2539  0.1833
  113CHL1  H19A14589   3.232   4.454  16.465  0.8930  0.6838 -1.2141
  113CHL1  H19B14590   3.370   4.546  16.459  0.4647 -2.0963  0.3540
  113CHL1  H19C14591   3.314   4.494  16.622 -0.1011  0.9005  0.4836
  113CHL1    C114592   3.280   4.764  16.607  0.3942 -0.0999 -0.8011
  113CHL1   H1A14593   3.370   4.788  16.545  0.4542  1.3823 -0.1832
  113CHL1   H1B14594   3.219   4.857  16.604 -0.5092 -0.6635 -0.3840
  113CHL1    C214595   3.304   4.744  16.755  0.3789  0.1395  0.0127
  113CHL1   H2A14596   3.349   4.838  16.793 -0.1372 -0.0021  1.0060
  113CHL1   H2B14597   3.373   4.662  16.783 -1.3064 -0.6501  2.1749
  113CHL1   C2014598   3.083   4.734  15.841  0.1110 -0.1134 -0.0055
  113CHL1   H2014599   3.102   4.628  15.816  2.2403  0.0533  0.6833
  113CHL1   C2114600   3.213   4.828  15.834  0.3358  0.2975  0.1469
  113CHL1  H21A14601   3.245   4.847  15.729  1.0451  0.0494  0.3075
  113CHL1  H21B14602   3.299   4.783  15.888  0.8703  0.3390 -0.6465
  113CHL1  H21C14603   3.198   4.929  15.878  1.2294  0.2564  0.5799
  113CHL1   C2214604   2.975   4.790  15.744  0.1067  0.6498 -0.2191
  113CHL1  H22A14605   2.883   4.728  15.749  1.2223 -0.9609  1.4146
  113CHL1  H22B14606   2.952   4.895  15.774 -2.2344  0.7301 -1.9974
  113CHL1   C2314607   3.025   4.790  15.598  0.3585  0.5543 -0.1676
  113CHL1  H23A14608   3.101   4.871  15.599 -1.7927  2.7727 -2.0502
  113CHL1  H23B14609   3.077   4.694  15.578  0.3999  0.3929  0.6863
  113CHL1   C2414610   2.916   4.821  15.501 -0.2337  0.2319  0.0212
  113CHL1  H24A14611   2.838   4.743  15.510  1.4628 -1.3739  1.8366
  113CHL1  H24B14612   2.862   4.915  15.525  0.3522  0.9496 -1.2956
  113CHL1   C2514613   2.957   4.844  15.354  0.4378 -0.4201 -0.2503
  113CHL1   H2514614   3.033   4.925  15.346 -0.1387  0.0284 -1.2904
  113CHL1   C2614615   3.024   4.715  15.300  0.0100  0.1315  0.1207
  113CHL1  H26A14616   3.055   4.717  15.194 -0.4688 -0.2555 -0.0285
  113CHL1  H26B14617   3.107   4.686  15.368 -0.7106 -3.2979 -0.3328
  113CHL1  H26C14618   2.953   4.631  15.312 -1.4868  1.3645  0.3323
  113CHL1   C2714619   2.831   4.875  15.267 -0.5836 -0.1986  0.6389
  113CHL1  H27A14620   2.775   4.965  15.301  1.3719  0.4099  2.5015
  113CHL1  H27B14621   2.866   4.895  15.164  0.3711  1.8103  1.2968
  113CHL1  H27C14622   2.765   4.786  15.275 -1.1304  0.2069  0.6992
  114CHL1    C314623   6.329   6.370  16.526 -0.3521 -0.3155  0.2722
  114CHL1    H314624   6.357   6.262  16.532 -2.9106 -1.1516 -1.1887
  114CHL1    O314625   6.310   6.424  16.657  0.4374 -0.4678  0.2025
  114CHL1   H3'14626   6.214   6.421  16.663  0.2277  0.1796 -1.9909
  114CHL1    C414627   6.443   6.441  16.453  0.3956  0.2708 -0.1679
  114CHL1   H4A14628   6.416   6.549  16.450 -0.7072  0.0366  0.5129
  114CHL1   H4B14629   6.541   6.435  16.505  0.0457 -1.4098  0.3465
  114CHL1    C514630   6.451   6.398  16.308 -0.5379  0.3426  0.7471
  114CHL1    C614631   6.565   6.341  16.268 -0.6517  0.1819 -0.0040
  114CHL1    H614632   6.646   6.319  16.339 -0.2756 -2.8917 -1.2286
  114CHL1    C714633   6.589   6.296  16.128 -0.1926  0.2854 -0.4541
  114CHL1   H7A14634   6.692   6.318  16.095  0.9865 -2.5849  0.9892
  114CHL1   H7B14635   6.579   6.185  16.123 -0.9324  0.3754 -1.1330
  114CHL1    C814636   6.486   6.358  16.039 -0.0553  0.2001  0.1466
  114CHL1    H814637   6.510   6.467  16.029  0.3973  0.2374  1.4183
  114CHL1   C1414638   6.487   6.285  15.902 -0.1367  0.4512  0.1505
  114CHL1   H1414639   6.438   6.186  15.914  0.9103  0.0706  1.6271
  114CHL1   C1514640   6.627   6.257  15.838 -0.2032 -0.0460 -0.1258
  114CHL1  H15A14641   6.686   6.351  15.839 -1.2356  0.6320 -0.5119
  114CHL1  H15B14642   6.692   6.182  15.888  0.8818  1.4530  0.8101
  114CHL1   C1614643   6.595   6.202  15.703  1.3634 -0.4567 -0.1576
  114CHL1  H16A14644   6.673   6.251  15.640  1.3143 -1.0295 -0.6746
  114CHL1  H16B14645   6.604   6.091  15.703  0.7468 -0.5357  1.5302
  114CHL1   C1714646   6.443   6.247  15.674 -0.4219 -0.2509  0.2563
  114CHL1   H1714647   6.380   6.158  15.688 -0.6623 -0.4480 -1.8504
  114CHL1   C1314648   6.407   6.347  15.790 -0.1389 -0.1595 -0.0426
  114CHL1   C1814649   6.460   6.488  15.752  0.1533 -0.4784  0.2033
  114CHL1  H18A14650   6.453   6.556  15.839  0.3735 -0.1968  0.0034
  114CHL1  H18B14651   6.559   6.487  15.702 -0.2487  1.1150 -0.7187
  114CHL1  H18C14652   6.390   6.532  15.677  1.1715 -0.4170 -0.7518
  114CHL1   C1214653   6.259   6.346  15.839 -0.3622 -0.6491  0.1410
  114CHL1  H12A14654   6.194   6.403  15.770 -0.5373  0.5370  1.2447
  114CHL1  H12B14655   6.230   6.239  15.842 -0.7735 -0.5249  1.2800
  114CHL1   C1114656   6.250   6.410  15.979 -0.3652  0.2828  0.2605
  114CHL1  H11A14657   6.274   6.518  15.972  0.2887  0.1575  0.4163
  114CHL1  H11B14658   6.149   6.400  16.023  0.3966 -1.2334  1.7885
  114CHL1    C914659   6.338   6.342  16.086 -0.5013  0.2383  0.4701
  114CHL1    H914660   6.322   6.233  16.091  1.7124 -0.2378 -1.5000
  114CHL1   C1014661   6.320   6.410  16.221  0.4077 -0.4129 -0.7677
  114CHL1   C1914662   6.275   6.557  16.213 -0.3594  0.2911  0.3876
  114CHL1  H19A14663   6.365   6.601  16.166  0.1112 -0.8492  0.2048
  114CHL1  H19B14664   6.180   6.578  16.159 -0.2719  0.1718  0.1855
  114CHL1  H19C14665   6.262   6.603  16.314 -0.6863  1.1659 -0.0419
  114CHL1    C114666   6.209   6.337  16.304 -0.5136  0.1750 -0.8512
  114CHL1   H1A14667   6.112   6.353  16.251 -0.2513  0.6510 -1.1975
  114CHL1   H1B14668   6.233   6.229  16.315  1.6422  0.6756 -0.1865
  114CHL1    C214669   6.199   6.384  16.455  0.5706 -0.2584 -0.3413
  114CHL1   H2A14670   6.129   6.323  16.516  1.6457 -1.2611 -0.0787
  114CHL1   H2B14671   6.168   6.491  16.459  0.9577 -0.1559  0.0603
  114CHL1   C2014672   6.412   6.272  15.520  0.2925 -0.5823 -0.3549
  114CHL1   H2014673   6.480   6.356  15.492  0.8588 -1.4253 -1.6380
  114CHL1   C2114674   6.274   6.334  15.488  1.0960  0.8576  0.0754
  114CHL1  H21A14675   6.270   6.431  15.541 -2.6816  1.7075 -1.4235
  114CHL1  H21B14676   6.192   6.271  15.529  2.0878 -1.4938 -1.3751
  114CHL1  H21C14677   6.267   6.345  15.377  3.6466 -0.2655 -0.2745
  114CHL1   C2214678   6.432   6.144  15.439 -0.6685  0.6731  0.0983
  114CHL1  H22A14679   6.529   6.096  15.461 -0.3653  0.5848 -1.3085
  114CHL1  H22B14680   6.356   6.070  15.473  3.5115 -2.8889  2.6488
  114CHL1   C2314681   6.432   6.158  15.286 -0.2324 -0.0842  0.3393
  114CHL1  H23A14682   6.329   6.152  15.245  0.1121 -2.1784 -0.3509
  114CHL1  H23B14683   6.477   6.259  15.273 -2.4870  0.9331 -0.0431
  114CHL1   C2414684   6.508   6.042  15.218 -0.6603 -0.3288  0.2410
  114CHL1  H24A14685   6.498   6.057  15.108 -0.9189 -0.9833  0.1661
  114CHL1  H24B14686   6.609   6.032  15.263 -0.3433  1.2314 -0.0901
  114CHL1   C2514687   6.456   5.900  15.243 -0.2404  0.4328  0.0962
  114CHL1   H2514688   6.493   5.864  15.342  0.9761  1.6218  0.0970
  114CHL1   C2614689   6.300   5.889  15.229 -0.0400  0.6162  0.2074
  114CHL1  H26A14690   6.260   5.790  15.262 -1.4404  0.8373 -0.7485
  114CHL1  H26B14691   6.249   5.958  15.299 -2.4193  2.0173 -2.6968
  114CHL1  H26C14692   6.255   5.919  15.132  1.4377  0.4884 -0.5399
  114CHL1   C2714693   6.528   5.813  15.140  0.6033 -0.1000 -0.2921
  114CHL1  H27A14694   6.489   5.710  15.155  1.4182 -0.2378  1.0423
  114CHL1  H27B14695   6.504   5.842  15.035 -1.2313  1.3542  0.4717
  114CHL1  H27C14696   6.638   5.816  15.154  0.5087  0.6619  0.3555
  115CHL1    C314697   4.791   0.337  16.619  0.2881  0.4985 -0.2691
  115CHL1    H314698   4.874   0.265  16.608 -0.8673 -0.9249  0.0052
  115CHL1    O314699   4.778   0.366  16.764 -0.0927  0.0817 -0.0980
  115CHL1   H3'14700   4.790   0.460  16.779 -2.0445  0.2140  0.8573
  115CHL1    C414701   4.792   0.470  16.553 -0.8348  0.0679 -0.1824
  115CHL1   H4A14702   4.705   0.537  16.569 -0.6542 -0.1471  1.9669
  115CHL1   H4B14703   4.885   0.519  16.589 -1.2528  0.8579 -0.1621
  115CHL1    C514704   4.791   0.456  16.401 -0.2704  0.0768  0.6361
  115CHL1    C614705   4.879   0.519  16.325  0.1308  0.0083 -0.0679
  115CHL1    H614706   4.965   0.575  16.365  1.8596 -1.4802 -1.5320
  115CHL1    C714707   4.879   0.516  16.177  0.5932 -0.0129  0.4352
  115CHL1   H7A14708   4.916   0.614  16.139  3.1021 -1.2076 -0.4270
  115CHL1   H7B14709   4.965   0.455  16.142  0.5879  0.5340 -0.5469
  115CHL1    C814710   4.744   0.464  16.116 -0.6278 -0.3925  0.2574
  115CHL1    H814711   4.678   0.553  16.115 -1.1033 -0.7045 -2.4793
  115CHL1   C1414712   4.765   0.420  15.968 -0.0011 -0.1578  0.0306
  115CHL1   H1414713   4.839   0.337  15.967  0.2709  0.0846 -0.7765
  115CHL1   C1514714   4.829   0.517  15.865  0.0026 -0.2989  0.0957
  115CHL1  H15A14715   4.790   0.618  15.888  1.2054  0.0413  0.7517
  115CHL1  H15B14716   4.939   0.511  15.881  0.7099 -0.2075 -3.8217
  115CHL1   C1614717   4.794   0.465  15.738  0.0385  0.5413 -0.1522
  115CHL1  H16A14718   4.746   0.551  15.687 -0.9753  0.3641  0.4766
  115CHL1  H16B14719   4.878   0.420  15.680 -2.6973 -2.9044 -1.7852
  115CHL1   C1714720   4.687   0.355  15.753  0.0812  0.1863 -0.7732
  115CHL1   H1714721   4.751   0.264  15.759 -0.1943  0.0449  0.1618
  115CHL1   C1314722   4.637   0.377  15.899 -0.0776  0.5282  0.0734
  115CHL1   C1814723   4.524   0.490  15.892  0.5896 -0.1686  0.3151
  115CHL1  H18A14724   4.434   0.444  15.845  1.0594  0.5528 -1.3832
  115CHL1  H18B14725   4.494   0.525  15.993 -1.9121 -0.0827 -0.3707
  115CHL1  H18C14726   4.546   0.572  15.820  0.4347  0.0748  0.5411
  115CHL1   C1214727   4.586   0.254  15.967  0.1233  0.6284  0.5046
  115CHL1  H12A14728   4.492   0.211  15.927  2.0592 -1.2802 -2.3687
  115CHL1  H12B14729   4.659   0.173  15.943 -0.4730  0.5788 -1.2706
  115CHL1   C1114730   4.573   0.274  16.118 -0.7769 -0.4360 -0.6205
  115CHL1  H11A14731   4.494   0.352  16.129 -1.7814 -1.0219 -2.9081
  115CHL1  H11B14732   4.545   0.185  16.178  0.1389  0.5045  1.2628
  115CHL1    C914733   4.695   0.341  16.194 -0.5344 -0.3974  0.6281
  115CHL1    H914734   4.776   0.265  16.195 -1.4414 -1.4769 -1.6554
  115CHL1   C1014735   4.674   0.372  16.343  0.2341 -0.1052  0.2818
  115CHL1   C1914736   4.541   0.439  16.362 -0.0874 -0.8219  0.0853
  115CHL1  H19A14737   4.526   0.539  16.316  1.6123 -0.5857 -0.0416
  115CHL1  H19B14738   4.462   0.365  16.340  0.3328 -1.2705  0.0550
  115CHL1  H19C14739   4.526   0.456  16.471  1.7861  1.1103  0.1146
  115CHL1    C114740   4.671   0.237  16.421 -0.9993  1.1030  0.1839
  115CHL1   H1A14741   4.589   0.169  16.388 -0.3302  0.8339 -0.9859
  115CHL1   H1B14742   4.766   0.183  16.398 -0.9532  1.5203 -0.6621
  115CHL1    C214743   4.669   0.258  16.572  0.3033 -0.2234 -0.1164
  115CHL1   H2A14744   4.667   0.161  16.624  0.5539  0.1603  0.6230
  115CHL1   H2B14745   4.575   0.310  16.600  1.0439  0.7386  0.6316
  115CHL1   C2014746   4.587   0.328  15.642  0.7779 -0.0243  0.9500
  115CHL1   H2014747   4.480   0.348  15.665 -0.8459 -1.8271 -3.7557
  115CHL1   C2114748   4.583   0.178  15.617  0.3391  0.6929 -0.2605
  115CHL1  H21A14749   4.687   0.147  15.592  1.4832 -0.8281  5.0015
  115CHL1  H21B14750   4.498   0.170  15.546  1.1804  2.4542 -1.5333
  115CHL1  H21C14751   4.561   0.115  15.706  2.1090 -0.0795 -0.3170
  115CHL1   C2214752   4.615   0.399  15.507 -0.3585  0.2712  0.6035
  115CHL1  H22A14753   4.617   0.509  15.525 -0.2803  0.2573  0.6845
  115CHL1  H22B14754   4.713   0.366  15.466 -0.6814  1.5030 -1.2537
  115CHL1   C2314755   4.517   0.364  15.393 -0.0314  0.0976 -0.0596
  115CHL1  H23A14756   4.529   0.259  15.358  2.3598  0.5852 -0.9456
  115CHL1  H23B14757   4.413   0.371  15.429  0.5310 -3.8388  3.0455
  115CHL1   C2414758   4.531   0.459  15.272  0.0129 -0.1697 -0.2854
  115CHL1  H24A14759   4.537   0.565  15.305  0.7603 -0.1048 -0.6215
  115CHL1  H24B14760   4.619   0.431  15.210  0.2988 -0.6697  0.3384
  115CHL1   C2514761   4.413   0.452  15.171 -0.0477 -0.1133 -0.0614
  115CHL1   H2514762   4.323   0.437  15.234 -0.8906  0.4055 -1.1040
  115CHL1   C2614763   4.400   0.576  15.082  0.0928 -0.4815  0.5922
  115CHL1  H26A14764   4.498   0.589  15.031 -0.0162 -2.2165 -0.1197
  115CHL1  H26B14765   4.318   0.567  15.007  0.0339  1.0554  0.4246
  115CHL1  H26C14766   4.383   0.669  15.141  0.2794  0.3806 -0.6580
  115CHL1   C2714767   4.430   0.326  15.079 -0.1119 -0.7798  0.4662
  115CHL1  H27A14768   4.350   0.337  15.003 -0.3770  0.7252  0.9411
  115CHL1  H27B14769   4.535   0.316  15.043  0.6076  2.6438  1.2817
  115CHL1  H27C14770   4.418   0.234  15.141  1.3820  0.5436  2.8872
  116CHL1    C314771   5.148   0.935  16.211 -0.2534 -0.0211 -0.2473
  116CHL1    H314772   5.220   1.019  16.207  0.7669 -0.8661 -0.1689
  116CHL1    O314773   5.131   0.894  16.344  0.1274  0.6943 -0.4260
  116CHL1   H3'14774   5.091   0.971  16.384  2.6042  2.0442 -0.3336
  116CHL1    C414775   5.012   0.968  16.149 -0.1751 -0.2799 -0.4282
  116CHL1   H4A14776   4.939   0.886  16.167  1.1124 -1.6146 -1.0034
  116CHL1   H4B14777   4.971   1.052  16.209  0.8284  0.1097 -0.2642
  116CHL1    C514778   5.033   1.019  16.004  0.2041  1.0476 -0.4304
  116CHL1    C614779   5.006   1.145  15.965  0.1888  0.4068 -0.5661
  116CHL1    H614780   4.950   1.217  16.027 -1.4359  0.5267 -2.0825
  116CHL1    C714781   5.004   1.187  15.820 -0.0436  0.0979  0.8756
  116CHL1   H7A14782   4.907   1.227  15.784  1.4705  0.6104 -3.1799
  116CHL1   H7B14783   5.091   1.253  15.799  0.5828 -1.4051 -1.6876
  116CHL1    C814784   5.040   1.073  15.717 -0.4842 -0.3108  0.4508
  116CHL1    H814785   4.947   1.013  15.710 -0.8108  0.3948 -2.2559
  116CHL1   C1414786   5.080   1.126  15.583 -0.1601 -0.7194  0.6411
  116CHL1   H1414787   5.175   1.184  15.580 -0.5405 -0.1266 -0.8033
  116CHL1   C1514788   4.978   1.214  15.503 -0.5120  0.2728 -0.1268
  116CHL1  H15A14789   4.876   1.170  15.507  0.3238 -1.7098  2.4219
  116CHL1  H15B14790   4.984   1.319  15.539 -1.3620  0.0062  0.8505
  116CHL1   C1614791   5.024   1.204  15.357 -0.2347  0.0058 -0.1020
  116CHL1  H16A14792   4.936   1.178  15.294  0.1032 -0.1004 -0.5331
  116CHL1  H16B14793   5.065   1.298  15.312 -2.0379 -0.0194 -1.9407
  116CHL1   C1714794   5.137   1.093  15.352 -0.0399  0.3523 -0.3285
  116CHL1   H1714795   5.235   1.143  15.371 -1.0434  3.7525 -2.9370
  116CHL1   C1314796   5.114   1.010  15.479  0.3275 -0.0124 -0.3664
  116CHL1   C1814797   4.988   0.920  15.450 -0.0317 -0.2872 -0.0210
  116CHL1  H18A14798   5.015   0.840  15.378  2.4053  2.0444 -1.8799
  116CHL1  H18B14799   4.952   0.869  15.542 -0.5887 -0.5059 -0.3520
  116CHL1  H18C14800   4.905   0.979  15.407 -0.1587 -1.6680 -1.7755
  116CHL1   C1214801   5.235   0.935  15.537  0.4443 -0.4265  0.0975
  116CHL1  H12A14802   5.261   0.849  15.472  1.1181 -0.5165  0.4767
  116CHL1  H12B14803   5.321   1.005  15.543  0.6384 -0.7727  1.7647
  116CHL1   C1114804   5.220   0.883  15.677 -0.7526  0.1083 -0.0012
  116CHL1  H11A14805   5.145   0.802  15.664 -1.2263  0.1002  2.3328
  116CHL1  H11B14806   5.319   0.853  15.718 -0.5343  0.5419 -0.2027
  116CHL1    C914807   5.147   0.979  15.778  0.8815  0.5653 -0.3247
  116CHL1    H914808   5.226   1.054  15.803 -0.2853  1.5360  0.5918
  116CHL1   C1014809   5.110   0.912  15.910  0.5194  0.1323 -0.7539
  116CHL1   C1914810   5.021   0.789  15.890  0.6026 -0.1576 -0.4715
  116CHL1  H19A14811   5.084   0.699  15.872  0.2069 -0.6835  0.6306
  116CHL1  H19B14812   4.951   0.772  15.974 -1.0671  2.1085 -1.3043
  116CHL1  H19C14813   4.960   0.802  15.799 -0.1499  0.0617  0.0541
  116CHL1    C114814   5.240   0.866  15.986  0.0035  0.1080 -0.2228
  116CHL1   H1A14815   5.282   0.777  15.933  1.4009 -0.1547  1.2802
  116CHL1   H1B14816   5.320   0.942  15.993  2.0453 -1.9360 -0.1546
  116CHL1    C214817   5.211   0.821  16.136  0.2919  0.0087  0.1373
  116CHL1   H2A14818   5.307   0.801  16.187  0.3780  0.4353  0.1498
  116CHL1   H2B14819   5.151   0.727  16.140  1.7791 -0.9269  2.2418
  116CHL1   C2014820   5.143   1.022  15.216 -0.4979  0.1072  0.1715
  116CHL1   H2014821   5.039   0.992  15.193  0.0539 -2.0771  0.3167
  116CHL1   C2114822   5.231   0.901  15.225 -0.0725  0.5123  0.6042
  116CHL1  H21A14823   5.318   0.929  15.288 -0.2820  1.3343  0.5344
  116CHL1  H21B14824   5.276   0.880  15.125 -1.3624 -1.8327  0.4498
  116CHL1  H21C14825   5.183   0.811  15.269  0.0110  0.6254  0.9290
  116CHL1   C2214826   5.195   1.111  15.106  0.0692  0.5192  0.0320
  116CHL1  H22A14827   5.140   1.206  15.121 -0.6942 -0.0399  0.9024
  116CHL1  H22B14828   5.302   1.138  15.111  0.0982  0.4812 -0.3627
  116CHL1   C2314829   5.162   1.055  14.964  1.1274 -0.0688  0.0685
  116CHL1  H23A14830   5.251   0.997  14.931 -0.1681 -1.5221 -0.9927
  116CHL1  H23B14831   5.071   0.993  14.967 -0.4489  2.1474  0.9948
  116CHL1   C2414832   5.145   1.164  14.854 -0.4486  0.4054 -0.3382
  116CHL1  H24A14833   5.138   1.117  14.754 -0.2748 -0.7655  0.1856
  116CHL1  H24B14834   5.056   1.227  14.877 -0.4783 -0.4576  2.1870
  116CHL1   C2514835   5.266   1.264  14.840  0.6455  0.1801 -0.3605
  116CHL1   H2514836   5.290   1.312  14.937 -0.2748  1.0409 -0.5321
  116CHL1   C2614837   5.396   1.196  14.795 -0.1361 -1.0641  0.5365
  116CHL1  H26A14838   5.414   1.114  14.867  0.7891 -1.8581 -0.5561
  116CHL1  H26B14839   5.378   1.144  14.698 -0.3674 -1.2055  0.6543
  116CHL1  H26C14840   5.488   1.259  14.790 -0.6398 -0.1053  2.5121
  116CHL1   C2714841   5.230   1.373  14.742 -0.4371 -0.2899 -0.2895
  116CHL1  H27A14842   5.212   1.328  14.642  1.8828 -2.2152  0.0468
  116CHL1  H27B14843   5.145   1.439  14.770 -1.0664 -0.1339 -2.4102
  116CHL1  H27C14844   5.310   1.450  14.732  0.7299 -1.5069 -0.6402
  117CHL1    C314845   6.046   0.755  16.274  0.2930 -0.0064  1.1248
  117CHL1    H314846   5.940   0.741  16.244  1.4334 -1.9551 -2.5362
  117CHL1    O314847   6.061   0.751  16.415 -0.2569 -0.0650 -0.2729
  117CHL1   H3'14848   6.152   0.735  16.442  0.2026  0.9782 -1.0765
  117CHL1    C414849   6.144   0.657  16.194  0.8097 -0.2507 -0.4521
  117CHL1   H4A14850   6.250   0.686  16.208  0.3390  1.8509 -0.9370
  117CHL1   H4B14851   6.121   0.556  16.234 -1.5423  0.1012 -0.7297
  117CHL1    C514852   6.111   0.657  16.046 -0.3415  0.5330 -0.0367
  117CHL1    C614853   6.084   0.549  15.982  0.9425  0.2482 -0.7320
  117CHL1    H614854   6.090   0.450  16.029 -1.2693 -1.3444 -3.4687
  117CHL1    C714855   6.090   0.539  15.833  0.0299  1.4148 -0.0832
  117CHL1   H7A14856   6.149   0.453  15.794  0.0364  0.7272  1.3714
  117CHL1   H7B14857   5.987   0.506  15.806  0.8274  0.1522 -1.7364
  117CHL1    C814858   6.128   0.667  15.756 -0.3972  0.2709  0.0506
  117CHL1    H814859   6.239   0.665  15.746 -0.5312 -1.2960 -1.7514
  117CHL1   C1414860   6.064   0.668  15.625 -0.2445 -0.0708 -0.4283
  117CHL1   H1414861   5.955   0.686  15.638 -0.4036 -0.5454 -1.0517
  117CHL1   C1514862   6.075   0.539  15.552 -0.0731 -0.1444  0.5216
  117CHL1  H15A14863   6.178   0.501  15.570 -0.6853 -1.3538  1.6211
  117CHL1  H15B14864   6.001   0.462  15.580 -0.1674 -0.8771 -1.6064
  117CHL1   C1614865   6.057   0.590  15.408  0.1350  0.0529 -0.0852
  117CHL1  H16A14866   6.146   0.571  15.344  0.8991  0.7964  0.7216
  117CHL1  H16B14867   5.964   0.554  15.360  0.0524  1.8087 -1.3752
  117CHL1   C1714868   6.047   0.748  15.406 -0.3933 -0.4328  0.4511
  117CHL1   H1714869   5.937   0.769  15.409 -0.5978 -0.7326 -2.4689
  117CHL1   C1314870   6.120   0.783  15.537 -0.0792  0.1104  0.6646
  117CHL1   C1814871   6.275   0.777  15.513 -0.1339  0.6119 -0.1295
  117CHL1  H18A14872   6.309   0.681  15.468 -0.8544  0.3907 -0.2125
  117CHL1  H18B14873   6.312   0.864  15.455  0.7023  1.0587  1.0186
  117CHL1  H18C14874   6.325   0.805  15.609  1.5669  2.2699 -1.4249
  117CHL1   C1214875   6.077   0.917  15.605 -0.1230 -0.1811  0.1996
  117CHL1  H12A14876   6.134   1.000  15.558 -1.5444  0.7125 -0.0094
  117CHL1  H12B14877   5.967   0.931  15.593 -0.3437 -1.6000  0.3354
  117CHL1   C1114878   6.128   0.921  15.750  1.7517  0.1968 -0.1565
  117CHL1  H11A14879   6.238   0.930  15.745  1.8790  1.8210  3.1679
  117CHL1  H11B14880   6.079   1.010  15.794 -1.1304 -1.0354 -0.6012
  117CHL1    C914881   6.094   0.793  15.832 -0.2445  0.1921  0.4747
  117CHL1    H914882   5.983   0.792  15.837 -0.2862  0.8764 -0.1393
  117CHL1   C1014883   6.139   0.800  15.981 -0.3364  1.0695 -0.1863
  117CHL1   C1914884   6.291   0.834  15.984  0.2617  0.0050  0.1992
  117CHL1  H19A14885   6.336   0.850  16.084  0.3135  0.0041  0.1756
  117CHL1  H19B14886   6.344   0.763  15.918 -1.8297 -3.8980  2.3644
  117CHL1  H19C14887   6.315   0.935  15.943  0.3856 -0.2333 -0.3137
  117CHL1    C114888   6.060   0.905  16.063  0.0227 -0.6291 -0.3843
  117CHL1   H1A14889   6.070   1.007  16.020 -2.6948 -0.6261 -1.1961
  117CHL1   H1B14890   5.951   0.893  16.050 -0.4324 -0.4330  2.5725
  117CHL1    C214891   6.083   0.896  16.218  0.5484  0.8679  0.1657
  117CHL1   H2A14892   6.035   0.971  16.284 -0.3118 -0.3304  0.9403
  117CHL1   H2B14893   6.187   0.920  16.249  0.1986  2.4422  0.1998
  117CHL1   C2014894   6.106   0.810  15.276  0.0453  0.6177 -0.6278
  117CHL1   H2014895   6.213   0.783  15.265 -0.2047 -0.7482 -0.0486
  117CHL1   C2114896   6.096   0.958  15.282 -0.0246 -1.2414 -1.2105
  117CHL1  H21A14897   5.991   0.984  15.310  0.0767 -0.3366 -1.6274
  117CHL1  H21B14898   6.108   1.016  15.188 -0.5335  1.0133  0.0547
  117CHL1  H21C14899   6.161   1.004  15.359 -2.4446  1.4924 -0.6013
  117CHL1   C2214900   6.032   0.753  15.159  0.3233  0.2341 -0.0150
  117CHL1  H22A14901   6.053   0.644  15.164 -2.6431 -0.3797  1.1964
  117CHL1  H22B14902   5.923   0.774  15.166  0.6247  1.5580  1.1599
  117CHL1   C2314903   6.085   0.800  15.023  0.0364  0.3382 -0.4650
  117CHL1  H23A14904   6.037   0.899  15.006 -0.8312 -0.1861 -1.1062
  117CHL1  H23B14905   6.195   0.808  15.040  0.3293 -1.1435 -1.4960
  117CHL1   C2414906   6.065   0.701  14.908  0.3359 -0.0604  0.0385
  117CHL1  H24A14907   6.126   0.609  14.917 -0.7082 -0.7426  0.2390
  117CHL1  H24B14908   5.957   0.673  14.913  0.3528 -0.2441 -0.5843
  117CHL1   C2514909   6.101   0.766  14.774  0.4526 -0.3661 -0.2722
  117CHL1   H2514910   6.149   0.862  14.804  0.5520 -0.4898 -0.0280
  117CHL1   C2614911   6.207   0.681  14.698  0.1583 -0.1116  0.0829
  117CHL1  H26A14912   6.306   0.678  14.749  0.0654  2.4281  0.5402
  117CHL1  H26B14913   6.156   0.584  14.685 -2.7674  1.2805  0.4286
  117CHL1  H26C14914   6.223   0.717  14.594  0.3350  0.2487  0.2304
  117CHL1   C2714915   5.972   0.788  14.694  0.3417  0.3089  0.1153
  117CHL1  H27A14916   5.931   0.685  14.681 -2.1925  1.1373  0.9652
  117CHL1  H27B14917   5.888   0.829  14.755  0.4395 -0.2488  0.6475
  117CHL1  H27C14918   5.994   0.849  14.605  2.3216 -0.0743  0.2861
  118CHL1    C314919   2.133   2.722  16.882 -0.7110 -0.4494 -0.0477
  118CHL1    H314920   2.096   2.827  16.880 -0.2615 -0.1962  2.0844
  118CHL1    O314921   2.157   2.687  17.019 -0.2556 -0.3192  0.0520
  118CHL1   H3'14922   2.240   2.726  17.049 -1.3725  1.4381  1.0970
  118CHL1    C414923   2.048   2.615  16.832  0.1656  0.0427 -0.1393
  118CHL1   H4A14924   2.101   2.518  16.842  0.3593  0.3048  1.7899
  118CHL1   H4B14925   1.962   2.606  16.902  2.1415  0.6356  2.5330
  118CHL1    C514926   2.007   2.628  16.690  0.0468  0.8338 -0.4542
  118CHL1    C614927   1.882   2.655  16.653  0.5303  0.1258 -0.1000
  118CHL1    H614928   1.803   2.667  16.729 -0.5114  1.0054 -1.2802
  118CHL1    C714929   1.852   2.665  16.503 -0.3076 -0.3723  0.0929
  118CHL1   H7A14930   1.751   2.622  16.484 -0.1252 -0.7591 -0.0212
  118CHL1   H7B14931   1.840   2.769  16.466 -0.8937 -0.5620 -0.2679
  118CHL1    C814932   1.960   2.606  16.408  0.8850 -0.1014 -0.4707
  118CHL1    H814933   1.956   2.496  16.424 -0.7801 -0.0091 -0.0511
  118CHL1   C1414934   1.921   2.648  16.269 -0.3880  0.2965  0.4524
  118CHL1   H1414935   1.916   2.759  16.278  1.7168  0.4525  0.1055
  118CHL1   C1514936   1.790   2.601  16.217  0.2209  0.8121 -0.0215
  118CHL1  H15A14937   1.785   2.490  16.218 -0.1343  0.8148 -0.8922
  118CHL1  H15B14938   1.701   2.638  16.273 -0.1132 -1.1593  0.8700
  118CHL1   C1614939   1.794   2.637  16.068  0.3718  0.1037 -0.3533
  118CHL1  H16A14940   1.750   2.562  16.000 -1.0775  0.2074  0.4317
  118CHL1  H16B14941   1.738   2.733  16.058 -0.0284  0.1816  1.9441
  118CHL1   C1714942   1.944   2.672  16.042 -0.5068 -0.4010  0.2082
  118CHL1   H1714943   1.955   2.782  16.045  0.2726 -0.4148 -1.3499
  118CHL1   C1314944   2.024   2.616  16.159 -0.1339  0.2575  0.3534
  118CHL1   C1814945   2.034   2.464  16.149 -0.0509 -0.0506 -0.0694
  118CHL1  H18A14946   2.044   2.408  16.245  0.5870  3.7017  2.2443
  118CHL1  H18B14947   1.943   2.420  16.102 -0.8360  2.0077 -0.5737
  118CHL1  H18C14948   2.122   2.423  16.094 -1.0377 -0.0373 -1.7121
  118CHL1   C1214949   2.157   2.690  16.203 -0.4370  0.1264  0.0318
  118CHL1  H12A14950   2.237   2.657  16.132 -1.2983  0.7198 -1.2565
  118CHL1  H12B14951   2.144   2.800  16.206 -0.4059  0.1406 -0.2784
  118CHL1   C1114952   2.204   2.641  16.343 -0.2745 -0.0842 -0.0627
  118CHL1  H11A14953   2.249   2.540  16.354 -0.3174  0.1235  2.8430
  118CHL1  H11B14954   2.293   2.704  16.360  0.9442 -1.4043 -1.2828
  118CHL1    C914955   2.096   2.660  16.454  0.0260 -0.4501  0.4270
  118CHL1    H914956   2.082   2.770  16.458 -0.5831 -0.5450  1.2133
  118CHL1   C1014957   2.125   2.619  16.599 -0.6219 -0.8957  0.5641
  118CHL1   C1914958   2.188   2.475  16.582  0.2842 -0.6125 -0.7341
  118CHL1  H19A14959   2.137   2.424  16.497  1.3124 -2.0487 -0.5187
  118CHL1  H19B14960   2.297   2.486  16.562  0.1421  1.9784 -0.4426
  118CHL1  H19C14961   2.164   2.411  16.669 -1.1830  0.4606 -0.3123
  118CHL1    C114962   2.232   2.719  16.654 -0.2294  0.6645 -0.2527
  118CHL1   H1A14963   2.330   2.710  16.601 -0.9755 -0.3055 -1.5480
  118CHL1   H1B14964   2.205   2.823  16.627  0.1552  0.5328 -1.2080
  118CHL1    C214965   2.264   2.715  16.802 -0.8366 -0.8812 -0.6481
  118CHL1   H2A14966   2.340   2.793  16.822 -2.4883  0.7227 -0.3399
  118CHL1   H2B14967   2.312   2.617  16.821 -1.4912 -1.7537 -3.2054
  118CHL1   C2014968   1.994   2.632  15.905 -0.3927  0.1445  1.1957
  118CHL1   H2014969   1.996   2.521  15.901 -2.6897  0.0412  1.4750
  118CHL1   C2114970   2.136   2.677  15.872 -0.0944 -0.0591  0.6152
  118CHL1  H21A14971   2.155   2.787  15.877 -0.5509  0.1662 -1.6448
  118CHL1  H21B14972   2.164   2.645  15.769  0.0603  0.3191  0.5373
  118CHL1  H21C14973   2.209   2.638  15.946  1.4064 -2.4107 -1.9298
  118CHL1   C2214974   1.890   2.666  15.795 -0.5018  0.0101 -0.1907
  118CHL1  H22A14975   1.783   2.640  15.813 -0.3444  0.8304  2.2046
  118CHL1  H22B14976   1.880   2.777  15.798 -0.2199  0.0230  2.0813
  118CHL1   C2314977   1.922   2.604  15.657  0.2928 -0.1654  0.3639
  118CHL1  H23A14978   2.012   2.653  15.614  0.4965 -0.8328  0.0120
  118CHL1  H23B14979   1.945   2.495  15.666 -3.3360 -0.9466  1.4935
  118CHL1   C2414980   1.800   2.611  15.557  0.2789 -0.4610 -0.4432
  118CHL1  H24A14981   1.711   2.554  15.592  1.8998 -1.5177  2.3252
  118CHL1  H24B14982   1.770   2.718  15.566  0.5360 -0.1925 -2.3782
  118CHL1   C2514983   1.835   2.566  15.415 -0.0258  0.3925 -0.4702
  118CHL1   H2514984   1.933   2.602  15.379 -0.0156 -0.5339 -1.4514
  118CHL1   C2614985   1.852   2.405  15.403 -0.1211  0.3345  0.0566
  118CHL1  H26A14986   1.757   2.355  15.429  0.2134 -0.2229  0.2198
  118CHL1  H26B14987   1.882   2.375  15.300 -0.1433 -1.1720  0.4667
  118CHL1  H26C14988   1.936   2.358  15.459  1.4549 -0.2241 -2.6239
  118CHL1   C2714989   1.727   2.612  15.312 -0.5773 -0.4194  0.7175
  118CHL1  H27A14990   1.773   2.586  15.214 -2.0620 -1.1468  0.1951
  118CHL1  H27B14991   1.628   2.565  15.329 -1.1566  1.7149  4.4574
  118CHL1  H27C14992   1.704   2.721  15.321 -2.1001 -0.5862 -0.8151
  119CHL1    C314993   4.073   1.212  16.261  0.7566  0.3645  0.2033
  119CHL1    H314994   4.010   1.125  16.236 -0.4756  0.6744  2.0268
  119CHL1    O314995   4.109   1.208  16.399  0.4263 -0.5266 -0.0804
  119CHL1   H3'14996   4.195   1.251  16.405  0.0528  0.4415 -1.3687
  119CHL1    C414997   4.194   1.197  16.171  0.0101 -0.3073 -0.2143
  119CHL1   H4A14998   4.284   1.258  16.194  1.7885 -1.6370 -3.0058
  119CHL1   H4B14999   4.238   1.098  16.199  0.1364 -0.5423 -1.1943
  119CHL1    C515000   4.162   1.215  16.025  0.0520 -0.1610  0.4096
  119CHL1    C615001   4.188   1.120  15.933 -0.1946 -0.5872  0.0256
  119CHL1    H615002   4.234   1.024  15.962 -1.0595 -1.6831 -2.0509
  119CHL1    C715003   4.152   1.140  15.789 -0.2143  0.2040 -0.2248
  119CHL1   H7A15004   4.220   1.068  15.738  0.6491 -0.3292  1.6188
  119CHL1   H7B15005   4.049   1.100  15.776 -1.2676  2.8043 -0.5451
  119CHL1    C815006   4.138   1.287  15.736  0.9766  0.6883 -0.8319
  119CHL1    H815007   4.240   1.329  15.728  0.9863  0.2239 -5.4009
  119CHL1   C1415008   4.065   1.296  15.604 -0.9738  0.7400 -0.0922
  119CHL1   H1415009   3.963   1.253  15.618 -0.5120 -0.7028 -0.8731
  119CHL1   C1515010   4.123   1.217  15.487 -0.3792 -0.1507 -0.0764
  119CHL1  H15A15011   4.232   1.239  15.481 -0.1727 -0.7916  1.0151
  119CHL1  H15B15012   4.104   1.107  15.483  1.8835 -0.5687 -1.6426
  119CHL1   C1615013   4.051   1.272  15.355  0.3181  0.3079  0.9255
  119CHL1  H16A15014   4.126   1.267  15.273 -0.9630  0.6967 -0.3189
  119CHL1  H16B15015   3.962   1.215  15.322  0.6083 -0.0915  0.8280
  119CHL1   C1715016   3.992   1.410  15.407  0.5078 -0.0417  0.7145
  119CHL1   H1715017   3.885   1.389  15.427 -0.0336  0.9554 -1.0522
  119CHL1   C1315018   4.048   1.435  15.549  0.8139  0.0493 -0.2084
  119CHL1   C1815019   4.191   1.503  15.540  0.8509 -0.0179  0.3589
  119CHL1  H18A15020   4.260   1.428  15.495  0.0413  1.2055 -3.2433
  119CHL1  H18B15021   4.195   1.592  15.473  0.6265 -1.5109 -1.7520
  119CHL1  H18C15022   4.233   1.528  15.639  2.2550 -0.3015 -0.1354
  119CHL1   C1215023   3.959   1.510  15.646 -1.0058  0.4283 -0.0172
  119CHL1  H12A15024   3.958   1.619  15.625  0.6838  0.3900 -0.5106
  119CHL1  H12B15025   3.854   1.476  15.641 -1.1192  0.8721 -0.7893
  119CHL1   C1115026   4.018   1.509  15.800  0.5007  0.7037  0.5800
  119CHL1  H11A15027   4.110   1.571  15.806  1.2016 -0.3534  0.8124
  119CHL1  H11B15028   3.940   1.564  15.858 -0.6228 -2.3009  2.1694
  119CHL1    C915029   4.052   1.364  15.841  0.4676 -0.5118 -0.5568
  119CHL1    H915030   3.956   1.307  15.838 -0.0928  0.3806 -0.0223
  119CHL1   C1015031   4.112   1.349  15.990  0.0572 -0.7134 -0.0437
  119CHL1   C1915032   4.222   1.461  16.011  0.3270 -0.8715 -0.8192
  119CHL1  H19A15033   4.263   1.444  16.114  0.9242 -0.9291 -1.0616
  119CHL1  H19B15034   4.298   1.467  15.930 -0.3833  0.7056 -1.4054
  119CHL1  H19C15035   4.176   1.562  16.018  2.4142  0.1201 -0.4688
  119CHL1    C115036   3.983   1.381  16.085 -0.0241  0.0084 -0.2704
  119CHL1   H1A15037   3.953   1.486  16.067 -0.9859  0.2034  2.0552
  119CHL1   H1B15038   3.901   1.315  16.049  0.5498 -0.8899  0.0175
  119CHL1    C215039   4.008   1.344  16.233 -0.1813 -0.6337  0.0800
  119CHL1   H2A15040   3.914   1.360  16.290 -0.1433  0.5306 -0.1599
  119CHL1   H2B15041   4.077   1.422  16.273  1.2141 -0.7105 -2.0434
  119CHL1   C2015042   3.981   1.515  15.297 -0.2547 -0.1467  0.1276
  119CHL1   H2015043   4.083   1.542  15.261  0.0608 -1.1841  0.2060
  119CHL1   C2115044   3.930   1.654  15.340 -0.4678  0.2166 -1.4153
  119CHL1  H21A15045   3.984   1.702  15.424  1.5930 -0.4068 -2.3246
  119CHL1  H21B15046   3.826   1.640  15.375  0.4781 -1.7336  0.9109
  119CHL1  H21C15047   3.932   1.723  15.253  0.4538 -0.3433 -1.8463
  119CHL1   C2215048   3.903   1.459  15.179 -1.0333 -0.0157 -0.1379
  119CHL1  H22A15049   3.951   1.366  15.142 -2.2564 -1.8077  2.4599
  119CHL1  H22B15050   3.797   1.434  15.203 -1.2937  1.2131  0.0817
  119CHL1   C2315051   3.900   1.568  15.063 -0.1028  0.4535  0.2173
  119CHL1  H23A15052   3.827   1.646  15.094 -2.0210 -1.6924  1.3761
  119CHL1  H23B15053   4.000   1.615  15.052 -0.0797  1.0241  2.3565
  119CHL1   C2415054   3.860   1.519  14.926 -0.5019  0.2122 -0.4323
  119CHL1  H24A15055   3.932   1.438  14.902 -1.3870 -0.0798 -2.2534
  119CHL1  H24B15056   3.754   1.487  14.932 -1.4270  3.0483  0.0084
  119CHL1   C2515057   3.873   1.625  14.810  0.7682  0.0761 -0.0192
  119CHL1   H2515058   3.968   1.680  14.824 -0.3600  2.0221  0.2948
  119CHL1   C2615059   3.890   1.551  14.667  0.0684 -0.0771 -0.4312
  119CHL1  H26A15060   3.907   1.626  14.586 -1.4571  1.8080  0.9023
  119CHL1  H26B15061   3.978   1.483  14.671  0.6121  0.5907 -0.8025
  119CHL1  H26C15062   3.793   1.501  14.647 -0.1217  0.2726 -0.3923
  119CHL1   C2715063   3.753   1.725  14.803 -0.2484 -0.3940  0.8708
  119CHL1  H27A15064   3.750   1.780  14.706 -1.7057 -1.7059  0.1242
  119CHL1  H27B15065   3.659   1.666  14.817 -1.9093  1.2813 -2.1339
  119CHL1  H27C15066   3.762   1.801  14.884 -0.0896  1.5025 -0.8374
  120CHL1    C315067   1.416   1.336  16.272 -0.8295 -0.0903  0.9029
  120CHL1    H315068   1.309   1.307  16.266 -0.2109 -2.2266 -1.5821
  120CHL1    O315069   1.439   1.366  16.407  0.2495 -0.1547 -0.2396
  120CHL1   H3'15070   1.377   1.313  16.457  0.6625  1.8809  2.7103
  120CHL1    C415071   1.502   1.205  16.242 -0.3399  0.0421 -0.0449
  120CHL1   H4A15072   1.613   1.210  16.251 -0.3425  0.2874 -0.1602
  120CHL1   H4B15073   1.473   1.136  16.324 -0.3295  1.1329  0.9015
  120CHL1    C515074   1.478   1.148  16.102 -0.2386  0.2079  0.2441
  120CHL1    C615075   1.430   1.027  16.073 -0.1209  0.0107 -0.7925
  120CHL1    H615076   1.395   0.955  16.149 -2.5706  0.2370 -1.6295
  120CHL1    C715077   1.406   0.975  15.940  0.1565  0.1159 -0.5854
  120CHL1   H7A15078   1.439   0.870  15.921 -3.4801 -0.9929 -1.7332
  120CHL1   H7B15079   1.297   0.975  15.915 -0.4919  1.9898  1.8826
  120CHL1    C815080   1.465   1.059  15.829 -0.3265  0.4854 -0.9669
  120CHL1    H815081   1.574   1.038  15.820 -0.4095 -0.8476  0.6835
  120CHL1   C1415082   1.413   1.008  15.698  0.0768 -0.1429  0.8634
  120CHL1   H1415083   1.305   1.032  15.707 -0.4184 -2.5213  2.0031
  120CHL1   C1515084   1.424   0.862  15.661  0.0117  0.0640 -0.5722
  120CHL1  H15A15085   1.529   0.829  15.678  0.1441  1.6822  2.5683
  120CHL1  H15B15086   1.356   0.796  15.719 -1.9861  1.8563 -0.7608
  120CHL1   C1615087   1.384   0.865  15.507 -0.5611  0.0200 -0.8461
  120CHL1  H16A15088   1.455   0.798  15.454  0.4741 -0.4300  1.0254
  120CHL1  H16B15089   1.276   0.837  15.503 -1.6444  3.5591  0.2812
  120CHL1   C1715090   1.394   1.017  15.460 -0.2167 -0.5842  0.5655
  120CHL1   H1715091   1.291   1.059  15.455 -0.1480 -0.5498 -1.2147
  120CHL1   C1315092   1.465   1.091  15.575 -0.0522 -0.5911 -0.2690
  120CHL1   C1815093   1.622   1.063  15.552 -0.2237  0.2963  0.5280
  120CHL1  H18A15094   1.686   1.079  15.641  1.7393 -2.1470 -0.3451
  120CHL1  H18B15095   1.632   0.964  15.504 -0.2909  1.3371 -1.7846
  120CHL1  H18C15096   1.651   1.137  15.473  0.4389 -0.2261  0.2735
  120CHL1   C1215097   1.446   1.242  15.597 -0.5694  0.1483 -0.2755
  120CHL1  H12A15098   1.491   1.303  15.515  3.1427 -2.9581 -0.8188
  120CHL1  H12B15099   1.337   1.266  15.599 -0.2844  1.5908  2.7357
  120CHL1   C1115100   1.506   1.283  15.727 -0.3949  0.2573  1.5628
  120CHL1  H11A15101   1.617   1.277  15.723 -0.2639  1.2697 -3.4891
  120CHL1  H11B15102   1.473   1.388  15.738 -0.5415  0.2661  1.0800
  120CHL1    C915103   1.453   1.211  15.850  0.0484  0.2720  0.0176
  120CHL1    H915104   1.343   1.228  15.853 -0.1801 -0.7172 -1.7118
  120CHL1   C1015105   1.509   1.253  15.991  0.0772 -0.5203 -0.2666
  120CHL1   C1915106   1.662   1.267  15.981 -0.1569  0.3954 -0.9425
  120CHL1  H19A15107   1.688   1.347  15.909 -1.5461  3.5050  1.7631
  120CHL1  H19B15108   1.719   1.293  16.073  1.8470 -2.9904 -1.0635
  120CHL1  H19C15109   1.702   1.170  15.945 -2.4329  0.0515 -2.7785
  120CHL1    C115110   1.432   1.385  16.027  0.6756 -0.4532  0.6281
  120CHL1   H1A15111   1.449   1.467  15.954  0.0703 -1.4557 -0.6751
  120CHL1   H1B15112   1.323   1.367  16.022  0.6558 -0.2557  0.2652
  120CHL1    C215113   1.454   1.442  16.166 -0.7837  0.0331  0.0094
  120CHL1   H2A15114   1.385   1.527  16.186 -0.6289  0.2908 -0.5570
  120CHL1   H2B15115   1.559   1.474  16.182 -1.1907  1.1820  0.4781
  120CHL1   C2015116   1.445   1.036  15.310 -0.8297 -0.4541 -0.5785
  120CHL1   H2015117   1.545   0.993  15.292 -0.5698 -0.8981  1.6881
  120CHL1   C2115118   1.456   1.188  15.276  0.6390  0.2074  0.2894
  120CHL1  H21A15119   1.532   1.245  15.333 -0.0330  1.8222 -0.3601
  120CHL1  H21B15120   1.357   1.234  15.299 -0.4274 -1.1624 -1.3266
  120CHL1  H21C15121   1.470   1.218  15.170  1.6863  0.5252  0.4994
  120CHL1   C2215122   1.349   0.967  15.210  0.3596 -0.8106  0.5154
  120CHL1  H22A15123   1.327   0.863  15.244  2.8020 -1.3549  0.5773
  120CHL1  H22B15124   1.251   1.020  15.213  0.1110 -0.9928 -1.9781
  120CHL1   C2315125   1.404   0.969  15.057  0.1252  0.3843 -0.6879
  120CHL1  H23A15126   1.411   1.075  15.022  1.8355  0.6554  0.3836
  120CHL1  H23B15127   1.504   0.924  15.068 -1.0021 -1.8748  1.1970
  120CHL1   C2415128   1.310   0.882  14.965 -0.9342  0.2621 -0.3271
  120CHL1  H24A15129   1.316   0.776  14.997 -0.7945  0.7033  1.1779
  120CHL1  H24B15130   1.205   0.918  14.962 -1.6761 -1.6593  0.8509
  120CHL1   C2515131   1.365   0.891  14.812 -0.0947  0.4418 -0.0994
  120CHL1   H2515132   1.375   0.998  14.782 -3.6054  0.4070 -1.8748
  120CHL1   C2615133   1.507   0.826  14.802 -0.6161 -0.3480  0.0276
  120CHL1  H26A15134   1.592   0.886  14.840  0.4764 -0.6531 -1.7934
  120CHL1  H26B15135   1.520   0.733  14.862  0.8024 -0.7743 -0.8802
  120CHL1  H26C15136   1.525   0.796  14.697  2.0851 -0.4251  0.4507
  120CHL1   C2715137   1.267   0.833  14.714 -0.1489  0.2207 -0.7738
  120CHL1  H27A15138   1.244   0.728  14.741  0.0761  0.5901  0.9936
  120CHL1  H27B15139   1.174   0.892  14.723 -0.5501 -0.6429  1.8268
  120CHL1  H27C15140   1.298   0.834  14.607 -1.9613 -0.6769 -1.3420
  121CHL1    C315141   6.125   4.392  13.458  0.0721 -0.8731 -0.1477
  121CHL1    H315142   6.082   4.489  13.491  0.6158 -0.3313 -0.9622
  121CHL1    O315143   6.122   4.395  13.312 -0.0032 -0.3312  0.3734
  121CHL1   H3'15144   6.162   4.310  13.293  1.1499  0.4427 -0.8113
  121CHL1    C415145   6.269   4.377  13.506 -0.8031  0.2617  0.7258
  121CHL1   H4A15146   6.315   4.283  13.471  0.5429  0.8686  0.8218
  121CHL1   H4B15147   6.328   4.461  13.462 -0.7531 -0.2687 -0.2401
  121CHL1    C515148   6.258   4.384  13.660 -0.1684  0.5537 -1.1996
  121CHL1    C615149   6.315   4.486  13.726  0.3237  0.3110 -0.1342
  121CHL1    H615150   6.364   4.566  13.670  0.2137  0.9892  0.7205
  121CHL1    C715151   6.309   4.504  13.877  0.6436 -0.2091 -0.3072
  121CHL1   H7A15152   6.406   4.543  13.915  0.9357  1.2524 -2.3845
  121CHL1   H7B15153   6.232   4.583  13.896  0.0438 -0.0066 -3.1783
  121CHL1    C815154   6.271   4.369  13.955  0.9671  0.1242  0.6727
  121CHL1    H815155   6.353   4.295  13.946  0.9181 -0.1009  1.9246
  121CHL1   C1415156   6.239   4.398  14.098  0.0866  0.3594 -0.2406
  121CHL1   H1415157   6.149   4.464  14.101 -0.2025  0.0118 -0.9767
  121CHL1   C1515158   6.352   4.462  14.180  0.3806  0.5230  0.5157
  121CHL1  H15A15159   6.445   4.411  14.145  1.2492  1.5695  1.2500
  121CHL1  H15B15160   6.368   4.571  14.170 -0.2976  0.6415  0.6353
  121CHL1   C1615161   6.320   4.429  14.323 -0.5117  0.3893 -0.2435
  121CHL1  H16A15162   6.404   4.376  14.373 -1.8360  0.6431  2.4201
  121CHL1  H16B15163   6.310   4.520  14.387  0.3458  0.1431  0.2562
  121CHL1   C1715164   6.199   4.329  14.321 -0.7464  0.3363  0.8073
  121CHL1   H1715165   6.115   4.401  14.327  0.1114  1.3531  0.7649
  121CHL1   C1315166   6.202   4.265  14.178  0.7478 -0.0481  0.3950
  121CHL1   C1815167   6.311   4.159  14.180  0.5784  0.4450  0.1643
  121CHL1  H18A15168   6.334   4.133  14.074  0.8291  2.0953 -0.2134
  121CHL1  H18B15169   6.401   4.182  14.242 -0.5619  0.2176  1.9782
  121CHL1  H18C15170   6.263   4.070  14.227 -1.7425  1.2509 -0.5721
  121CHL1   C1215171   6.075   4.205  14.109 -0.0091 -0.2566 -0.4167
  121CHL1  H12A15172   6.045   4.107  14.150 -0.0642  0.4366  1.2702
  121CHL1  H12B15173   5.993   4.274  14.137  0.7138  0.2902  0.4329
  121CHL1   C1115174   6.095   4.179  13.963  0.3606  0.1659 -0.0732
  121CHL1  H11A15175   6.169   4.098  13.947  1.3700  1.3965 -2.0279
  121CHL1  H11B15176   5.991   4.157  13.932  0.8992 -0.5483 -1.4572
  121CHL1    C915177   6.153   4.304  13.884  0.0249  0.3679 -0.1338
  121CHL1    H915178   6.076   4.383  13.896  0.6283  1.6791 -3.7583
  121CHL1   C1015179   6.174   4.274  13.732 -0.2006  0.3670 -0.0734
  121CHL1   C1915180   6.250   4.130  13.715 -0.0286 -0.2921 -0.2616
  121CHL1  H19A15181   6.339   4.112  13.781  1.1620 -2.0096 -2.2119
  121CHL1  H19B15182   6.186   4.040  13.724  0.3223 -0.5758 -0.5715
  121CHL1  H19C15183   6.294   4.134  13.613 -0.0360  1.1126 -0.2339
  121CHL1    C115184   6.042   4.269  13.663  0.1522 -0.7758  1.4637
  121CHL1   H1A15185   5.986   4.179  13.696  0.6387 -1.1265  1.3461
  121CHL1   H1B15186   5.984   4.362  13.681  0.3378 -0.4645  0.5241
  121CHL1    C215187   6.047   4.273  13.508 -0.0824  0.1637  0.4475
  121CHL1   H2A15188   5.944   4.293  13.470 -0.1149 -2.3021 -1.0111
  121CHL1   H2B15189   6.072   4.174  13.463 -3.3267  0.7353 -3.1621
  121CHL1   C2015190   6.190   4.240  14.444 -0.1841 -0.1131 -0.5160
  121CHL1   H2015191   6.263   4.157  14.437 -0.6501 -0.4511 -1.5513
  121CHL1   C2115192   6.053   4.177  14.451  0.2945  0.5410 -0.5701
  121CHL1  H21A15193   6.043   4.097  14.374  0.7459 -0.2404  0.1739
  121CHL1  H21B15194   5.959   4.236  14.449 -2.2157 -3.0898  0.4479
  121CHL1  H21C15195   6.049   4.115  14.543 -1.1629  0.6435 -0.5449
  121CHL1   C2215196   6.211   4.317  14.575  0.5464 -0.0065 -0.4101
  121CHL1  H22A15197   6.313   4.359  14.581  0.6840 -0.1644 -1.4869
  121CHL1  H22B15198   6.142   4.403  14.561  0.6011  0.1935  0.4794
  121CHL1   C2315199   6.184   4.246  14.705 -0.7228 -0.5252 -0.6352
  121CHL1  H23A15200   6.077   4.220  14.719 -0.9340  1.1577  1.3403
  121CHL1  H23B15201   6.246   4.153  14.711 -0.1351 -0.0785  0.5169
  121CHL1   C2415202   6.221   4.343  14.827  0.2077  0.4483  0.6145
  121CHL1  H24A15203   6.331   4.361  14.822 -0.0589  1.8618 -1.1965
  121CHL1  H24B15204   6.174   4.441  14.808 -0.3793  0.1025  0.2504
  121CHL1   C2515205   6.181   4.288  14.965  0.2736 -0.6123  0.0333
  121CHL1   H2515206   6.255   4.210  14.991  0.3342 -0.5000  0.2049
  121CHL1   C2615207   6.200   4.398  15.063 -0.7901 -0.2453  0.2500
  121CHL1  H26A15208   6.145   4.491  15.037  1.1675  1.5968  2.2332
  121CHL1  H26B15209   6.163   4.366  15.163 -0.0575  1.4745  1.1191
  121CHL1  H26C15210   6.309   4.420  15.074 -0.6393 -0.2020 -1.1422
  121CHL1   C2715211   6.035   4.236  14.970 -0.2576 -0.2179  0.3063
  121CHL1  H27A15212   6.021   4.175  15.062 -1.5301 -0.5677 -0.0885
  121CHL1  H27B15213   5.947   4.301  14.950  0.5895  0.4567 -1.4059
  121CHL1  H27C15214   6.015   4.157  14.894  1.3305 -0.7027  0.3607
  122CHL1    C315215   2.731   3.902  13.560 -0.1335  0.1408 -0.5351
  122CHL1    H315216   2.634   3.852  13.581 -0.9950  2.1588  0.6028
  122CHL1    O315217   2.747   3.917  13.421 -0.2654 -0.4143 -0.2589
  122CHL1   H3'15218   2.824   3.974  13.411  0.1257 -0.9222 -0.1901
  122CHL1    C415219   2.739   4.039  13.632 -0.2081 -0.6826 -0.2205
  122CHL1   H4A15220   2.824   4.099  13.594 -1.4410  1.9088  0.9079
  122CHL1   H4B15221   2.647   4.093  13.600  0.2825 -1.4314 -3.2294
  122CHL1    C515222   2.744   4.031  13.781  0.5983  0.0388  0.4925
  122CHL1    C615223   2.647   4.100  13.851 -0.2467 -0.5976 -0.4467
  122CHL1    H615224   2.573   4.163  13.799  1.0101  0.2085 -1.3270
  122CHL1    C715225   2.655   4.109  14.000 -0.2367  0.6712 -0.6935
  122CHL1   H7A15226   2.646   4.211  14.041  2.0279 -0.0223  1.8167
  122CHL1   H7B15227   2.574   4.042  14.037  1.6155 -0.4747  1.5929
  122CHL1    C815228   2.793   4.047  14.059 -0.1267  0.1198 -0.5564
  122CHL1    H815229   2.874   4.121  14.038  0.5261 -0.6268 -0.7233
  122CHL1   C1415230   2.786   4.037  14.212 -0.0323 -0.0433  0.3750
  122CHL1   H1415231   2.712   3.956  14.233  0.9474 -1.0740 -0.0654
  122CHL1   C1515232   2.740   4.156  14.293  0.0843  0.1636 -0.5130
  122CHL1  H15A15233   2.796   4.238  14.243  0.8968  0.5790  0.9982
  122CHL1  H15B15234   2.629   4.156  14.287  0.0877  1.7352 -1.2734
  122CHL1   C1615235   2.787   4.133  14.428 -0.0999 -0.1183  0.5862
  122CHL1  H16A15236   2.856   4.214  14.460 -0.9241 -0.0289  2.2088
  122CHL1  H16B15237   2.713   4.134  14.510  0.5621 -0.1125  1.1965
  122CHL1   C1715238   2.872   4.006  14.420 -0.2362  0.5362 -1.1435
  122CHL1   H1715239   2.816   3.911  14.432  0.0964  0.4995  0.3568
  122CHL1   C1315240   2.913   3.986  14.276  0.4663 -0.1899 -0.0551
  122CHL1   C1815241   3.033   4.080  14.251 -0.8344 -0.1890 -0.0995
  122CHL1  H18A15242   3.117   4.020  14.291 -0.4777 -0.4760 -1.2458
  122CHL1  H18B15243   3.050   4.109  14.145 -2.2525  1.8950  0.1952
  122CHL1  H18C15244   3.027   4.168  14.318  3.3272  1.0903 -1.0923
  122CHL1   C1215245   2.924   3.842  14.215 -0.0312  0.1393 -0.5279
  122CHL1  H12A15246   3.004   3.789  14.272 -1.7050  0.3442  2.2068
  122CHL1  H12B15247   2.833   3.785  14.247 -0.5667  1.5785  0.6214
  122CHL1   C1115248   2.938   3.829  14.064 -0.0682 -0.0690  0.0147
  122CHL1  H11A15249   3.041   3.861  14.035  0.0849 -1.7153 -1.3820
  122CHL1  H11B15250   2.921   3.723  14.036 -0.0653 -0.0208 -0.1716
  122CHL1    C915251   2.829   3.914  13.986 -0.2428 -1.0597  0.0079
  122CHL1    H915252   2.743   3.848  14.010 -0.7342 -0.1526  0.8487
  122CHL1   C1015253   2.851   3.940  13.833 -0.7765  0.0901  0.3217
  122CHL1   C1915254   2.986   4.011  13.807 -0.3651  0.2106  0.3875
  122CHL1  H19A15255   2.996   4.112  13.853 -0.7034  0.1965  0.4890
  122CHL1  H19B15256   3.075   3.959  13.849 -0.1977  1.4527  1.6610
  122CHL1  H19C15257   3.006   4.023  13.698  1.1454  3.3351  0.8713
  122CHL1    C115258   2.849   3.800  13.763  0.4729 -0.7883  0.4883
  122CHL1   H1A15259   2.944   3.751  13.793  1.8887 -0.5353 -3.0743
  122CHL1   H1B15260   2.756   3.745  13.786  0.4529 -1.1448 -0.4088
  122CHL1    C215261   2.850   3.811  13.611 -0.3521  0.4880  1.2500
  122CHL1   H2A15262   2.837   3.710  13.568  0.2845  1.1515 -0.6031
  122CHL1   H2B15263   2.946   3.860  13.583 -2.2532  3.5041 -0.5913
  122CHL1   C2015264   2.964   3.989  14.542  0.7400 -0.1887 -0.1555
  122CHL1   H2015265   3.040   4.070  14.539 -0.3549  0.8696 -0.1376
  122CHL1   C2115266   3.036   3.856  14.538 -0.4162  0.1085  0.4606
  122CHL1  H21A15267   3.085   3.846  14.637  0.3326  0.5609  0.1469
  122CHL1  H21B15268   3.113   3.849  14.458 -1.1668  0.2117 -0.2861
  122CHL1  H21C15269   2.965   3.771  14.536  0.3919 -0.6095 -2.1504
  122CHL1   C2215270   2.895   4.011  14.678  0.4073 -0.2849  0.6814
  122CHL1  H22A15271   2.972   3.993  14.756  1.3874  1.3830  0.1656
  122CHL1  H22B15272   2.867   4.118  14.688 -2.8897 -0.9774  0.1835
  122CHL1   C2315273   2.770   3.920  14.698 -0.2816  0.1692 -0.1121
  122CHL1  H23A15274   2.701   3.937  14.612  0.2451 -0.6363 -0.7041
  122CHL1  H23B15275   2.794   3.812  14.700 -1.8469 -0.2001  0.6692
  122CHL1   C2415276   2.689   3.955  14.825  0.4517  0.1117 -0.9553
  122CHL1  H24A15277   2.751   3.950  14.917  0.0887  2.8682 -0.4778
  122CHL1  H24B15278   2.659   4.062  14.817 -1.5976 -0.5561 -4.2096
  122CHL1   C2515279   2.561   3.882  14.839 -0.0191  0.2573 -0.1840
  122CHL1   H2515280   2.569   3.771  14.838  0.6590  0.2716  1.1078
  122CHL1   C2615281   2.493   3.906  14.975  0.9277  0.1258 -0.9532
  122CHL1  H26A15282   2.444   4.006  14.973  0.2806 -0.1704 -0.1596
  122CHL1  H26B15283   2.412   3.838  15.007 -0.5126  2.1417 -0.1445
  122CHL1  H26C15284   2.569   3.902  15.056 -0.3115 -0.0901  0.2336
  122CHL1   C2715285   2.452   3.916  14.726 -0.5572 -0.0615  0.6197
  122CHL1  H27A15286   2.418   4.019  14.750 -1.9020 -0.4069  0.2610
  122CHL1  H27B15287   2.487   3.919  14.621  0.1556  0.9132  0.8703
  122CHL1  H27C15288   2.358   3.857  14.734 -1.7177  1.8729  2.2992
  123CHL1    C315289   0.770   5.514  13.090  0.0999 -0.5286 -0.1145
  123CHL1    H315290   0.867   5.467  13.119 -0.4823 -2.0988 -0.5866
  123CHL1    O315291   0.755   5.516  12.949  0.0107 -0.3801  0.1667
  123CHL1   H3'15292   0.768   5.607  12.921 -0.1133 -0.9884 -2.0718
  123CHL1    C415293   0.670   5.425  13.151  0.3093  0.4353  0.6539
  123CHL1   H4A15294   0.568   5.461  13.127  0.2685  2.2544  3.1775
  123CHL1   H4B15295   0.688   5.326  13.105 -1.2674  1.5660 -2.6661
  123CHL1    C515296   0.671   5.421  13.299 -0.8116  0.7994 -0.5004
  123CHL1    C615297   0.687   5.303  13.369  0.1598 -0.3671 -0.1699
  123CHL1    H615298   0.704   5.204  13.324  2.0464 -1.3829  2.5118
  123CHL1    C715299   0.683   5.308  13.519  0.0338 -0.4310  0.1066
  123CHL1   H7A15300   0.618   5.228  13.561  0.1256 -0.1142  0.8725
  123CHL1   H7B15301   0.788   5.291  13.552  0.0109 -1.7406 -0.4414
  123CHL1    C815302   0.628   5.434  13.596 -0.7700 -0.1380  0.7907
  123CHL1    H815303   0.518   5.440  13.584 -0.6190  0.1321 -0.6287
  123CHL1   C1415304   0.669   5.439  13.739 -0.1908  0.1923 -0.0185
  123CHL1   H1415305   0.780   5.445  13.732 -0.0937 -1.1725 -0.0261
  123CHL1   C1515306   0.641   5.316  13.825 -0.1878  0.3359  0.9986
  123CHL1  H15A15307   0.531   5.303  13.814 -0.1444  1.5257 -1.6454
  123CHL1  H15B15308   0.693   5.225  13.789 -1.0210  0.5531 -0.8750
  123CHL1   C1615309   0.666   5.366  13.968  0.1816 -0.1125  0.4514
  123CHL1  H16A15310   0.582   5.342  14.036  1.5287  0.2843  2.3434
  123CHL1  H16B15311   0.758   5.328  14.019  0.6044  2.0078  1.3749
  123CHL1   C1715312   0.669   5.520  13.961  0.2763 -0.2935  0.6115
  123CHL1   H1715313   0.772   5.563  13.961 -0.5904  1.9502  1.1550
  123CHL1   C1315314   0.612   5.557  13.818 -0.5815  0.6547  0.1925
  123CHL1   C1815315   0.458   5.564  13.818  0.5802  0.4220  0.1142
  123CHL1  H18A15316   0.410   5.587  13.720 -1.2425  2.1779  1.3292
  123CHL1  H18B15317   0.411   5.473  13.861 -0.2844  0.3878 -0.8584
  123CHL1  H18C15318   0.417   5.650  13.876 -0.2107  1.5182 -1.9671
  123CHL1   C1215319   0.654   5.689  13.747  0.0301 -0.1816  0.0856
  123CHL1  H12A15320   0.596   5.777  13.782 -0.7106 -0.2855 -0.8247
  123CHL1  H12B15321   0.761   5.710  13.766  0.1334 -1.0174  0.4155
  123CHL1   C1115322   0.631   5.681  13.595 -0.4456  0.6156 -1.1288
  123CHL1  H11A15323   0.521   5.694  13.579 -0.2627 -0.6318 -4.0951
  123CHL1  H11B15324   0.677   5.776  13.561  2.2185 -0.4410 -0.7057
  123CHL1    C915325   0.682   5.558  13.520 -0.5764 -0.3607  0.4649
  123CHL1    H915326   0.793   5.565  13.528 -0.5243 -0.6491  0.0550
  123CHL1   C1015327   0.656   5.562  13.359 -0.3757  0.1739 -0.1638
  123CHL1   C1915328   0.505   5.593  13.348 -0.7066 -0.1476  0.1450
  123CHL1  H19A15329   0.479   5.697  13.377 -2.8411 -0.4841 -0.3649
  123CHL1  H19B15330   0.472   5.577  13.243 -0.8193 -2.1464  0.4394
  123CHL1  H19C15331   0.452   5.507  13.396 -1.1765 -1.2368 -2.1839
  123CHL1    C115332   0.745   5.675  13.293 -0.7844 -0.2061  0.1628
  123CHL1   H1A15333   0.709   5.775  13.325 -0.9501  0.2724 -1.4423
  123CHL1   H1B15334   0.846   5.659  13.337 -0.8540  0.0177  0.4062
  123CHL1    C215335   0.756   5.660  13.139  0.1784  0.1654 -0.2457
  123CHL1   H2A15336   0.840   5.719  13.096  0.9561  0.3409  1.3974
  123CHL1   H2B15337   0.666   5.698  13.087 -0.2850  0.6320  0.8460
  123CHL1   C2015338   0.592   5.586  14.079  0.0416 -0.9424 -0.1110
  123CHL1   H2015339   0.482   5.571  14.074 -0.3363  0.8224  1.3246
  123CHL1   C2115340   0.616   5.745  14.074  0.0417  0.2253 -0.3250
  123CHL1  H21A15341   0.566   5.779  13.980 -0.1805  0.2621 -0.1934
  123CHL1  H21B15342   0.722   5.768  14.052  0.6229 -1.8649  0.1748
  123CHL1  H21C15343   0.586   5.798  14.166  3.2809 -0.1097  1.0381
  123CHL1   C2215344   0.641   5.532  14.216  0.2185 -0.4109 -0.3133
  123CHL1  H22A15345   0.614   5.425  14.220 -1.0204 -0.0784  0.5881
  123CHL1  H22B15346   0.752   5.535  14.212  0.3599 -2.4402  0.7867
  123CHL1   C2315347   0.586   5.600  14.342 -0.4841  0.1288  0.7238
  123CHL1  H23A15348   0.647   5.688  14.372 -0.4919 -0.5516  2.9544
  123CHL1  H23B15349   0.483   5.636  14.322 -0.8037 -1.0922  0.0748
  123CHL1   C2415350   0.601   5.512  14.462 -0.0780 -0.2635 -0.1168
  123CHL1  H24A15351   0.530   5.433  14.431 -0.1515 -0.6092  0.8979
  123CHL1  H24B15352   0.706   5.477  14.472  0.4735  1.5616  0.9993
  123CHL1   C2515353   0.532   5.560  14.592  0.2212  0.1643  0.0004
  123CHL1   H2515354   0.445   5.622  14.560 -0.1604  0.6210  1.8218
  123CHL1   C2615355   0.488   5.442  14.680  0.1241  0.3952 -0.1369
  123CHL1  H26A15356   0.564   5.369  14.714 -0.4395  0.1943  0.7318
  123CHL1  H26B15357   0.455   5.487  14.776 -1.5684 -0.5158 -0.2543
  123CHL1  H26C15358   0.409   5.386  14.625 -0.2735  0.5954  0.2242
  123CHL1   C2715359   0.613   5.658  14.667 -0.2431 -0.4737  0.2206
  123CHL1  H27A15360   0.716   5.625  14.693 -0.2586 -0.2667  0.5468
  123CHL1  H27B15361   0.620   5.748  14.604 -1.3996 -0.0723  0.6344
  123CHL1  H27C15362   0.559   5.687  14.760 -2.0583 -0.0202 -0.9069
  124CHL1    C315363   5.019   5.476  13.488  0.2451 -0.8674 -0.3681
  124CHL1    H315364   5.121   5.515  13.504  0.5346 -1.9883  0.7239
  124CHL1    O315365   4.995   5.472  13.347  0.2034  0.0466 -0.6108
  124CHL1   H3'15366   4.901   5.457  13.334  0.3346 -0.1971 -1.2765
  124CHL1    C415367   4.984   5.338  13.537  0.9409  0.0774 -0.9712
  124CHL1   H4A15368   4.881   5.300  13.520  1.2315 -1.4038  0.3380
  124CHL1   H4B15369   5.063   5.276  13.489  1.0892 -0.9402  0.5361
  124CHL1    C515370   5.014   5.339  13.690  0.3089 -0.6177  0.0505
  124CHL1    C615371   5.102   5.251  13.745  0.3389  0.2981 -0.0031
  124CHL1    H615372   5.169   5.200  13.674 -0.0409 -0.4218  0.1477
  124CHL1    C715373   5.134   5.245  13.894 -0.3350 -0.9115 -0.3750
  124CHL1   H7A15374   5.178   5.148  13.925  1.1093 -0.0342  0.4581
  124CHL1   H7B15375   5.222   5.312  13.904 -1.0239  0.0518 -0.6380
  124CHL1    C815376   5.022   5.302  13.984  0.1490 -0.2177  0.4851
  124CHL1    H815377   4.927   5.246  13.969 -1.7743  2.7746  0.6171
  124CHL1   C1415378   5.071   5.325  14.127  0.4819 -0.4601  0.5097
  124CHL1   H1415379   5.164   5.385  14.117  0.8829 -1.2104 -0.4747
  124CHL1   C1515380   5.116   5.198  14.209 -0.3128  0.8655  0.1667
  124CHL1  H15A15381   5.056   5.111  14.176 -0.3739  1.1751 -0.5488
  124CHL1  H15B15382   5.222   5.182  14.179 -0.1059  3.2949 -0.5512
  124CHL1   C1615383   5.109   5.237  14.358 -0.1175 -0.0288  0.2151
  124CHL1  H16A15384   5.040   5.165  14.406 -0.3724  0.1637  0.1438
  124CHL1  H16B15385   5.209   5.233  14.406  0.2615 -3.0832 -0.6104
  124CHL1   C1715386   5.049   5.382  14.363 -0.1099  0.2787  0.5088
  124CHL1   H1715387   5.134   5.453  14.369  1.9674 -2.0950  0.9403
  124CHL1   C1315388   4.980   5.391  14.221  0.3799  0.5377 -0.4233
  124CHL1   C1815389   4.842   5.314  14.221  0.5559  0.0201  0.0455
  124CHL1  H18A15390   4.767   5.378  14.274 -1.8700 -0.4231 -2.5902
  124CHL1  H18B15391   4.812   5.278  14.120  1.5663  1.2202 -0.7222
  124CHL1  H18C15392   4.851   5.231  14.293 -0.6687  0.6820  1.0061
  124CHL1   C1215393   4.952   5.525  14.165 -0.5550 -0.4195 -0.3106
  124CHL1  H12A15394   4.885   5.578  14.235  0.1860 -0.0954  0.1666
  124CHL1  H12B15395   5.047   5.580  14.150 -0.4757 -1.2163 -3.5621
  124CHL1   C1115396   4.893   5.515  14.019 -0.0554  0.7733  0.2688
  124CHL1  H11A15397   4.789   5.476  14.027 -0.7530  2.5312  0.3663
  124CHL1  H11B15398   4.870   5.620  13.989 -0.1306  0.3961 -1.0440
  124CHL1    C915399   4.982   5.436  13.922  0.2368  0.0308 -0.6194
  124CHL1    H915400   5.072   5.500  13.919 -1.0968  1.9827 -2.1640
  124CHL1   C1015401   4.926   5.429  13.777 -0.4447  0.0469 -0.5771
  124CHL1   C1915402   4.778   5.362  13.778  0.1449 -0.0617 -0.1661
  124CHL1  H19A15403   4.776   5.261  13.824  1.9713 -0.0306  0.0659
  124CHL1  H19B15404   4.710   5.431  13.832  2.2489 -0.2114  2.9207
  124CHL1  H19C15405   4.746   5.339  13.674 -1.3501 -0.1359  0.2872
  124CHL1    C115406   4.930   5.565  13.711  0.0922 -0.2326  0.9496
  124CHL1   H1A15407   4.846   5.631  13.741 -0.6256 -1.2478  1.2203
  124CHL1   H1B15408   5.021   5.625  13.732  0.1851 -0.3475  0.8767
  124CHL1    C215409   4.915   5.570  13.556  0.7798 -0.4093  0.1127
  124CHL1   H2A15410   4.931   5.672  13.515  0.6400 -0.8033 -0.9553
  124CHL1   H2B15411   4.806   5.556  13.539  0.3363  0.2577  2.1183
  124CHL1   C2015412   4.975   5.408  14.489 -0.2015  0.8403  0.0932
  124CHL1   H2015413   4.890   5.339  14.513 -0.5701  0.0172 -3.1672
  124CHL1   C2115414   4.912   5.554  14.497  0.0944  0.2283 -0.1483
  124CHL1  H21A15415   4.860   5.570  14.594  1.5477  1.2017  0.5038
  124CHL1  H21B15416   4.839   5.565  14.414  1.3401  1.6573 -1.1002
  124CHL1  H21C15417   4.983   5.639  14.492 -1.3920  1.7906  2.6192
  124CHL1   C2215418   5.071   5.392  14.616  0.3369 -0.2667  0.1481
  124CHL1  H22A15419   5.170   5.347  14.597  1.0668  2.2867 -2.9519
  124CHL1  H22B15420   5.103   5.494  14.647 -0.1904  0.3002 -1.1121
  124CHL1   C2315421   4.999   5.325  14.737 -1.0197  0.5211  0.0969
  124CHL1  H23A15422   4.922   5.395  14.776 -2.6671 -1.6322  0.8948
  124CHL1  H23B15423   4.940   5.240  14.697 -1.6531  1.0014 -0.0181
  124CHL1   C2415424   5.091   5.278  14.856 -0.0596  0.0036 -0.0224
  124CHL1  H24A15425   5.034   5.223  14.934  0.5017 -1.1301 -0.3878
  124CHL1  H24B15426   5.153   5.203  14.803 -1.8112 -0.6444 -1.2419
  124CHL1   C2515427   5.179   5.383  14.927  0.5902  0.2576 -0.7056
  124CHL1   H2515428   5.247   5.419  14.847 -0.5628 -1.0201 -2.3315
  124CHL1   C2615429   5.100   5.496  14.987  0.0142  0.0745  0.1928
  124CHL1  H26A15430   5.049   5.557  14.910  2.3804 -1.0209 -2.4154
  124CHL1  H26B15431   5.019   5.454  15.051  0.2615  0.4732  0.7729
  124CHL1  H26C15432   5.167   5.551  15.056  0.4966 -0.9563  0.5669
  124CHL1   C2715433   5.263   5.311  15.039 -0.2172 -0.5030  0.3346
  124CHL1  H27A15434   5.330   5.386  15.085 -1.8436 -0.1889  2.3115
  124CHL1  H27B15435   5.192   5.278  15.118 -0.4667 -1.9217 -0.4443
  124CHL1  H27C15436   5.330   5.233  14.997 -2.0050 -1.1160 -1.5673
  125CHL1    C315437   6.103   4.930  13.528  0.6871  0.4313 -0.2559
  125CHL1    H315438   6.129   5.035  13.552 -2.7288  0.9484  2.0151
  125CHL1    O315439   6.118   4.916  13.388 -0.3626 -0.2204 -0.0216
  125CHL1   H3'15440   6.104   4.822  13.379 -0.3662 -0.1897 -0.3383
  125CHL1    C415441   6.190   4.835  13.607 -0.0123  0.0338 -0.6528
  125CHL1   H4A15442   6.167   4.733  13.570 -1.1115 -0.1457  0.4841
  125CHL1   H4B15443   6.292   4.848  13.563 -0.2689 -2.0781 -2.0265
  125CHL1    C515444   6.177   4.840  13.759  0.2331  0.2860 -0.6551
  125CHL1    C615445   6.289   4.854  13.830  0.0521 -0.2965  0.1050
  125CHL1    H615446   6.390   4.851  13.788  0.7044 -0.2925  1.5957
  125CHL1    C715447   6.286   4.862  13.977  0.4633 -0.9253  0.0935
  125CHL1   H7A15448   6.359   4.799  14.032  0.3861 -0.4626  0.7322
  125CHL1   H7B15449   6.314   4.968  13.996 -1.5091 -0.1119 -1.2236
  125CHL1    C815450   6.142   4.832  14.040  0.0635 -0.5583  0.3212
  125CHL1    H815451   6.143   4.723  14.059  0.4117 -0.5011  0.6314
  125CHL1   C1415452   6.145   4.879  14.187 -0.0487 -0.2367  0.4588
  125CHL1   H1415453   6.146   4.990  14.175 -3.0959 -0.2870 -1.2525
  125CHL1   C1515454   6.258   4.832  14.278 -0.1229  0.7367 -0.5834
  125CHL1  H15A15455   6.266   4.722  14.265 -0.7062  0.5414  0.5978
  125CHL1  H15B15456   6.358   4.876  14.261 -0.1198  1.0320  0.1969
  125CHL1   C1615457   6.201   4.866  14.416 -0.1633  0.2952 -0.1876
  125CHL1  H16A15458   6.206   4.775  14.479 -1.9722 -0.0411 -0.4662
  125CHL1  H16B15459   6.263   4.947  14.461  0.1290 -0.6518  1.1530
  125CHL1   C1715460   6.056   4.918  14.404 -0.4509 -0.6700 -0.1937
  125CHL1   H1715461   6.053   5.029  14.394 -0.7604 -0.8107 -1.9801
  125CHL1   C1315462   6.014   4.866  14.267 -0.1952  0.0536  0.0822
  125CHL1   C1815463   5.982   4.717  14.281  0.2891 -0.3789 -0.6393
  125CHL1  H18A15464   5.976   4.660  14.186 -0.3617  0.6169 -1.2178
  125CHL1  H18B15465   6.045   4.666  14.356  0.1103  1.6971  1.0230
  125CHL1  H18C15466   5.879   4.711  14.324  1.7338 -1.2280  3.1284
  125CHL1   C1215467   5.901   4.933  14.192 -0.5353 -0.0623  0.4132
  125CHL1  H12A15468   5.802   4.922  14.242  0.8942  1.9070  4.0234
  125CHL1  H12B15469   5.924   5.041  14.199 -0.2345 -0.1123  0.1860
  125CHL1   C1115470   5.885   4.893  14.035 -0.0712  0.2859 -0.7667
  125CHL1  H11A15471   5.836   4.794  14.027 -0.7854  0.3075  2.2159
  125CHL1  H11B15472   5.831   4.973  13.979 -2.6502 -0.9361 -0.1486
  125CHL1    C915473   6.028   4.895  13.959 -0.3597 -0.1699  0.2848
  125CHL1    H915474   6.050   5.004  13.958  1.9232 -0.5607  1.5834
  125CHL1   C1015475   6.023   4.838  13.814  0.3897 -0.4406 -0.5752
  125CHL1   C1915476   5.957   4.700  13.807 -0.1343  0.1606  0.6780
  125CHL1  H19A15477   6.008   4.627  13.873 -3.2574 -2.3074  0.5670
  125CHL1  H19B15478   5.848   4.699  13.828 -0.3895 -0.8352 -0.6007
  125CHL1  H19C15479   5.982   4.657  13.708 -3.4138 -0.4415 -0.0021
  125CHL1    C115480   5.938   4.932  13.717  0.8890  0.0993  0.2895
  125CHL1   H1A15481   5.828   4.919  13.729  0.5808 -2.1687 -3.4168
  125CHL1   H1B15482   5.968   5.037  13.739  1.2410  0.5988 -2.3036
  125CHL1    C215483   5.957   4.914  13.562 -0.7190 -0.1469 -0.3942
  125CHL1   H2A15484   5.899   4.992  13.507 -0.3509  1.2454  1.0883
  125CHL1   H2B15485   5.924   4.817  13.520  0.7280  0.1991 -2.4809
  125CHL1   C2015486   5.974   4.891  14.534 -0.7304  0.3856 -0.2838
  125CHL1   H2015487   5.972   4.781  14.554 -1.7735  0.6695  1.3934
  125CHL1   C2115488   5.830   4.940  14.517  0.1303  0.7199 -0.2868
  125CHL1  H21A15489   5.770   4.935  14.611  0.5773  0.0407 -0.0308
  125CHL1  H21B15490   5.782   4.876  14.440  1.5544 -0.6212 -0.0899
  125CHL1  H21C15491   5.828   5.045  14.481  1.1153  0.1630 -2.0721
  125CHL1   C2215492   6.044   4.946  14.662 -1.0093  0.2298 -0.6488
  125CHL1  H22A15493   6.152   4.920  14.673 -0.9035  0.5873 -0.8452
  125CHL1  H22B15494   6.046   5.056  14.651  1.3890  0.3946  0.6639
  125CHL1   C2315495   5.977   4.905  14.794  0.2321 -0.5982 -0.1748
  125CHL1  H23A15496   5.866   4.902  14.792  0.2023 -0.0002  0.1890
  125CHL1  H23B15497   6.000   4.798  14.811 -1.2522 -0.9970 -0.5492
  125CHL1   C2415498   6.026   5.003  14.900 -0.3550 -0.2837 -0.2452
  125CHL1  H24A15499   6.135   5.018  14.888 -0.6598  2.8518  0.1994
  125CHL1  H24B15500   5.982   5.104  14.885 -1.8796 -0.6178  1.5635
  125CHL1   C2515501   6.000   4.962  15.046 -0.0745  0.2056  0.1899
  125CHL1   H2515502   6.014   4.855  15.072 -2.1039 -0.2683 -0.4152
  125CHL1   C2615503   6.085   5.049  15.138 -0.4322 -0.1127 -0.2890
  125CHL1  H26A15504   6.065   5.158  15.129  1.1445  0.1904 -0.4100
  125CHL1  H26B15505   6.066   5.018  15.243  2.2984 -0.8118  0.0716
  125CHL1  H26C15506   6.193   5.029  15.119  0.4535  1.4648  2.3899
  125CHL1   C2715507   5.849   4.984  15.070 -0.3121 -0.6141  0.1201
  125CHL1  H27A15508   5.823   4.971  15.177 -3.2136 -1.8048 -0.6248
  125CHL1  H27B15509   5.828   5.093  15.062  1.0046 -0.0541  3.0721
  125CHL1  H27C15510   5.784   4.915  15.013 -1.8399  0.4342  0.5286
  126CHL1    C315511   3.777   6.732  13.051  0.1160  0.4444 -0.4660
  126CHL1    H315512   3.860   6.666  13.084  0.3071 -0.3359 -2.3744
  126CHL1    O315513   3.777   6.722  12.913  0.4151 -0.1499  0.1644
  126CHL1   H3'15514   3.764   6.630  12.890  1.9205 -0.5328  0.7443
  126CHL1    C415515   3.649   6.705  13.125  0.0102 -0.8588 -0.4312
  126CHL1   H4A15516   3.573   6.777  13.087  1.6899  1.4115  0.3280
  126CHL1   H4B15517   3.633   6.599  13.098 -1.0592 -0.5663 -1.0075
  126CHL1    C515518   3.669   6.713  13.275 -0.2118  0.0415 -0.1864
  126CHL1    C615519   3.645   6.613  13.358  0.5434 -0.6431  0.1391
  126CHL1    H615520   3.600   6.525  13.309 -0.4529  0.3020 -0.6731
  126CHL1    C715521   3.653   6.620  13.507  0.2383 -0.3311 -0.3327
  126CHL1   H7A15522   3.556   6.575  13.537 -0.3257 -0.1844 -1.8515
  126CHL1   H7B15523   3.719   6.549  13.562 -2.2869 -1.8242  0.9754
  126CHL1    C815524   3.668   6.762  13.556 -0.1006  0.3929  0.4609
  126CHL1    H815525   3.571   6.814  13.541 -0.6697 -0.8081 -0.1115
  126CHL1   C1415526   3.711   6.763  13.697 -0.2132 -0.2930 -0.2177
  126CHL1   H1415527   3.814   6.723  13.710  0.4400  1.6830  1.3287
  126CHL1   C1515528   3.618   6.690  13.797  0.2631  0.1298  0.3825
  126CHL1  H15A15529   3.512   6.707  13.770  0.2219 -2.1894 -1.2120
  126CHL1  H15B15530   3.633   6.580  13.798 -2.3706 -0.2998 -0.7817
  126CHL1   C1615531   3.648   6.744  13.940  0.6454 -0.3077  0.7140
  126CHL1  H16A15532   3.551   6.782  13.978 -0.2905 -1.0735 -0.8110
  126CHL1  H16B15533   3.688   6.670  14.012  2.6129 -1.5539 -1.4759
  126CHL1   C1715534   3.746   6.861  13.910 -0.4948 -0.1364 -0.5246
  126CHL1   H1715535   3.842   6.804  13.916 -0.7684 -0.5830 -0.3693
  126CHL1   C1315536   3.728   6.903  13.761  0.2829  0.6956  0.3731
  126CHL1   C1815537   3.599   6.991  13.751 -0.8421  0.4204  0.2249
  126CHL1  H18A15538   3.627   7.082  13.809  0.6312 -1.2782  2.3258
  126CHL1  H18B15539   3.565   7.019  13.649 -0.1683  0.2457 -0.0545
  126CHL1  H18C15540   3.515   6.936  13.798  1.1990 -0.4820  3.1132
  126CHL1   C1215541   3.837   6.964  13.687 -0.6786 -0.5567  0.1418
  126CHL1  H12A15542   3.855   7.063  13.734 -1.8121 -0.6198  0.7482
  126CHL1  H12B15543   3.924   6.896  13.699 -0.0368  0.0885 -0.7571
  126CHL1   C1115544   3.811   6.976  13.536  0.0495 -0.1538  0.5771
  126CHL1  H11A15545   3.731   7.052  13.526 -1.1505 -1.1180  2.3758
  126CHL1  H11B15546   3.901   7.014  13.484 -1.1536  3.8798  1.1366
  126CHL1    C915547   3.779   6.837  13.477  0.4469  0.2852  0.3006
  126CHL1    H915548   3.875   6.781  13.479  0.8010  0.8705 -0.1778
  126CHL1   C1015549   3.737   6.844  13.329 -0.4957  0.7849  0.2011
  126CHL1   C1915550   3.635   6.963  13.319  0.0661  0.0180  0.0531
  126CHL1  H19A15551   3.568   6.959  13.407  0.7457 -0.3174  0.5704
  126CHL1  H19B15552   3.695   7.056  13.323  0.6919 -0.4192  1.4544
  126CHL1  H19C15553   3.574   6.958  13.226  2.6021  1.0702 -1.7963
  126CHL1    C115554   3.866   6.867  13.242  0.5188  0.0412 -0.0669
  126CHL1   H1A15555   3.928   6.955  13.271 -0.3126  0.4115  0.6133
  126CHL1   H1B15556   3.931   6.782  13.273  0.5750 -0.0272 -0.3699
  126CHL1    C215557   3.832   6.870  13.093  0.2488  0.2072  0.4650
  126CHL1   H2A15558   3.924   6.874  13.031  1.5260 -0.8389  2.1746
  126CHL1   H2B15559   3.763   6.951  13.062  0.0404 -0.2798 -0.3864
  126CHL1   C2015560   3.756   6.977  14.015 -0.3136  0.5073 -0.3959
  126CHL1   H2015561   3.763   7.077  13.966  2.9737  0.7360  0.3096
  126CHL1   C2115562   3.889   6.970  14.089 -0.2523  0.0208  0.3032
  126CHL1  H21A15563   3.909   7.063  14.146  0.9166  1.2743 -2.0242
  126CHL1  H21B15564   3.978   6.952  14.025  0.4558 -0.8416  1.4922
  126CHL1  H21C15565   3.886   6.884  14.159 -2.9421 -0.3412 -0.1504
  126CHL1   C2215566   3.638   6.985  14.113 -0.5792 -0.0336 -0.2912
  126CHL1  H22A15567   3.541   6.975  14.061  0.1630  0.3754 -1.7922
  126CHL1  H22B15568   3.652   6.909  14.193 -0.3848 -0.0152 -0.3091
  126CHL1   C2315569   3.636   7.131  14.175 -0.2357  0.0509  0.4322
  126CHL1  H23A15570   3.620   7.129  14.285 -2.1236 -1.8064  0.1734
  126CHL1  H23B15571   3.735   7.181  14.169  0.0396 -0.4586  0.6867
  126CHL1   C2415572   3.534   7.221  14.107  0.7665  0.1699  0.0416
  126CHL1  H24A15573   3.581   7.267  14.018  2.6338 -0.5309  0.5986
  126CHL1  H24B15574   3.443   7.171  14.068 -0.2478  2.2716 -0.4297
  126CHL1   C2515575   3.488   7.339  14.203 -0.2655  0.3760  0.5395
  126CHL1   H2515576   3.438   7.297  14.293 -0.1828  0.9111  0.8402
  126CHL1   C2615577   3.612   7.411  14.247 -0.5067  0.7881  0.1732
  126CHL1  H26A15578   3.673   7.343  14.309 -2.3704 -0.2414  0.9455
  126CHL1  H26B15579   3.671   7.451  14.161  0.6102  1.1989  1.1083
  126CHL1  H26C15580   3.584   7.497  14.311 -0.3653  1.6648 -0.9109
  126CHL1   C2715581   3.401   7.437  14.128  0.8230 -0.0323 -0.5071
  126CHL1  H27A15582   3.452   7.484  14.041 -1.2202 -0.5892 -2.0950
  126CHL1  H27B15583   3.317   7.383  14.079 -0.1175 -0.2889  1.2735
  126CHL1  H27C15584   3.367   7.519  14.195  1.2220 -0.6143  0.4205
  127CHL1    C315585   4.434   5.902  13.545 -0.2137  0.6677 -0.0169
  127CHL1    H315586   4.436   5.797  13.580  2.0203  0.8621  0.6181
  127CHL1    O315587   4.469   5.900  13.411  0.3023 -0.8220 -0.0914
  127CHL1   H3'15588   4.443   5.984  13.372  2.7219  0.1207  0.1215
  127CHL1    C415589   4.299   5.971  13.568 -0.4321  0.2147 -0.4439
  127CHL1   H4A15590   4.303   6.069  13.514  1.5492  0.1291 -0.5234
  127CHL1   H4B15591   4.220   5.912  13.518 -1.1269  1.4522 -0.8451
  127CHL1    C515592   4.272   5.993  13.709 -0.5870 -0.1781 -0.5958
  127CHL1    C615593   4.156   5.959  13.777  0.0565 -0.1611  0.3623
  127CHL1    H615594   4.079   5.911  13.714  2.8612 -1.1469 -2.5802
  127CHL1    C715595   4.124   5.993  13.919  0.0739  0.0020 -0.1185
  127CHL1   H7A15596   4.024   6.041  13.915  0.8616  1.8043  0.6566
  127CHL1   H7B15597   4.110   5.897  13.974  3.4860 -0.5817 -0.0259
  127CHL1    C815598   4.222   6.094  13.989 -0.0216  0.9511 -0.7168
  127CHL1    H815599   4.188   6.196  13.962 -1.1810  0.0622 -2.9016
  127CHL1   C1415600   4.217   6.074  14.138 -0.3429 -0.5847  0.2059
  127CHL1   H1415601   4.259   5.975  14.166  0.3708 -0.1655  0.6681
  127CHL1   C1515602   4.081   6.072  14.203  0.0310  0.1340 -0.0762
  127CHL1  H15A15603   4.020   6.152  14.157  1.3337  0.5858 -1.0880
  127CHL1  H15B15604   4.026   5.979  14.177 -0.2722  0.5687 -1.0348
  127CHL1   C1615605   4.100   6.096  14.354 -0.1103  0.4710  0.6072
  127CHL1  H16A15606   4.026   6.167  14.398  0.0037  0.8426  0.2061
  127CHL1  H16B15607   4.103   5.997  14.404  2.3765 -0.1263 -0.5917
  127CHL1   C1715608   4.249   6.139  14.362  0.1515  0.2253  0.3337
  127CHL1   H1715609   4.302   6.043  14.376  1.2442  1.0508  2.3195
  127CHL1   C1315610   4.297   6.178  14.213  0.3323  0.0692 -0.6407
  127CHL1   C1815611   4.251   6.324  14.173  0.7186 -0.2645 -0.0824
  127CHL1  H18A15612   4.286   6.356  14.073 -1.0596  0.5541 -0.4794
  127CHL1  H18B15613   4.141   6.335  14.173  0.5435 -1.7613 -0.4953
  127CHL1  H18C15614   4.289   6.401  14.244 -1.7272  2.6605 -1.7043
  127CHL1   C1215615   4.447   6.158  14.180 -0.0046  0.0560 -0.3647
  127CHL1  H12A15616   4.509   6.243  14.216 -1.0436  0.4573  0.5295
  127CHL1  H12B15617   4.478   6.061  14.225  1.4436  0.4856 -0.3697
  127CHL1   C1115618   4.471   6.154  14.026 -0.4120 -0.0308  0.5220
  127CHL1  H11A15619   4.464   6.259  13.993  0.9258 -0.4746 -1.3327
  127CHL1  H11B15620   4.577   6.124  14.009 -0.2735  0.2351  0.9058
  127CHL1    C915621   4.365   6.066  13.941 -0.8264 -0.3128  0.3749
  127CHL1    H915622   4.395   5.966  13.980  0.2184  0.9817  3.1908
  127CHL1   C1015623   4.387   6.064  13.787 -0.1148 -0.0723 -0.7241
  127CHL1   C1915624   4.394   6.215  13.742  0.3366 -0.6278  0.2723
  127CHL1  H19A15625   4.461   6.283  13.798 -0.5946  0.6522 -0.1139
  127CHL1  H19B15626   4.427   6.214  13.636  0.1016 -2.2154  0.1862
  127CHL1  H19C15627   4.289   6.248  13.757  0.4642  0.0791 -0.3736
  127CHL1    C115628   4.518   5.996  13.770 -0.3539 -0.0104 -0.5033
  127CHL1   H1A15629   4.605   6.055  13.807  0.5994 -2.3124  1.1928
  127CHL1   H1B15630   4.524   5.898  13.822 -1.6313 -0.3726 -0.9873
  127CHL1    C215631   4.554   5.969  13.625  0.7205 -0.4200  0.4082
  127CHL1   H2A15632   4.638   5.897  13.615  0.4299 -0.5876 -1.1564
  127CHL1   H2B15633   4.589   6.069  13.591  0.6909 -0.7201 -0.5463
  127CHL1   C2015634   4.269   6.233  14.482  0.1091  0.0680  0.1524
  127CHL1   H2015635   4.198   6.318  14.471  0.1599  0.1378  0.3691
  127CHL1   C2115636   4.400   6.302  14.493  0.7182  0.0454  0.2764
  127CHL1  H21A15637   4.481   6.238  14.453  1.5577  0.0098  1.9378
  127CHL1  H21B15638   4.441   6.309  14.596  1.6117 -0.4398 -0.0351
  127CHL1  H21C15639   4.404   6.392  14.428  0.8741  1.1966  1.8207
  127CHL1   C2215640   4.235   6.157  14.608 -0.0141 -0.0844  0.3310
  127CHL1  H22A15641   4.149   6.088  14.597  2.6153 -3.2277 -2.9058
  127CHL1  H22B15642   4.319   6.089  14.630 -0.3799 -0.6931 -0.1223
  127CHL1   C2315643   4.205   6.258  14.719  0.0523  0.0053  1.3640
  127CHL1  H23A15644   4.291   6.326  14.739  1.6649 -2.0451  1.6828
  127CHL1  H23B15645   4.126   6.321  14.674  1.0022 -1.8190 -3.3288
  127CHL1   C2415646   4.153   6.202  14.853  0.1767  0.5004 -0.1398
  127CHL1  H24A15647   4.060   6.143  14.836 -0.6878  1.4275  1.1903
  127CHL1  H24B15648   4.229   6.130  14.892  2.3870  1.7342 -1.9314
  127CHL1   C2515649   4.123   6.299  14.962 -0.0495 -0.1645 -0.1547
  127CHL1   H2515650   4.221   6.334  15.001  0.3150 -1.1165 -0.1832
  127CHL1   C2615651   4.037   6.421  14.923 -0.1304 -0.0670  0.5358
  127CHL1  H26A15652   4.023   6.500  15.000  1.2620  0.0758  0.6804
  127CHL1  H26B15653   4.090   6.470  14.839 -2.0438 -0.0171 -0.6879
  127CHL1  H26C15654   3.936   6.392  14.888  0.0962 -0.2509  0.0261
  127CHL1   C2715655   4.046   6.222  15.061  0.3546  0.2807  0.0229
  127CHL1  H27A15656   3.942   6.194  15.036 -0.1854  2.2622 -0.1134
  127CHL1  H27B15657   4.106   6.130  15.073 -0.0445 -0.4055 -2.6602
  127CHL1  H27C15658   4.040   6.279  15.157  1.6331  0.0259  0.2729
  128CHL1    C315659   3.850   3.972  13.548 -0.3879 -0.0913 -0.3352
  128CHL1    H315660   3.883   3.872  13.510 -1.7423 -1.3531  1.6444
  128CHL1    O315661   3.798   4.051  13.439 -0.1424  0.9098 -0.1220
  128CHL1   H3'15662   3.822   4.142  13.458  2.4475 -0.1393  2.3400
  128CHL1    C415663   3.746   3.939  13.657 -0.0522  0.3042 -0.8300
  128CHL1   H4A15664   3.699   4.038  13.676 -1.8609 -0.7895  0.7074
  128CHL1   H4B15665   3.668   3.878  13.606  0.0597  0.7313 -1.5343
  128CHL1    C515666   3.788   3.878  13.790 -0.7545 -0.6167  0.0668
  128CHL1    C615667   3.727   3.764  13.836  0.1864  0.4629 -0.2730
  128CHL1    H615668   3.640   3.724  13.782  0.0074  1.3999 -0.6942
  128CHL1    C715669   3.764   3.698  13.967  0.1720  0.4638  0.0016
  128CHL1   H7A15670   3.676   3.656  14.022  0.7283 -1.7612 -0.6833
  128CHL1   H7B15671   3.822   3.608  13.935  1.5459  2.1062 -2.4657
  128CHL1    C815672   3.843   3.800  14.053  0.2252 -0.2731  0.7326
  128CHL1    H815673   3.762   3.872  14.078 -0.7545 -0.9518 -0.3921
  128CHL1   C1415674   3.902   3.739  14.178 -0.2212  0.1244 -0.2331
  128CHL1   H1415675   3.969   3.660  14.138 -0.4528 -2.5684  4.0700
  128CHL1   C1515676   3.806   3.663  14.270  0.2861 -0.3966  0.3038
  128CHL1  H15A15677   3.720   3.729  14.297 -0.4323 -1.3291  0.3628
  128CHL1  H15B15678   3.766   3.566  14.232 -1.9064  0.4509  0.2650
  128CHL1   C1615679   3.896   3.633  14.390  0.0375  0.0093 -0.4841
  128CHL1  H16A15680   3.834   3.620  14.481 -2.4976  1.9787 -1.8049
  128CHL1  H16B15681   3.934   3.532  14.363  0.3248  0.2517 -1.0160
  128CHL1   C1715682   4.004   3.739  14.396  0.8306  0.2748 -0.1595
  128CHL1   H1715683   4.094   3.685  14.362  1.0230  1.2263 -1.2205
  128CHL1   C1315684   3.974   3.830  14.271 -0.0504 -0.6023  0.4909
  128CHL1   C1815685   3.884   3.952  14.307  0.1708 -0.2041 -0.2400
  128CHL1  H18A15686   3.929   4.030  14.372  0.3708 -0.0716 -0.5369
  128CHL1  H18B15687   3.838   4.017  14.229  1.0043  0.5941 -0.0784
  128CHL1  H18C15688   3.803   3.906  14.367 -0.6385  0.7611 -0.5731
  128CHL1   C1215689   4.102   3.870  14.193  0.3286 -0.4478  0.2845
  128CHL1  H12A15690   4.153   3.942  14.260 -2.3246  1.3299  0.5491
  128CHL1  H12B15691   4.177   3.790  14.175  1.4802  0.1813  2.0474
  128CHL1   C1115692   4.061   3.955  14.062  0.1190  0.8415  0.3421
  128CHL1  H11A15693   4.045   4.056  14.105 -0.5265  1.2574 -0.8309
  128CHL1  H11B15694   4.154   3.964  14.002 -0.2118  1.1818 -0.1253
  128CHL1    C915695   3.956   3.875  13.975 -0.1933 -0.6933 -0.0680
  128CHL1    H915696   4.013   3.786  13.938  0.2789 -0.3875 -0.0820
  128CHL1   C1015697   3.904   3.959  13.859  0.0028 -0.4437  0.4876
  128CHL1   C1915698   3.849   4.096  13.913 -0.3881  0.3642 -0.0165
  128CHL1  H19A15699   3.940   4.140  13.958 -0.7860 -0.9960  2.3295
  128CHL1  H19B15700   3.801   4.157  13.834 -0.5506  1.3947  0.8567
  128CHL1  H19C15701   3.774   4.062  13.988 -1.1559 -2.9668 -2.0907
  128CHL1    C115702   4.010   3.977  13.741  0.2345  0.4118  0.8266
  128CHL1   H1A15703   4.096   4.028  13.789  0.9610  0.7755 -0.8052
  128CHL1   H1B15704   4.046   3.875  13.717 -2.6923 -0.8502  1.3587
  128CHL1    C215705   3.965   4.051  13.610  0.0412  0.3911  0.2828
  128CHL1   H2A15706   4.055   4.058  13.544  0.2997  1.4129  0.7239
  128CHL1   H2B15707   3.937   4.156  13.632 -0.2344  0.0214  1.8035
  128CHL1   C2015708   4.036   3.799  14.541 -0.3265 -0.0348 -0.1028
  128CHL1   H2015709   3.946   3.849  14.583  0.7480  1.4362  0.5143
  128CHL1   C2115710   4.149   3.902  14.521 -0.9775 -0.4351  0.5389
  128CHL1  H21A15711   4.130   3.979  14.444 -1.9023  0.9837  2.1103
  128CHL1  H21B15712   4.249   3.854  14.517 -1.8485 -2.2872  0.0943
  128CHL1  H21C15713   4.157   3.969  14.610 -0.4964 -0.7479  0.7347
  128CHL1   C2215714   4.066   3.691  14.646 -0.2465  0.8585 -0.1355
  128CHL1  H22A15715   3.980   3.621  14.651 -0.0826  0.7407  1.8273
  128CHL1  H22B15716   4.142   3.618  14.611 -0.7938  0.8337 -1.3365
  128CHL1   C2315717   4.090   3.748  14.782  0.3864 -0.0154 -0.4811
  128CHL1  H23A15718   4.189   3.798  14.786  1.2415 -1.7089  2.2676
  128CHL1  H23B15719   4.002   3.812  14.804  0.4236 -0.7322  1.9922
  128CHL1   C2415720   4.099   3.647  14.898  0.0561 -0.6512 -0.0843
  128CHL1  H24A15721   4.191   3.588  14.880  0.1159  0.1398 -2.6920
  128CHL1  H24B15722   4.120   3.702  14.992 -0.2820  0.0295 -0.4044
  128CHL1   C2515723   3.980   3.551  14.927 -0.5713 -0.0762  0.1692
  128CHL1   H2515724   3.949   3.504  14.831 -0.3105  0.2448 -0.0740
  128CHL1   C2615725   4.038   3.437  15.016  0.3788 -0.2129  0.7119
  128CHL1  H26A15726   4.076   3.475  15.114 -0.0108 -3.4953  2.2504
  128CHL1  H26B15727   3.959   3.364  15.043  1.3651 -1.4096  0.4544
  128CHL1  H26C15728   4.122   3.384  14.968 -0.1008  0.5117 -0.9939
  128CHL1   C2715729   3.861   3.626  14.999 -0.5242 -0.3522  0.1498
  128CHL1  H27A15730   3.833   3.718  14.944 -2.1518 -0.8711  0.0744
  128CHL1  H27B15731   3.775   3.557  15.010 -1.3659  0.9695  2.4075
  128CHL1  H27C15732   3.895   3.661  15.099  1.4904 -0.1121 -0.5575
  129CHL1    C315733   1.218   6.360  13.044 -0.1770 -0.1018  0.0120
  129CHL1    H315734   1.146   6.279  13.066 -0.1789  0.4880  2.4050
  129CHL1    O315735   1.247   6.389  12.899 -0.1285  0.0958 -0.3000
  129CHL1   H3'15736   1.168   6.374  12.848 -0.6787 -1.9371  1.0476
  129CHL1    C415737   1.164   6.489  13.113  0.0714 -0.0349  0.4985
  129CHL1   H4A15738   1.230   6.574  13.085 -0.4559  0.2506  0.1191
  129CHL1   H4B15739   1.075   6.524  13.056  0.6714 -1.4486 -1.4001
  129CHL1    C515740   1.160   6.486  13.266 -0.1607 -0.1520  0.0221
  129CHL1    C615741   1.045   6.513  13.328 -0.2341 -0.0806  0.1985
  129CHL1    H615742   0.957   6.527  13.262 -0.7757 -0.7019  0.7726
  129CHL1    C715743   1.026   6.504  13.476  0.6312 -0.3611 -0.5679
  129CHL1   H7A15744   0.970   6.593  13.514  0.9126 -0.5195  0.2532
  129CHL1   H7B15745   0.968   6.411  13.493  0.4479 -0.1291  0.1154
  129CHL1    C815746   1.163   6.504  13.548  0.0200  0.2689  0.0320
  129CHL1    H815747   1.209   6.605  13.548  1.9806 -0.4354 -4.2008
  129CHL1   C1415748   1.145   6.461  13.697  0.9638 -0.3697 -0.1046
  129CHL1   H1415749   1.109   6.357  13.684  1.8453 -0.5834 -0.8912
  129CHL1   C1515750   1.032   6.531  13.778  0.5555 -0.5327 -0.1860
  129CHL1  H15A15751   1.031   6.642  13.774  1.1514 -0.5721 -2.4169
  129CHL1  H15B15752   0.930   6.497  13.751  0.0171  0.6207  0.3163
  129CHL1   C1615753   1.064   6.499  13.920  0.1888  0.6465 -0.0394
  129CHL1  H16A15754   1.069   6.599  13.969  0.9044  0.8806 -0.5811
  129CHL1  H16B15755   0.983   6.445  13.974 -0.7245  1.6346 -0.3808
  129CHL1   C1715756   1.205   6.431  13.915 -0.6005 -0.2391 -0.4912
  129CHL1   H1715757   1.185   6.322  13.915  0.5912 -0.4751 -0.6488
  129CHL1   C1315758   1.271   6.462  13.781  0.4925  0.4463  0.2128
  129CHL1   C1815759   1.337   6.601  13.800 -0.1495 -0.7401  0.2395
  129CHL1  H18A15760   1.269   6.674  13.850  2.0640  1.7439 -0.1515
  129CHL1  H18B15761   1.435   6.616  13.850  0.4201  3.0219 -1.6417
  129CHL1  H18C15762   1.364   6.634  13.697  0.7182 -1.0288  0.3615
  129CHL1   C1215763   1.363   6.353  13.716 -1.1127 -0.0784  0.0782
  129CHL1  H12A15764   1.461   6.349  13.769  0.1421  2.6638 -1.7944
  129CHL1  H12B15765   1.322   6.250  13.718  1.6985 -1.3789 -1.7799
  129CHL1   C1115766   1.393   6.384  13.573  0.4088  0.1334 -0.5809
  129CHL1  H11A15767   1.454   6.476  13.584  0.1904  0.0295  2.2086
  129CHL1  H11B15768   1.459   6.308  13.527 -1.0803 -1.9077  0.4760
  129CHL1    C915769   1.267   6.415  13.484  0.2581 -0.8044 -0.5123
  129CHL1    H915770   1.215   6.317  13.486 -0.9714 -0.1852 -0.7558
  129CHL1   C1015771   1.297   6.446  13.336  0.2609 -0.3122  0.2997
  129CHL1   C1915772   1.396   6.569  13.328  0.7183 -0.8046  0.2861
  129CHL1  H19A15773   1.414   6.603  13.223 -0.2664  1.4382  0.7694
  129CHL1  H19B15774   1.366   6.653  13.395  1.3600 -0.7738  0.5374
  129CHL1  H19C15775   1.497   6.545  13.366  1.2980 -0.4230 -0.9450
  129CHL1    C115776   1.355   6.315  13.262  0.7829 -0.5076 -0.1249
  129CHL1   H1A15777   1.464   6.306  13.286  1.1074  2.8652  0.0934
  129CHL1   H1B15778   1.296   6.231  13.305  0.5629 -0.3510 -0.1253
  129CHL1    C215779   1.357   6.315  13.103 -0.5148 -0.2046 -0.6608
  129CHL1   H2A15780   1.381   6.213  13.067  2.2940 -0.1727  0.8413
  129CHL1   H2B15781   1.437   6.381  13.064 -0.6252  0.3797  0.0544
  129CHL1   C2015782   1.285   6.451  14.048 -0.6369  0.3281 -0.1540
  129CHL1   H2015783   1.304   6.560  14.064 -0.8829  0.5262 -1.1520
  129CHL1   C2115784   1.422   6.372  14.039  0.3984  0.2932  0.0707
  129CHL1  H21A15785   1.465   6.378  14.141 -0.4900  0.9889  0.4116
  129CHL1  H21B15786   1.501   6.410  13.970 -0.2511  0.2545 -0.7035
  129CHL1  H21C15787   1.399   6.264  14.029 -2.3159  0.6999  1.1079
  129CHL1   C2215788   1.207   6.401  14.173 -0.0309 -0.7211 -0.5242
  129CHL1  H22A15789   1.105   6.445  14.167  0.3669  0.7393  2.1132
  129CHL1  H22B15790   1.199   6.290  14.170 -2.8143 -0.6137 -0.2711
  129CHL1   C2315791   1.261   6.453  14.315 -0.6101  0.6461  0.8091
  129CHL1  H23A15792   1.353   6.395  14.336 -1.7781 -1.2350  0.9885
  129CHL1  H23B15793   1.287   6.561  14.305  1.0653  0.1618 -0.5860
  129CHL1   C2415794   1.176   6.412  14.438 -0.2751 -0.3511 -0.1387
  129CHL1  H24A15795   1.090   6.480  14.419  1.8744  2.4501 -0.6766
  129CHL1  H24B15796   1.129   6.313  14.426 -2.3093  0.5722 -0.2847
  129CHL1   C2515797   1.231   6.442  14.578 -0.4544 -0.2374  1.3239
  129CHL1   H2515798   1.318   6.375  14.596  0.0413 -0.2971 -0.9512
  129CHL1   C2615799   1.303   6.575  14.594  0.0339 -0.3092 -0.0761
  129CHL1  H26A15800   1.234   6.663  14.590 -0.8371 -1.0051 -1.5515
  129CHL1  H26B15801   1.360   6.584  14.689  1.0841  2.2331 -0.8477
  129CHL1  H26C15802   1.377   6.587  14.512  0.2704 -0.1060  0.1663
  129CHL1   C2715803   1.116   6.434  14.677 -0.0047 -0.1665  0.4673
  129CHL1  H27A15804   1.072   6.331  14.674  0.1279 -0.2346  0.7901
  129CHL1  H27B15805   1.145   6.465  14.780  0.1468  0.9296  0.1043
  129CHL1  H27C15806   1.041   6.511  14.649  0.8831 -0.1775 -2.1661
  130CHL1    C315807   4.226   6.673  13.156 -0.2785 -0.8778  1.1931
  130CHL1    H315808   4.125   6.646  13.192  0.3103 -2.2400  1.9262
  130CHL1    O315809   4.245   6.694  13.015 -0.1151  0.9138  0.5294
  130CHL1   H3'15810   4.196   6.772  12.988  2.1746  2.0732 -0.5475
  130CHL1    C415811   4.267   6.806  13.215  0.2121 -0.0746 -0.0675
  130CHL1   H4A15812   4.370   6.832  13.183  1.5314 -1.4637  2.6600
  130CHL1   H4B15813   4.200   6.885  13.175  1.1104  0.2909 -0.8911
  130CHL1    C515814   4.266   6.789  13.368 -0.7667  0.5620 -0.1192
  130CHL1    C615815   4.180   6.857  13.440 -0.5779 -0.4141 -0.3569
  130CHL1    H615816   4.108   6.924  13.390  0.9287  0.8626 -0.9222
  130CHL1    C715817   4.176   6.852  13.589 -0.2784  0.3761 -0.4228
  130CHL1   H7A15818   4.164   6.955  13.628  1.3179  1.2292 -2.0457
  130CHL1   H7B15819   4.091   6.789  13.622  0.1065 -1.2879 -2.4075
  130CHL1    C815820   4.307   6.793  13.652 -0.0983  0.1032  0.2335
  130CHL1    H815821   4.389   6.865  13.631 -0.7167  0.1438 -2.3678
  130CHL1   C1415822   4.295   6.770  13.801 -0.0750 -0.5783 -0.8841
  130CHL1   H1415823   4.212   6.697  13.809 -0.2135 -0.4177 -0.8406
  130CHL1   C1515824   4.250   6.898  13.879 -0.2764  0.3834 -0.5470
  130CHL1  H15A15825   4.314   6.980  13.841 -0.1076  0.2718 -0.5066
  130CHL1  H15B15826   4.142   6.915  13.863 -0.4122  0.0790  0.0228
  130CHL1   C1615827   4.283   6.860  14.026  0.2781 -0.3329 -0.2119
  130CHL1  H16A15828   4.340   6.945  14.071 -0.8284  0.1225  0.3628
  130CHL1  H16B15829   4.198   6.839  14.094 -1.6501  1.7428 -1.8143
  130CHL1   C1715830   4.386   6.733  14.017 -0.7499  0.0889  0.3567
  130CHL1   H1715831   4.324   6.646  14.047 -1.2492 -0.5493 -2.2814
  130CHL1   C1315832   4.426   6.716  13.871  0.7460 -0.1328  1.0104
  130CHL1   C1815833   4.542   6.810  13.843  0.2392  0.1240  0.3264
  130CHL1  H18A15834   4.533   6.916  13.874 -1.1233  0.7234 -1.8952
  130CHL1  H18B15835   4.636   6.762  13.879  0.2297  0.2588  0.5333
  130CHL1  H18C15836   4.557   6.811  13.733  1.6550 -3.1366  0.3608
  130CHL1   C1215837   4.458   6.582  13.804 -0.9167  0.1293 -0.6116
  130CHL1  H12A15838   4.555   6.549  13.849 -1.5969 -0.3538  0.5392
  130CHL1  H12B15839   4.387   6.502  13.832 -0.8198 -0.4972 -2.0431
  130CHL1   C1115840   4.458   6.584  13.652 -0.0036  0.3478 -0.1916
  130CHL1  H11A15841   4.561   6.619  13.630  0.3344 -0.1347  0.6084
  130CHL1  H11B15842   4.456   6.478  13.618  1.8462  0.1120  0.3123
  130CHL1    C915843   4.346   6.665  13.579 -0.4407  0.3915 -0.2024
  130CHL1    H915844   4.256   6.602  13.598 -0.7655  1.1630  0.9939
  130CHL1   C1015845   4.370   6.685  13.430 -0.0883 -0.8784  0.3674
  130CHL1   C1915846   4.522   6.728  13.399  0.2284  0.1461  0.0973
  130CHL1  H19A15847   4.549   6.824  13.447  1.7652 -0.5954  0.7857
  130CHL1  H19B15848   4.597   6.653  13.430  1.7691  1.2326 -0.8388
  130CHL1  H19C15849   4.546   6.754  13.293  2.1147  1.4640  0.7889
  130CHL1    C115850   4.339   6.552  13.359 -0.1066 -0.0482  0.1313
  130CHL1   H1A15851   4.410   6.470  13.386  0.1994  1.1075  3.2090
  130CHL1   H1B15852   4.248   6.505  13.403  0.9991 -1.3270  1.1353
  130CHL1    C215853   4.317   6.567  13.210  1.1899  0.3544 -0.0445
  130CHL1   H2A15854   4.279   6.471  13.169  0.7089  0.8728 -0.8351
  130CHL1   H2B15855   4.415   6.599  13.168  0.1632  3.5762 -0.2921
  130CHL1   C2015856   4.492   6.737  14.126  0.5589  0.3314  0.4573
  130CHL1   H2015857   4.563   6.814  14.088 -0.3584 -0.3849 -3.0767
  130CHL1   C2115858   4.572   6.612  14.141  1.0875  0.7507 -0.3960
  130CHL1  H21A15859   4.639   6.609  14.230  0.1027 -3.0385  0.4354
  130CHL1  H21B15860   4.644   6.598  14.058  1.7145  3.0005 -0.2752
  130CHL1  H21C15861   4.510   6.519  14.146 -0.7547  1.8360 -1.9682
  130CHL1   C2215862   4.429   6.774  14.267  0.3919 -0.5189 -0.1151
  130CHL1  H22A15863   4.335   6.831  14.247  0.2427 -1.0187 -0.8823
  130CHL1  H22B15864   4.385   6.681  14.309 -2.2678 -0.6172 -2.7206
  130CHL1   C2315865   4.522   6.855  14.358 -0.3343  0.2741  0.1531
  130CHL1  H23A15866   4.615   6.803  14.390 -1.8516 -1.2664  2.2965
  130CHL1  H23B15867   4.551   6.952  14.314  0.2173  1.1890  2.3908
  130CHL1   C2415868   4.449   6.884  14.488 -0.6299  0.3710  1.3165
  130CHL1  H24A15869   4.496   6.977  14.526  0.2321 -0.4824  2.4085
  130CHL1  H24B15870   4.339   6.885  14.472 -0.4056 -0.2511 -0.4151
  130CHL1   C2515871   4.480   6.793  14.605  0.5191 -0.1095 -0.2390
  130CHL1   H2515872   4.590   6.793  14.623  0.1933 -0.2677  2.1365
  130CHL1   C2615873   4.419   6.842  14.729  0.2069  0.3100  0.2058
  130CHL1  H26A15874   4.458   6.936  14.773  1.7218 -0.5012  0.6602
  130CHL1  H26B15875   4.309   6.855  14.720  0.2635 -0.1791 -1.4699
  130CHL1  H26C15876   4.427   6.776  14.818  0.9811 -1.0202 -0.8101
  130CHL1   C2715877   4.432   6.646  14.580  0.3778  0.0630  0.5184
  130CHL1  H27A15878   4.496   6.599  14.502 -2.0165 -2.7791  0.1066
  130CHL1  H27B15879   4.454   6.587  14.672  1.7378 -0.9898 -0.4437
  130CHL1  H27C15880   4.324   6.647  14.555  0.7697  1.4602 -1.2585
  131CHL1    C315881   3.684   5.666  13.610  0.2315  0.0279 -0.2515
  131CHL1    H315882   3.588   5.658  13.666  0.3958  1.3291  0.2624
  131CHL1    O315883   3.655   5.703  13.477 -0.4131  0.0412 -0.5006
  131CHL1   H3'15884   3.582   5.642  13.460 -1.6043  1.7408 -1.8124
  131CHL1    C415885   3.774   5.780  13.676 -0.0239  0.1121  1.1835
  131CHL1   H4A15886   3.864   5.808  13.617 -0.7791  1.1770  0.5006
  131CHL1   H4B15887   3.711   5.870  13.658  0.4714  0.2046 -0.2143
  131CHL1    C515888   3.809   5.754  13.817  0.4757 -0.3518 -1.0119
  131CHL1    C615889   3.777   5.847  13.910 -0.2109  0.3855 -0.0048
  131CHL1    H615890   3.724   5.935  13.870 -0.1483  0.2965 -0.2800
  131CHL1    C715891   3.789   5.828  14.054 -0.3043  0.5104 -0.2906
  131CHL1   H7A15892   3.828   5.915  14.111 -0.4906  0.9741 -0.8575
  131CHL1   H7B15893   3.688   5.819  14.098  0.3576 -4.1727  0.7616
  131CHL1    C815894   3.879   5.705  14.099  0.0174 -0.3803  0.8759
  131CHL1    H815895   3.982   5.739  14.076 -0.5003 -0.6212 -2.1677
  131CHL1   C1415896   3.846   5.672  14.241 -0.4285 -0.1995  0.1324
  131CHL1   H1415897   3.744   5.629  14.230 -0.1687 -0.2534 -3.2900
  131CHL1   C1515898   3.841   5.789  14.342 -0.2391  0.3339 -0.5012
  131CHL1  H15A15899   3.927   5.859  14.349  0.5223 -0.7451  1.9467
  131CHL1  H15B15900   3.749   5.849  14.325 -1.4051 -1.1310  0.4179
  131CHL1   C1615901   3.839   5.720  14.475 -0.0687  0.0349 -0.0195
  131CHL1  H16A15902   3.919   5.771  14.533  0.2972 -1.3168  0.7127
  131CHL1  H16B15903   3.747   5.726  14.538  0.2596 -0.1685  0.4899
  131CHL1   C1715904   3.876   5.573  14.443  0.1284  0.3767 -0.2465
  131CHL1   H1715905   3.777   5.522  14.437  0.5609 -0.4479 -0.4292
  131CHL1   C1315906   3.934   5.565  14.302 -0.0492 -0.2289 -0.3241
  131CHL1   C1815907   4.083   5.608  14.303  0.0129  0.6148  0.1230
  131CHL1  H18A15908   4.083   5.695  14.372  0.4641 -0.7690  1.9443
  131CHL1  H18B15909   4.139   5.524  14.348 -1.1497  0.4940  1.4157
  131CHL1  H18C15910   4.112   5.629  14.198  0.7153 -0.3780  0.1075
  131CHL1   C1215911   3.909   5.436  14.217 -0.7734 -0.0407 -0.3485
  131CHL1  H12A15912   3.976   5.355  14.250 -0.2117  0.0862 -1.1459
  131CHL1  H12B15913   3.808   5.407  14.252 -0.5652 -0.5667 -0.1867
  131CHL1   C1115914   3.934   5.458  14.071 -0.9575 -0.0627  0.2028
  131CHL1  H11A15915   4.041   5.468  14.046 -0.6626 -1.1041  0.9343
  131CHL1  H11B15916   3.905   5.372  14.006  1.2762 -0.1207 -0.7902
  131CHL1    C915917   3.857   5.582  14.009  0.6372  0.3697 -0.0825
  131CHL1    H915918   3.748   5.558  14.016  0.7956  0.1012  2.3738
  131CHL1   C1015919   3.875   5.609  13.854 -0.1799 -0.4438  0.2060
  131CHL1   C1915920   4.019   5.616  13.812 -0.6381 -0.4976 -0.0148
  131CHL1  H19A15921   4.072   5.702  13.858 -0.1512 -0.6059 -0.3576
  131CHL1  H19B15922   4.076   5.524  13.837 -0.4474 -0.6766 -1.0481
  131CHL1  H19C15923   4.017   5.633  13.702 -0.0560  0.6229  0.1314
  131CHL1    C115924   3.803   5.496  13.770 -0.1533  0.6181 -0.2157
  131CHL1   H1A15925   3.871   5.408  13.769 -2.0189 -0.9084 -1.9167
  131CHL1   H1B15926   3.709   5.471  13.824  0.5415 -1.3885  0.1397
  131CHL1    C215927   3.765   5.532  13.627  0.2819  0.3702  0.0512
  131CHL1   H2A15928   3.712   5.446  13.580  0.9038 -0.1295  0.2492
  131CHL1   H2B15929   3.862   5.535  13.573  0.9917  1.7472  1.3502
  131CHL1   C2015930   3.962   5.507  14.546  0.1941 -0.1702 -0.0831
  131CHL1   H2015931   4.051   5.573  14.554  0.8505 -1.0612  0.1965
  131CHL1   C2115932   4.000   5.355  14.528 -0.2855  0.1111  0.3549
  131CHL1  H21A15933   4.066   5.338  14.440 -1.2126 -1.5944 -0.0614
  131CHL1  H21B15934   3.899   5.317  14.503  0.7802 -3.4046  0.8409
  131CHL1  H21C15935   4.028   5.297  14.619  1.0288  0.2616  0.0662
  131CHL1   C2215936   3.910   5.514  14.689 -0.4146 -1.3590  0.1453
  131CHL1  H22A15937   3.882   5.618  14.717  1.6845 -1.0508  1.3310
  131CHL1  H22B15938   3.822   5.447  14.692 -0.9799 -0.5872  1.8839
  131CHL1   C2315939   4.011   5.482  14.804 -0.2460 -0.0055  0.6319
  131CHL1  H23A15940   4.051   5.380  14.787 -1.1663 -0.3845  0.6768
  131CHL1  H23B15941   4.099   5.550  14.797  0.1711 -0.6330 -0.3732
  131CHL1   C2415942   3.959   5.489  14.946 -0.1512 -0.3506  0.6728
  131CHL1  H24A15943   4.048   5.491  15.014 -1.0845  0.0838  1.9131
  131CHL1  H24B15944   3.916   5.591  14.943  0.9112  0.1832  2.1099
  131CHL1   C2515945   3.851   5.387  14.984 -0.0627  0.3692  0.4403
  131CHL1   H2515946   3.765   5.393  14.915  1.8805  4.9707 -2.0513
  131CHL1   C2615947   3.912   5.246  14.975 -0.1901  0.1692  0.3772
  131CHL1  H26A15948   4.014   5.247  15.020 -0.3281  0.7564  0.6887
  131CHL1  H26B15949   3.850   5.171  15.028  0.9786  0.9144  2.9683
  131CHL1  H26C15950   3.936   5.206  14.875 -2.3805 -0.0947 -0.0808
  131CHL1   C2715951   3.806   5.430  15.128 -0.2798  0.7017 -0.9054
  131CHL1  H27A15952   3.884   5.409  15.205 -2.3293  1.1042  1.4041
  131CHL1  H27B15953   3.778   5.537  15.139 -1.3493  0.2618  1.3013
  131CHL1  H27C15954   3.723   5.360  15.154  1.7655 -2.3228 -1.9282
  132CHL1    C315955   5.431   0.353  13.000  0.2269 -0.2924  1.1701
  132CHL1    H315956   5.439   0.462  13.021  1.4734  0.1716 -1.3356
  132CHL1    O315957   5.415   0.328  12.863  0.1353 -0.1461  0.6264
  132CHL1   H3'15958   5.504   0.324  12.827  0.0488  2.6537 -0.1218
  132CHL1    C415959   5.562   0.285  13.045  0.6175  0.4496  0.2618
  132CHL1   H4A15960   5.561   0.177  13.015  0.5773  0.9815 -1.8403
  132CHL1   H4B15961   5.642   0.328  12.980  1.1193 -1.2463 -0.3088
  132CHL1    C515962   5.587   0.296  13.197 -0.2919 -0.3827 -0.0189
  132CHL1    C615963   5.698   0.350  13.248 -0.1078 -0.1963 -0.2419
  132CHL1    H615964   5.779   0.377  13.179  0.4981 -1.1302  0.0802
  132CHL1    C715965   5.723   0.359  13.396  0.4589  0.0502 -0.3223
  132CHL1   H7A15966   5.824   0.323  13.424  1.1246  2.2554  0.3261
  132CHL1   H7B15967   5.737   0.466  13.419 -1.4741 -0.0640  1.8675
  132CHL1    C815968   5.618   0.288  13.485  0.3141  0.8155  0.1971
  132CHL1    H815969   5.647   0.181  13.474 -0.6962  0.8057 -3.5705
  132CHL1   C1415970   5.616   0.328  13.635 -0.3078  0.3476 -0.6081
  132CHL1   H1415971   5.594   0.437  13.634  1.2782  0.7670  1.7952
  132CHL1   C1515972   5.746   0.323  13.709  0.2719  0.9849 -0.1902
  132CHL1  H15A15973   5.795   0.228  13.679  0.6150  2.0682 -3.5185
  132CHL1  H15B15974   5.818   0.405  13.687  2.3425 -1.1121 -1.8125
  132CHL1   C1615975   5.709   0.310  13.853  0.2194 -0.1879  0.0333
  132CHL1  H16A15976   5.760   0.223  13.900 -0.6833 -0.7652 -0.0542
  132CHL1  H16B15977   5.740   0.401  13.909  0.9221  0.1759 -0.9225
  132CHL1   C1715978   5.556   0.299  13.857 -0.2141  0.4069  0.2267
  132CHL1   H1715979   5.523   0.404  13.872  0.9355  0.8228 -0.0986
  132CHL1   C1315980   5.520   0.246  13.719  0.2497 -0.0507 -0.6718
  132CHL1   C1815981   5.554   0.097  13.705 -0.4148 -0.3399  0.2121
  132CHL1  H18A15982   5.495   0.031  13.773  1.5305 -2.4294 -0.0046
  132CHL1  H18B15983   5.542   0.060  13.601  0.2067  0.1385 -0.0388
  132CHL1  H18C15984   5.658   0.066  13.730 -0.4705 -1.0731 -0.4115
  132CHL1   C1215985   5.380   0.284  13.664 -0.2851  0.2785  0.4842
  132CHL1  H12A15986   5.295   0.232  13.713 -2.1647 -1.4363 -4.0047
  132CHL1  H12B15987   5.348   0.390  13.670 -2.8419 -0.0995 -3.0735
  132CHL1   C1115988   5.360   0.241  13.514 -0.7795  0.5277  0.2814
  132CHL1  H11A15989   5.358   0.130  13.506 -0.5603  0.4717  0.9923
  132CHL1  H11B15990   5.262   0.286  13.486  0.2812  3.0402  0.3428
  132CHL1    C915991   5.475   0.298  13.424  0.0707 -0.1651  0.2242
  132CHL1    H915992   5.454   0.407  13.421  0.4074 -0.1099 -0.3074
  132CHL1   C1015993   5.462   0.254  13.275  0.1868  0.1402  0.2217
  132CHL1   C1915994   5.449   0.098  13.276  0.1038 -0.2884  0.1204
  132CHL1  H19A15995   5.540   0.061  13.328 -0.2576 -0.2466  0.7900
  132CHL1  H19B15996   5.354   0.062  13.322 -2.0073  0.7004 -3.1429
  132CHL1  H19C15997   5.464   0.040  13.183 -0.2027 -1.9759  1.0820
  132CHL1    C115998   5.330   0.324  13.217  0.1454 -0.1405 -0.0319
  132CHL1   H1A15999   5.247   0.291  13.283 -0.9016  0.9449 -0.7692
  132CHL1   H1B16000   5.329   0.434  13.233 -0.0073 -0.2463  0.7589
  132CHL1    C216001   5.305   0.297  13.075  0.1070  0.6927  0.5497
  132CHL1   H2A16002   5.219   0.355  13.035 -0.3165  0.1950  0.7253
  132CHL1   H2B16003   5.299   0.187  13.058  1.5825  0.6124  0.4513
  132CHL1   C2016004   5.504   0.223  13.985 -0.3468 -0.6779 -0.4078
  132CHL1   H2016005   5.537   0.117  13.984  1.0507 -0.2608 -0.6937
  132CHL1   C2116006   5.343   0.228  13.977 -0.0300 -0.5209 -0.4156
  132CHL1  H21A16007   5.315   0.161  13.894  0.2306  0.2766 -1.1591
  132CHL1  H21B16008   5.313   0.332  13.952 -0.1435 -0.0089  1.6384
  132CHL1  H21C16009   5.302   0.196  14.075 -1.6757  0.2860 -0.8035
  132CHL1   C2216010   5.551   0.291  14.114  0.1088 -0.0268  0.1596
  132CHL1  H22A16011   5.662   0.277  14.116 -0.0991 -2.0208 -0.0250
  132CHL1  H22B16012   5.514   0.394  14.097 -3.4336 -1.3057 -0.7652
  132CHL1   C2316013   5.500   0.224  14.245  0.1888 -0.5640 -0.5225
  132CHL1  H23A16014   5.392   0.242  14.262  0.4770  0.1604  0.6605
  132CHL1  H23B16015   5.505   0.113  14.248  2.1581 -0.5375 -1.3418
  132CHL1   C2416016   5.582   0.299  14.349  0.1766 -0.1054 -0.1019
  132CHL1  H24A16017   5.684   0.253  14.349 -1.1862 -3.6282 -2.9824
  132CHL1  H24B16018   5.600   0.404  14.316  4.1198 -0.2222  1.1638
  132CHL1   C2516019   5.543   0.296  14.496 -0.3557  0.4123 -0.2546
  132CHL1   H2516020   5.450   0.350  14.523 -0.5402 -0.8373  1.8639
  132CHL1   C2616021   5.524   0.149  14.558 -1.0718  0.4074 -0.0129
  132CHL1  H26A16022   5.444   0.100  14.498  0.4295 -2.0905 -0.0842
  132CHL1  H26B16023   5.619   0.092  14.559 -0.9353  0.6211 -0.2968
  132CHL1  H26C16024   5.490   0.166  14.662 -2.9797  1.2652 -0.7274
  132CHL1   C2716025   5.648   0.365  14.587  0.3832 -0.7853 -0.2694
  132CHL1  H27A16026   5.609   0.357  14.690 -1.3227  1.4869 -0.6684
  132CHL1  H27B16027   5.746   0.311  14.587  0.0120 -1.4733  0.1214
  132CHL1  H27C16028   5.656   0.472  14.560 -3.7348 -0.5434 -1.1571
  133CHL1    C316029   3.174   3.186  13.072  0.6329  0.0284 -0.6522
  133CHL1    H316030   3.256   3.258  13.096  1.5122 -1.3015  0.4528
  133CHL1    O316031   3.210   3.123  12.953 -0.2287 -0.4155 -0.1678
  133CHL1   H3'16032   3.148   3.050  12.954 -1.3708  0.5394  0.2954
  133CHL1    C416033   3.177   3.069  13.179 -0.6988 -0.1272  0.3335
  133CHL1   H4A16034   3.110   2.985  13.152 -0.6762 -0.4136  1.1279
  133CHL1   H4B16035   3.280   3.030  13.170 -0.0790  1.2875  0.9117
  133CHL1    C516036   3.153   3.116  13.318 -0.6433 -0.0973 -0.0930
  133CHL1    C616037   3.239   3.100  13.418 -0.2662 -0.0829  0.6482
  133CHL1    H616038   3.337   3.055  13.393  1.4558  1.6594  3.6537
  133CHL1    C716039   3.214   3.153  13.555 -0.1764  0.1207  0.0110
  133CHL1   H7A16040   3.242   3.072  13.625 -1.2994 -0.9773 -0.7780
  133CHL1   H7B16041   3.276   3.242  13.582 -0.7191  0.9832 -1.4738
  133CHL1    C816042   3.064   3.183  13.583 -0.2411  0.0882 -0.2265
  133CHL1    H816043   3.005   3.090  13.595 -0.9860  0.5141 -0.5003
  133CHL1   C1416044   3.054   3.255  13.712 -0.1734 -0.1648  0.2562
  133CHL1   H1416045   3.105   3.353  13.698 -1.9280  0.6912 -0.5173
  133CHL1   C1516046   3.112   3.181  13.832  0.4357 -0.0034 -0.6982
  133CHL1  H15A16047   3.096   3.071  13.833  1.4330 -0.1555 -0.4283
  133CHL1  H15B16048   3.220   3.206  13.828 -0.2314  3.2270 -1.4610
  133CHL1   C1616049   3.058   3.265  13.955  0.4957  0.0944 -0.2641
  133CHL1  H16A16050   3.029   3.186  14.027  1.6049  0.2332  0.3572
  133CHL1  H16B16051   3.132   3.336  13.998  0.4103 -1.4003  2.5710
  133CHL1   C1716052   2.942   3.354  13.897  0.8140  0.2469  0.8786
  133CHL1   H1716053   2.994   3.451  13.881  0.6580  0.2168  0.1669
  133CHL1   C1316054   2.912   3.299  13.752  0.5465 -0.0135  0.2934
  133CHL1   C1816055   2.822   3.176  13.767  0.6151  0.5828 -0.3053
  133CHL1  H18A16056   2.802   3.116  13.675  0.6144 -0.0363  0.0939
  133CHL1  H18B16057   2.868   3.116  13.848  1.5903  0.1966 -1.1296
  133CHL1  H18C16058   2.718   3.197  13.800  0.2767 -0.3728 -0.7229
  133CHL1   C1216059   2.857   3.395  13.644 -0.0260 -0.1261  0.1146
  133CHL1  H12A16060   2.749   3.410  13.669  0.0906 -0.9422  1.1919
  133CHL1  H12B16061   2.922   3.485  13.650  0.2397 -0.0287 -2.7673
  133CHL1   C1116062   2.873   3.324  13.504  0.1967 -0.9058  0.0237
  133CHL1  H11A16063   2.800   3.241  13.507  1.8349 -2.3735  1.5713
  133CHL1  H11B16064   2.845   3.399  13.427 -2.9715 -0.6225  1.3191
  133CHL1    C916065   3.011   3.269  13.470  0.0237  0.1199 -0.2221
  133CHL1    H916066   3.075   3.360  13.475 -2.1798  1.6779  2.0833
  133CHL1   C1016067   3.022   3.202  13.327 -0.5790 -0.1663  0.7161
  133CHL1   C1916068   2.910   3.093  13.313 -0.1230 -0.1320  0.1401
  133CHL1  H19A16069   2.815   3.149  13.324  0.0562  0.5028 -1.3004
  133CHL1  H19B16070   2.902   3.049  13.211  0.3157  1.6303 -0.6790
  133CHL1  H19C16071   2.912   3.014  13.391 -1.1435 -0.2397  0.0708
  133CHL1    C116072   3.003   3.307  13.214 -0.3764 -0.3029 -0.6149
  133CHL1   H1A16073   2.893   3.323  13.221 -0.0859  2.2196 -0.8861
  133CHL1   H1B16074   3.059   3.401  13.233  0.6681 -0.8763 -0.8099
  133CHL1    C216075   3.034   3.253  13.074 -0.2613 -0.3951 -0.1464
  133CHL1   H2A16076   3.039   3.341  13.006 -2.2478  0.3979  0.6544
  133CHL1   H2B16077   2.955   3.184  13.037 -2.5686  2.4541 -0.9379
  133CHL1   C2016078   2.826   3.375  14.002 -0.4212  0.0446 -1.2062
  133CHL1   H2016079   2.790   3.271  14.018 -1.0611  0.2085 -1.5526
  133CHL1   C2116080   2.710   3.462  13.943 -0.1787 -0.2934 -0.1916
  133CHL1  H21A16081   2.748   3.565  13.925 -0.9569  0.2256  0.9494
  133CHL1  H21B16082   2.624   3.470  14.014  0.0582  1.4125 -0.0570
  133CHL1  H21C16083   2.650   3.415  13.862 -0.1989 -0.1392 -0.2663
  133CHL1   C2216084   2.898   3.421  14.134  0.7807  0.4415 -0.2891
  133CHL1  H22A16085   2.967   3.340  14.168 -0.2033 -0.4076 -0.2886
  133CHL1  H22B16086   2.949   3.513  14.097 -0.1407  1.0239 -0.1181
  133CHL1   C2316087   2.803   3.452  14.249  0.0366  0.7939  0.6903
  133CHL1  H23A16088   2.715   3.513  14.221  0.7987  1.5167 -0.2078
  133CHL1  H23B16089   2.759   3.350  14.263 -0.6307  1.0441  0.4486
  133CHL1   C2416090   2.866   3.491  14.386 -0.2279  0.1409  0.3652
  133CHL1  H24A16091   2.958   3.429  14.389 -0.3050 -0.2104 -2.2907
  133CHL1  H24B16092   2.890   3.600  14.381 -0.9542  0.3796  1.5965
  133CHL1   C2516093   2.784   3.455  14.510  0.1210  0.1755 -0.2562
  133CHL1   H2516094   2.762   3.348  14.490 -0.8065  0.2046  0.5266
  133CHL1   C2616095   2.876   3.460  14.636 -0.3411  0.4627  0.2409
  133CHL1  H26A16096   2.823   3.405  14.717  0.1862 -1.3252 -0.5631
  133CHL1  H26B16097   2.969   3.402  14.617 -0.7721 -0.0280 -0.3994
  133CHL1  H26C16098   2.903   3.565  14.660 -1.4955  0.5421  1.3148
  133CHL1   C2716099   2.645   3.518  14.531 -0.3191 -0.3151  0.1831
  133CHL1  H27A16100   2.657   3.628  14.538 -0.4742 -0.4073  3.1183
  133CHL1  H27B16101   2.577   3.493  14.447 -0.2157 -1.2087  0.3502
  133CHL1  H27C16102   2.602   3.473  14.623 -2.1039 -1.0017 -0.9307
  134CHL1    C316103   1.208   4.657  13.763  0.4859 -0.6473 -0.2368
  134CHL1    H316104   1.242   4.755  13.803 -2.0206  0.9928 -1.7740
  134CHL1    O316105   1.228   4.655  13.624 -0.1142  0.0877  0.2439
  134CHL1   H3'16106   1.177   4.579  13.595  0.2224 -0.3826  0.8731
  134CHL1    C416107   1.281   4.538  13.833  0.1478  1.1202  0.0539
  134CHL1   H4A16108   1.248   4.444  13.784  1.8784  0.2272  0.5152
  134CHL1   H4B16109   1.389   4.550  13.810  0.1961  2.0155  0.7051
  134CHL1    C516110   1.261   4.525  13.984  0.3628  0.2150  0.0884
  134CHL1    C616111   1.372   4.518  14.058 -0.0147  0.4373 -0.8393
  134CHL1    H616112   1.469   4.517  14.006  0.3878 -2.2635 -0.1484
  134CHL1    C716113   1.361   4.536  14.207  0.0884  0.6799 -0.3413
  134CHL1   H7A16114   1.433   4.473  14.263 -0.7576 -0.4910 -0.5318
  134CHL1   H7B16115   1.387   4.642  14.228 -1.4931  0.9356  0.5309
  134CHL1    C816116   1.219   4.501  14.260  0.2195  0.0167  0.1050
  134CHL1    H816117   1.199   4.393  14.244 -1.7563  0.5482 -1.3594
  134CHL1   C1416118   1.212   4.533  14.404 -0.1636 -0.2247 -0.0672
  134CHL1   H1416119   1.216   4.644  14.402  0.4120 -0.2237 -2.7453
  134CHL1   C1516120   1.319   4.481  14.502 -0.3912  0.4330  0.3104
  134CHL1  H15A16121   1.344   4.375  14.484 -3.3667 -0.3631  0.4378
  134CHL1  H15B16122   1.406   4.550  14.488  0.9460 -1.2372  0.0816
  134CHL1   C1616123   1.255   4.480  14.639 -0.8113  0.1791 -0.1646
  134CHL1  H16A16124   1.238   4.379  14.682 -3.3161  0.0862 -1.1694
  134CHL1  H16B16125   1.314   4.547  14.705 -2.7431  1.3426  0.4501
  134CHL1   C1716126   1.116   4.548  14.612 -1.1969  0.3354  0.4817
  134CHL1   H1716127   1.128   4.658  14.602  0.1763  0.1780  0.1047
  134CHL1   C1316128   1.074   4.503  14.470  0.3871 -0.3455  0.1382
  134CHL1   C1816129   1.034   4.357  14.460 -0.4247 -0.2730  0.0593
  134CHL1  H18A16130   0.936   4.343  14.511 -0.6993  1.7441  0.1740
  134CHL1  H18B16131   1.041   4.308  14.360  0.9560 -0.1389  0.0757
  134CHL1  H18C16132   1.099   4.297  14.527  1.9974 -0.3770 -2.2485
  134CHL1   C1216133   0.961   4.583  14.391 -0.1706 -0.4433 -0.7588
  134CHL1  H12A16134   0.859   4.563  14.428  0.9381 -1.3776  2.0367
  134CHL1  H12B16135   0.984   4.691  14.404  1.2195 -0.5658 -1.9184
  134CHL1   C1116136   0.969   4.558  14.243 -0.0685 -0.4461 -0.3574
  134CHL1  H11A16137   0.933   4.455  14.222 -1.3948  0.1348 -1.0573
  134CHL1  H11B16138   0.908   4.634  14.192 -0.8509  0.7196  2.1370
  134CHL1    C916139   1.112   4.574  14.180  0.0454 -0.0357 -0.4276
  134CHL1    H916140   1.130   4.683  14.188 -1.3390  0.2454 -0.8429
  134CHL1   C1016141   1.114   4.535  14.029  0.0149  0.1035  0.4482
  134CHL1   C1916142   1.054   4.398  14.012 -0.4043 -0.2556 -0.4072
  134CHL1  H19A16143   1.095   4.332  14.092  1.9742  2.0251  0.3914
  134CHL1  H19B16144   0.945   4.393  14.028 -0.4926  0.7883 -0.6365
  134CHL1  H19C16145   1.079   4.351  13.914 -0.6843  0.2820 -0.7388
  134CHL1    C116146   1.030   4.638  13.936 -0.7672 -0.1776 -0.1090
  134CHL1   H1A16147   0.922   4.620  13.956 -0.3449 -1.1528  1.5054
  134CHL1   H1B16148   1.045   4.744  13.966  1.6834 -0.3516 -0.5277
  134CHL1    C216149   1.056   4.633  13.787 -0.7663  0.1883 -0.4425
  134CHL1   H2A16150   0.994   4.710  13.736 -1.4025  1.0920  1.6219
  134CHL1   H2B16151   1.036   4.532  13.745  2.0579  0.3291 -2.4219
  134CHL1   C2016152   1.019   4.515  14.721  0.1070  1.6500  0.5011
  134CHL1   H2016153   0.915   4.525  14.683 -0.1811  2.3442  1.4358
  134CHL1   C2116154   1.035   4.610  14.836  0.4816 -0.3199  0.2865
  134CHL1  H21A16155   1.065   4.711  14.798 -1.5285 -0.3753 -1.6722
  134CHL1  H21B16156   1.109   4.578  14.912 -1.7135 -0.4305  2.5375
  134CHL1  H21C16157   0.940   4.632  14.890  0.7372  0.9667  0.2640
  134CHL1   C2216158   1.009   4.369  14.781 -0.6196  0.0553 -0.2714
  134CHL1  H22A16159   1.001   4.287  14.707 -2.3110  0.9651 -1.1419
  134CHL1  H22B16160   1.108   4.360  14.832 -0.4269  2.7724 -0.0285
  134CHL1   C2316161   0.910   4.339  14.889 -0.0305  0.0103 -0.0843
  134CHL1  H23A16162   0.905   4.231  14.915  1.5601 -0.5601 -1.8740
  134CHL1  H23B16163   0.931   4.403  14.977 -2.4501  0.5735  0.1650
  134CHL1   C2416164   0.762   4.368  14.850 -0.0046  0.0537 -0.2646
  134CHL1  H24A16165   0.750   4.478  14.859  1.5968  0.4063 -1.9256
  134CHL1  H24B16166   0.748   4.344  14.743 -0.9881 -1.1431  0.1146
  134CHL1   C2516167   0.658   4.309  14.955  0.2723 -0.4038 -0.6419
  134CHL1   H2516168   0.658   4.200  14.932 -0.1541 -0.5081 -0.1618
  134CHL1   C2616169   0.686   4.331  15.101 -0.2051  0.6268 -0.0452
  134CHL1  H26A16170   0.626   4.257  15.159 -2.0553  2.2902  0.2919
  134CHL1  H26B16171   0.790   4.304  15.129 -0.1178  0.2011 -0.7606
  134CHL1  H26C16172   0.671   4.436  15.133  3.6575  1.5076 -0.7436
  134CHL1   C2716173   0.513   4.370  14.915 -0.1998 -0.4377 -0.1605
  134CHL1  H27A16174   0.510   4.481  14.914 -1.9827 -0.4652 -0.5109
  134CHL1  H27B16175   0.494   4.340  14.810  2.0207 -2.9270  0.0625
  134CHL1  H27C16176   0.435   4.335  14.986  0.5502 -0.0953  0.8654
  135CHL1    C316177   0.406   4.215  13.391 -0.5659 -1.0184  0.6632
  135CHL1    H316178   0.308   4.184  13.431 -1.6540  0.3400 -0.8462
  135CHL1    O316179   0.416   4.186  13.252 -0.0007  0.4986  0.1486
  135CHL1   H3'16180   0.505   4.152  13.238 -0.5703 -1.3007  0.6864
  135CHL1    C416181   0.419   4.365  13.406  0.6189  0.0625  0.8142
  135CHL1   H4A16182   0.508   4.414  13.362 -0.0077 -0.0663 -0.6393
  135CHL1   H4B16183   0.330   4.400  13.349  1.1661 -2.1776 -1.6031
  135CHL1    C516184   0.418   4.402  13.551  1.0566 -0.7592  1.0970
  135CHL1    C616185   0.340   4.498  13.597  0.2618  0.4585 -0.2730
  135CHL1    H616186   0.261   4.538  13.532 -0.6003  0.0536  0.5064
  135CHL1    C716187   0.341   4.542  13.740  0.1730  0.2041 -0.1678
  135CHL1   H7A16188   0.348   4.653  13.741 -0.4821  0.2547  1.0188
  135CHL1   H7B16189   0.243   4.529  13.790 -0.4488  0.7843 -1.2113
  135CHL1    C816190   0.451   4.484  13.828 -0.0204  0.7207 -0.4598
  135CHL1    H816191   0.543   4.542  13.805  0.6790 -0.7928 -1.6755
  135CHL1   C1416192   0.418   4.497  13.982  1.0149 -0.6546  0.7929
  135CHL1   H1416193   0.326   4.437  14.002  1.2196 -1.3652 -0.2804
  135CHL1   C1516194   0.380   4.635  14.019 -0.1000  0.1771 -0.1945
  135CHL1  H15A16195   0.458   4.706  13.984 -1.5087  1.4572 -0.8464
  135CHL1  H15B16196   0.283   4.674  13.980 -0.1166  0.7328  0.3842
  135CHL1   C1616197   0.385   4.630  14.169  0.7213  0.1101  0.0764
  135CHL1  H16A16198   0.454   4.714  14.194 -0.3055  0.1849  3.1576
  135CHL1  H16B16199   0.286   4.650  14.215 -0.3633 -0.2727 -1.9733
  135CHL1   C1716200   0.447   4.492  14.208 -0.7260  0.6789 -0.9204
  135CHL1   H1716201   0.364   4.421  14.228  0.5248 -0.0818  2.2309
  135CHL1   C1316202   0.521   4.439  14.076 -0.3435 -0.6335 -0.7192
  135CHL1   C1816203   0.653   4.510  14.053  0.3418  0.3001  0.8005
  135CHL1  H18A16204   0.694   4.491  13.951 -0.8523 -1.1707  0.5544
  135CHL1  H18B16205   0.644   4.620  14.066 -0.7171 -0.0036  3.0183
  135CHL1  H18C16206   0.731   4.470  14.120  2.3381 -1.0601 -2.1056
  135CHL1   C1216207   0.537   4.292  14.045  0.4592  0.2726  0.0874
  135CHL1  H12A16208   0.613   4.250  14.114  0.3549 -0.0789 -0.0110
  135CHL1  H12B16209   0.444   4.241  14.078 -0.8875  1.7609 -1.1880
  135CHL1   C1116210   0.569   4.258  13.895  0.0811  0.2445  0.3248
  135CHL1  H11A16211   0.675   4.287  13.877 -0.2249  1.1019 -0.1822
  135CHL1  H11B16212   0.565   4.148  13.882  2.0990 -0.1469  2.2884
  135CHL1    C916213   0.479   4.335  13.795  0.6852  0.3580  0.1010
  135CHL1    H916214   0.380   4.287  13.811  0.4577  1.1569  1.2689
  135CHL1   C1016215   0.509   4.318  13.644 -0.0430 -0.1753 -0.3978
  135CHL1   C1916216   0.651   4.374  13.616 -0.3377  0.2666 -0.5270
  135CHL1  H19A16217   0.724   4.330  13.688 -0.5231  1.2789  0.3230
  135CHL1  H19B16218   0.696   4.343  13.519  0.5699 -0.8653  0.2268
  135CHL1  H19C16219   0.664   4.485  13.623  0.6557  0.1054  0.4773
  135CHL1    C116220   0.520   4.167  13.612  0.4527  0.4461 -0.4686
  135CHL1   H1A16221   0.612   4.127  13.661  0.1911 -0.3334 -0.5889
  135CHL1   H1B16222   0.427   4.118  13.651  0.6789 -0.4145 -0.9786
  135CHL1    C216223   0.527   4.145  13.459  0.4660 -0.2248 -0.0509
  135CHL1   H2A16224   0.525   4.036  13.438 -2.4698 -0.4080  0.8068
  135CHL1   H2B16225   0.628   4.183  13.433  0.1744  2.0091  1.7213
  135CHL1   C2016226   0.525   4.488  14.344  0.1242 -0.1800  0.4875
  135CHL1   H2016227   0.610   4.555  14.319 -0.3746 -0.3152 -1.7563
  135CHL1   C2116228   0.590   4.355  14.372  0.3851  0.3146  0.3384
  135CHL1  H21A16229   0.652   4.363  14.464  0.9835  1.4752 -0.1448
  135CHL1  H21B16230   0.658   4.305  14.300 -0.1216 -0.2406  0.2375
  135CHL1  H21C16231   0.510   4.282  14.396 -0.7578  0.9043 -1.4882
  135CHL1   C2216232   0.441   4.543  14.459  0.4420  0.0750 -0.3186
  135CHL1  H22A16233   0.504   4.558  14.549 -1.1691  0.3228  0.8137
  135CHL1  H22B16234   0.392   4.637  14.426  0.4809 -0.0995 -0.8992
  135CHL1   C2316235   0.325   4.451  14.509 -0.7240 -0.3417  0.5361
  135CHL1  H23A16236   0.255   4.437  14.423  0.2608 -0.7929 -0.2047
  135CHL1  H23B16237   0.371   4.357  14.544 -0.3117 -0.1305  0.5652
  135CHL1   C2416238   0.270   4.511  14.639  0.4491 -0.1162  0.2061
  135CHL1  H24A16239   0.351   4.535  14.712 -1.0454 -0.6639  2.1204
  135CHL1  H24B16240   0.216   4.603  14.610  0.1616 -0.7267 -1.3067
  135CHL1   C2516241   0.158   4.423  14.705  0.3292 -0.0151 -0.2613
  135CHL1   H2516242   0.066   4.419  14.643 -0.8728  1.1515  1.3689
  135CHL1   C2616243   0.195   4.278  14.730 -0.2409  0.3644 -0.0648
  135CHL1  H26A16244   0.287   4.273  14.794 -0.8652 -0.8603  0.7751
  135CHL1  H26B16245   0.113   4.218  14.774 -0.5144  0.5510 -0.3182
  135CHL1  H26C16246   0.209   4.232  14.630 -0.4266 -0.2004  0.1663
  135CHL1   C2716247   0.111   4.495  14.827  0.0536  0.4897  0.0683
  135CHL1  H27A16248   0.190   4.501  14.906  0.2038 -2.5431  0.2752
  135CHL1  H27B16249   0.056   4.590  14.810 -3.8235 -1.9718 -2.7266
  135CHL1  H27C16250   0.031   4.429  14.866 -1.6035  2.7445  0.6751
  136CHL1    C316251   1.574   1.904  13.203 -0.5245  0.3100 -0.3501
  136CHL1    H316252   1.666   1.900  13.264 -1.3290 -1.4622  0.8418
  136CHL1    O316253   1.591   1.904  13.066  0.4453 -0.5680 -0.2839
  136CHL1   H3'16254   1.506   1.924  13.025 -0.2726 -1.3694  0.7901
  136CHL1    C416255   1.486   1.774  13.240  0.2958 -0.5551 -0.3058
  136CHL1   H4A16256   1.396   1.768  13.175 -1.0030  0.8829  1.2737
  136CHL1   H4B16257   1.559   1.695  13.211 -1.0422 -1.4547 -1.3580
  136CHL1    C516258   1.448   1.773  13.384  0.7164  0.9012 -0.5156
  136CHL1    C616259   1.488   1.673  13.466  0.3600 -0.3820 -0.4597
  136CHL1    H616260   1.543   1.584  13.431  0.8243 -0.6880  0.9523
  136CHL1    C716261   1.470   1.668  13.616 -0.2390 -0.0908 -0.0661
  136CHL1   H7A16262   1.426   1.569  13.642  0.1821 -1.0452 -2.6270
  136CHL1   H7B16263   1.554   1.682  13.687 -1.3247 -1.6623  1.5960
  136CHL1    C816264   1.354   1.768  13.662 -0.0091  0.6470  0.0438
  136CHL1    H816265   1.263   1.724  13.616  0.8193 -1.1614  0.0436
  136CHL1   C1416266   1.359   1.774  13.814 -0.2068  0.3348 -0.4723
  136CHL1   H1416267   1.463   1.808  13.832 -0.5370  2.6311 -2.4367
  136CHL1   C1516268   1.340   1.641  13.892 -0.3892 -0.8948  0.1989
  136CHL1  H15A16269   1.257   1.582  13.850 -0.9728 -0.7626  1.1487
  136CHL1  H15B16270   1.423   1.567  13.889  2.2150  1.7373  1.1703
  136CHL1   C1616271   1.314   1.691  14.036  0.6516 -0.2376 -0.0134
  136CHL1  H16A16272   1.230   1.635  14.082  1.1872 -0.9413  0.1245
  136CHL1  H16B16273   1.405   1.674  14.098  0.6632  0.1659  0.0858
  136CHL1   C1716274   1.297   1.848  14.024 -0.3448  0.5981  0.0645
  136CHL1   H1716275   1.397   1.895  14.033  0.5345 -1.5001  2.7025
  136CHL1   C1316276   1.259   1.874  13.874  0.9905  0.6650 -0.3023
  136CHL1   C1816277   1.107   1.825  13.847 -0.3638  0.2821 -0.1310
  136CHL1  H18A16278   1.092   1.731  13.904  0.9325 -2.0192 -3.3169
  136CHL1  H18B16279   1.046   1.907  13.891  0.1831  1.2295 -1.0874
  136CHL1  H18C16280   1.087   1.815  13.738  2.3668  0.4379 -0.7251
  136CHL1   C1216281   1.285   2.010  13.816 -0.2197  0.1081  0.0083
  136CHL1  H12A16282   1.208   2.083  13.851  0.2211  0.7656 -0.3614
  136CHL1  H12B16283   1.384   2.043  13.854 -0.4685  1.2396 -0.2792
  136CHL1   C1116284   1.288   2.018  13.663 -0.1758  0.3127  0.1284
  136CHL1  H11A16285   1.189   1.991  13.622  0.7577 -1.0947 -1.3514
  136CHL1  H11B16286   1.304   2.116  13.613 -2.7667 -0.4281 -2.3906
  136CHL1    C916287   1.380   1.906  13.595  0.0016  0.5416  0.1896
  136CHL1    H916288   1.478   1.941  13.632  0.6499 -0.8157 -0.1953
  136CHL1   C1016289   1.380   1.903  13.440 -0.1124 -0.5043 -0.5236
  136CHL1   C1916290   1.237   1.909  13.383 -0.5647 -0.6366  1.1581
  136CHL1  H19A16291   1.220   1.861  13.284  1.3753  2.3230 -0.7761
  136CHL1  H19B16292   1.179   1.854  13.461 -0.1258 -0.6613  1.4699
  136CHL1  H19C16293   1.202   2.014  13.377 -1.3381 -0.9606 -1.7572
  136CHL1    C116294   1.455   2.025  13.391  0.3508 -0.3344 -0.0115
  136CHL1   H1A16295   1.397   2.114  13.426 -0.4283 -0.9122  0.2076
  136CHL1   H1B16296   1.546   2.027  13.454 -0.5172 -0.7467  1.2923
  136CHL1    C216297   1.479   2.025  13.243 -0.0988  0.9847 -0.1232
  136CHL1   H2A16298   1.530   2.116  13.204 -2.6861  2.8539  0.5616
  136CHL1   H2B16299   1.385   2.020  13.183 -0.5213 -1.9165  0.6244
  136CHL1   C2016300   1.211   1.909  14.131  0.1276 -0.2315  1.0395
  136CHL1   H2016301   1.103   1.897  14.106  0.1913  2.1819 -0.7212
  136CHL1   C2116302   1.229   2.057  14.137  0.0854  0.0496  0.2574
  136CHL1  H21A16303   1.332   2.073  14.175 -0.5434  1.0202  1.6205
  136CHL1  H21B16304   1.155   2.097  14.210  0.7981  0.9036  0.5273
  136CHL1  H21C16305   1.205   2.111  14.042 -1.5682  0.4164  0.8378
  136CHL1   C2216306   1.242   1.857  14.277 -0.4586  0.3507  0.4607
  136CHL1  H22A16307   1.239   1.746  14.284  0.7423  0.2990  0.4050
  136CHL1  H22B16308   1.348   1.880  14.302 -0.1498 -0.0590 -0.4282
  136CHL1   C2316309   1.153   1.920  14.389 -0.4330  0.1230 -0.4369
  136CHL1  H23A16310   1.204   2.017  14.409  2.3764 -1.4569  0.4939
  136CHL1  H23B16311   1.048   1.928  14.352 -0.3685  1.9994 -0.3130
  136CHL1   C2416312   1.141   1.847  14.519 -0.4467  0.5628 -0.0033
  136CHL1  H24A16313   1.122   1.739  14.506  2.6119 -0.3149  1.7516
  136CHL1  H24B16314   1.246   1.845  14.556 -0.1678 -2.9670 -0.6983
  136CHL1   C2516315   1.048   1.907  14.617 -0.1025 -0.1959 -0.2966
  136CHL1   H2516316   0.945   1.926  14.578  0.2884  3.0005 -0.0123
  136CHL1   C2616317   1.028   1.817  14.740 -0.2566 -0.0734  0.3009
  136CHL1  H26A16318   0.955   1.860  14.811  0.2433 -1.9256  2.0326
  136CHL1  H26B16319   0.991   1.717  14.710  0.2036  0.3328 -1.7778
  136CHL1  H26C16320   1.135   1.814  14.771 -0.0608  1.0665 -0.2266
  136CHL1   C2716321   1.101   2.050  14.656 -0.4359  0.9644  0.5816
  136CHL1  H27A16322   1.106   2.108  14.561  2.1336  1.6938  1.0899
  136CHL1  H27B16323   1.029   2.094  14.728 -2.2744 -1.5364  0.4209
  136CHL1  H27C16324   1.205   2.048  14.693 -0.1948 -0.7409 -0.1045
  137CHL1    C316325   2.070   3.432  13.450  0.0665  0.0287 -0.7449
  137CHL1    H316326   2.158   3.500  13.443 -0.7459  1.0750 -0.9664
  137CHL1    O316327   1.990   3.435  13.331  0.1231  0.0772  0.0600
  137CHL1   H3'16328   1.992   3.353  13.282 -0.3152  2.0889 -3.7231
  137CHL1    C416329   2.125   3.291  13.459 -0.0825 -0.1771  0.0400
  137CHL1   H4A16330   2.046   3.215  13.441  0.5186 -1.1616  1.3941
  137CHL1   H4B16331   2.193   3.282  13.372 -0.3961 -0.7539 -0.1513
  137CHL1    C516332   2.210   3.275  13.588 -0.2993 -0.0412 -0.4471
  137CHL1    C616333   2.333   3.233  13.591  0.6591  0.1183  0.3211
  137CHL1    H616334   2.386   3.204  13.499 -0.8092 -0.1156 -0.4793
  137CHL1    C716335   2.407   3.212  13.715  1.2077 -0.6663 -0.5835
  137CHL1   H7A16336   2.479   3.128  13.709  1.9370 -0.2387  1.3983
  137CHL1   H7B16337   2.469   3.302  13.736 -0.2058  0.3543 -0.6561
  137CHL1    C816338   2.317   3.200  13.842 -0.0092 -0.4936 -0.0204
  137CHL1    H816339   2.256   3.108  13.830 -0.3511 -0.4790  1.4445
  137CHL1   C1416340   2.396   3.188  13.979  0.7327 -0.5281  0.0916
  137CHL1   H1416341   2.458   3.279  13.972 -0.5507  0.4139  0.6488
  137CHL1   C1516342   2.501   3.074  13.987 -0.5136  0.3400  0.3756
  137CHL1  H15A16343   2.439   2.988  13.955  2.0390 -1.1410 -0.8864
  137CHL1  H15B16344   2.588   3.076  13.919 -0.5121  0.6086  0.3828
  137CHL1   C1616345   2.535   3.070  14.139  0.8010 -0.8712  0.2700
  137CHL1  H16A16346   2.526   2.966  14.177 -1.4626  0.0311  2.4747
  137CHL1  H16B16347   2.638   3.108  14.153  0.5594 -0.7114  1.7963
  137CHL1   C1716348   2.432   3.173  14.206  0.5861  0.0119 -0.2621
  137CHL1   H1716349   2.483   3.271  14.194  3.1205 -1.0779  1.0704
  137CHL1   C1316350   2.315   3.184  14.105 -0.4795 -0.1677 -0.2695
  137CHL1   C1816351   2.236   3.054  14.112  0.0733 -0.3784 -0.4252
  137CHL1  H18A16352   2.305   2.967  14.107  0.9657  0.1589  1.5317
  137CHL1  H18B16353   2.195   3.044  14.214 -0.6986 -0.6478 -0.7538
  137CHL1  H18C16354   2.149   3.045  14.042  1.8011  1.9403 -3.0966
  137CHL1   C1216355   2.234   3.309  14.112 -0.3890 -0.3492 -1.4232
  137CHL1  H12A16356   2.166   3.318  14.200  2.1705  3.4588  0.4876
  137CHL1  H12B16357   2.299   3.399  14.124 -0.3230 -0.6966  1.8725
  137CHL1   C1116358   2.145   3.332  13.982  0.2251  0.4984  0.4009
  137CHL1  H11A16359   2.076   3.246  13.996  1.7722 -0.5779  1.9700
  137CHL1  H11B16360   2.092   3.429  13.990 -0.3465  0.0773  2.3862
  137CHL1    C916361   2.223   3.315  13.847 -0.1817  0.3442 -0.0780
  137CHL1    H916362   2.287   3.406  13.842 -0.4681  0.5138 -0.8302
  137CHL1   C1016363   2.137   3.311  13.721 -0.6396 -0.3887 -0.1560
  137CHL1   C1916364   2.012   3.212  13.739  0.5890  0.0342  0.8459
  137CHL1  H19A16365   2.050   3.116  13.777 -1.1135 -1.7945 -1.7418
  137CHL1  H19B16366   1.933   3.254  13.806 -0.3648 -1.0241  0.4228
  137CHL1  H19C16367   1.965   3.196  13.639  1.6873 -0.6263  0.4201
  137CHL1    C116368   2.078   3.457  13.704 -0.0127  0.2696  0.9795
  137CHL1   H1A16369   2.020   3.487  13.794 -1.3653 -0.8239  0.5118
  137CHL1   H1B16370   2.164   3.526  13.694 -0.0888  0.1646 -0.7252
  137CHL1    C216371   1.994   3.478  13.578 -0.2717  0.5029  0.2831
  137CHL1   H2A16372   1.972   3.587  13.574 -3.0757  0.1251  2.2171
  137CHL1   H2B16373   1.905   3.415  13.600  0.7980 -0.9057  0.7438
  137CHL1   C2016374   2.415   3.142  14.364  0.0999  0.2150  0.6754
  137CHL1   H2016375   2.359   3.046  14.361  1.1045 -0.4864  2.6544
  137CHL1   C2116376   2.340   3.257  14.430 -0.2598  0.3674  0.5512
  137CHL1  H21A16377   2.316   3.243  14.537  0.2078 -3.2828  0.3059
  137CHL1  H21B16378   2.247   3.268  14.372 -0.3389  4.0480  1.1060
  137CHL1  H21C16379   2.400   3.350  14.415 -0.0734  0.2230  0.4019
  137CHL1   C2216380   2.551   3.108  14.433 -0.5034  0.3205  0.0075
  137CHL1  H22A16381   2.578   3.007  14.397 -0.3865  0.6406 -0.8275
  137CHL1  H22B16382   2.629   3.176  14.394  1.4009 -0.6668  1.9155
  137CHL1   C2316383   2.547   3.092  14.594  0.0874  0.3063  0.4079
  137CHL1  H23A16384   2.518   3.190  14.640  0.3252  0.4079  0.3404
  137CHL1  H23B16385   2.470   3.018  14.625  0.3466  0.8294  2.4653
  137CHL1   C2416386   2.680   3.059  14.665  1.0761  0.5809  0.1544
  137CHL1  H24A16387   2.714   2.960  14.629 -1.8542  0.4234 -2.6755
  137CHL1  H24B16388   2.746   3.144  14.636 -0.2447  1.0895 -1.5147
  137CHL1   C2516389   2.676   3.051  14.827  0.2039 -0.1928 -0.4827
  137CHL1   H2516390   2.637   3.151  14.855  3.4996  0.2349  3.6605
  137CHL1   C2616391   2.586   2.946  14.881  0.6575 -0.2855  0.0521
  137CHL1  H26A16392   2.483   2.985  14.897  1.2076  0.9762  0.6519
  137CHL1  H26B16393   2.583   2.864  14.807  0.4968  1.7832 -2.3617
  137CHL1  H26C16394   2.629   2.916  14.979  2.2866  0.6587 -0.3344
  137CHL1   C2716395   2.816   3.030  14.877  0.1755  0.2192 -0.4316
  137CHL1  H27A16396   2.892   3.086  14.818 -1.0455  0.7890 -1.5253
  137CHL1  H27B16397   2.825   3.063  14.983  0.0316  0.1353 -0.3924
  137CHL1  H27C16398   2.844   2.922  14.878 -2.8358 -0.6542 -0.1682
  138CHL1    C316399   1.969   1.624  13.262 -0.6990  0.3953 -0.2443
  138CHL1    H316400   1.866   1.624  13.222 -1.4657  1.2676  1.6142
  138CHL1    O316401   2.058   1.625  13.147  0.3587  0.3778 -0.0613
  138CHL1   H3'16402   2.040   1.710  13.106 -0.3334  0.6553  0.7939
  138CHL1    C416403   2.006   1.754  13.334 -0.2273 -0.7212  0.2379
  138CHL1   H4A16404   2.116   1.760  13.348 -0.3798  1.4795  0.8645
  138CHL1   H4B16405   1.981   1.839  13.268  0.5042 -0.8812 -0.2543
  138CHL1    C516406   1.937   1.771  13.470  0.1604  0.2074  0.7133
  138CHL1    C616407   1.855   1.869  13.496 -0.6375 -0.2684  0.2916
  138CHL1    H616408   1.827   1.948  13.424 -1.2548 -0.7270  0.0181
  138CHL1    C716409   1.793   1.886  13.629  0.4295  0.2218  0.4399
  138CHL1   H7A16410   1.802   1.988  13.670 -2.1902  1.5983 -1.9633
  138CHL1   H7B16411   1.686   1.855  13.628  0.8594 -1.4485  1.8012
  138CHL1    C816412   1.856   1.794  13.736  0.0425 -0.5574 -0.0126
  138CHL1    H816413   1.954   1.838  13.767  1.5566 -3.7663  0.2088
  138CHL1   C1416414   1.779   1.802  13.868 -0.0665  0.3627 -0.0801
  138CHL1   H1416415   1.687   1.741  13.856  1.9869 -3.2039  0.8451
  138CHL1   C1516416   1.743   1.940  13.919  0.1870  0.3830  0.6643
  138CHL1  H15A16417   1.834   2.004  13.916 -0.8472  1.8829  0.6222
  138CHL1  H15B16418   1.651   1.986  13.879 -0.1281  0.2385  1.2132
  138CHL1   C1616419   1.710   1.917  14.069 -0.1272 -0.6343 -0.0623
  138CHL1  H16A16420   1.780   1.970  14.138  3.2199 -2.9097 -1.4222
  138CHL1  H16B16421   1.608   1.943  14.102  0.6274  0.2143  1.7318
  138CHL1   C1716422   1.739   1.761  14.101  0.2338  0.0191  0.4058
  138CHL1   H1716423   1.641   1.718  14.072 -1.4644  4.2361 -0.7978
  138CHL1   C1316424   1.840   1.720  13.987  0.6336 -0.6929  0.9360
  138CHL1   C1816425   1.971   1.776  14.029 -0.0280  0.6044  0.0555
  138CHL1  H18A16426   1.971   1.885  14.051  1.1280  0.7867 -0.7360
  138CHL1  H18B16427   2.016   1.722  14.116 -3.2193  1.2192  2.2416
  138CHL1  H18C16428   2.047   1.776  13.948 -1.5770 -2.2590 -1.5872
  138CHL1   C1216429   1.846   1.572  13.940 -0.2791  0.2618 -0.5718
  138CHL1  H12A16430   1.903   1.516  14.017 -0.9701 -1.1506 -1.0645
  138CHL1  H12B16431   1.742   1.537  13.926 -0.5950  0.5746  0.8734
  138CHL1   C1116432   1.916   1.557  13.803 -0.2073 -0.2363 -0.1130
  138CHL1  H11A16433   2.026   1.562  13.821 -0.4464  1.1669  1.1389
  138CHL1  H11B16434   1.910   1.451  13.772 -2.4721 -0.0094 -0.5943
  138CHL1    C916435   1.880   1.657  13.687 -0.1360 -0.1047 -0.0855
  138CHL1    H916436   1.784   1.610  13.657  0.8244 -0.9355 -2.0165
  138CHL1   C1016437   1.966   1.653  13.560 -0.0481  0.0346  0.5335
  138CHL1   C1916438   2.125   1.672  13.597  0.6341  0.3957 -0.2583
  138CHL1  H19A16439   2.165   1.596  13.667 -0.6655 -0.8315 -0.7858
  138CHL1  H19B16440   2.191   1.664  13.508 -0.2148 -0.5282 -0.8321
  138CHL1  H19C16441   2.135   1.767  13.653  2.6961 -0.2702  0.5840
  138CHL1    C116442   1.948   1.519  13.484 -0.5005 -0.5192  0.2858
  138CHL1   H1A16443   1.998   1.438  13.541  1.7117  1.0013  0.6288
  138CHL1   H1B16444   1.842   1.486  13.474 -0.1591 -1.3679 -0.6261
  138CHL1    C216445   2.015   1.512  13.348 -0.1089 -0.0356 -0.3769
  138CHL1   H2A16446   1.973   1.414  13.316  1.1244 -1.5183  2.2841
  138CHL1   H2B16447   2.125   1.500  13.355 -0.3369 -1.6381  1.1516
  138CHL1   C2016448   1.777   1.723  14.247  0.2401 -0.3018 -0.2195
  138CHL1   H2016449   1.864   1.787  14.274  0.1154 -1.1039  2.2748
  138CHL1   C2116450   1.836   1.575  14.260  0.2278 -0.1147 -0.2748
  138CHL1  H21A16451   1.754   1.508  14.227 -0.6702 -0.7330  2.8829
  138CHL1  H21B16452   1.846   1.559  14.369 -1.7987  1.7040  0.2584
  138CHL1  H21C16453   1.932   1.554  14.208 -0.2634 -2.6612 -0.2825
  138CHL1   C2216454   1.666   1.749  14.349 -0.2405 -0.8531 -0.4998
  138CHL1  H22A16455   1.630   1.852  14.328 -0.2067 -1.2587 -2.8339
  138CHL1  H22B16456   1.590   1.676  14.314  1.3810 -1.0728 -3.9426
  138CHL1   C2316457   1.703   1.736  14.497 -0.2723  0.2158 -0.0242
  138CHL1  H23A16458   1.717   1.627  14.514 -0.8971  0.2896  1.0509
  138CHL1  H23B16459   1.795   1.791  14.528 -0.1444 -1.0849  2.1479
  138CHL1   C2416460   1.596   1.795  14.589  0.0518 -0.1825 -0.0410
  138CHL1  H24A16461   1.604   1.906  14.590  0.0164 -0.1391  2.6529
  138CHL1  H24B16462   1.497   1.754  14.557 -0.5756 -1.1859  2.8405
  138CHL1   C2516463   1.617   1.759  14.742 -0.0374 -0.5078  0.5772
  138CHL1   H2516464   1.652   1.654  14.753  1.6860  0.1790  2.3301
  138CHL1   C2616465   1.730   1.846  14.798  0.4112 -0.1220  0.4137
  138CHL1  H26A16466   1.748   1.825  14.906  1.4223 -0.4756  0.1873
  138CHL1  H26B16467   1.821   1.818  14.740 -0.4070 -0.4081 -0.7674
  138CHL1  H26C16468   1.709   1.955  14.784  0.4661 -0.1984 -0.3003
  138CHL1   C2716469   1.494   1.788  14.825 -0.1997  0.7947 -0.1127
  138CHL1  H27A16470   1.413   1.713  14.808  1.0343 -1.4322  2.8849
  138CHL1  H27B16471   1.523   1.779  14.932  0.2752 -0.9620 -0.3565
  138CHL1  H27C16472   1.441   1.885  14.820 -0.1674  0.9851  2.2251
  139CHL1    C316473   2.255   0.509  13.113 -0.1197  0.5901  0.5448
  139CHL1    H316474   2.160   0.566  13.109  0.6408  1.9238  0.8874
  139CHL1    O316475   2.310   0.505  12.982  0.3143  0.1179  0.0812
  139CHL1   H3'16476   2.397   0.465  12.988 -0.3647 -1.3016  1.0117
  139CHL1    C416477   2.347   0.573  13.219 -0.3695  0.2479  0.1889
  139CHL1   H4A16478   2.443   0.519  13.220  0.3723  1.4818 -1.0557
  139CHL1   H4B16479   2.363   0.675  13.178  0.9898 -0.3495 -0.8470
  139CHL1    C516480   2.295   0.571  13.360  0.1104  0.5511  0.5294
  139CHL1    C616481   2.282   0.685  13.431 -0.4978  0.5228  0.5144
  139CHL1    H616482   2.316   0.775  13.379 -1.1704 -0.4231 -1.7037
  139CHL1    C716483   2.235   0.700  13.570 -0.2209 -0.5300  0.8041
  139CHL1   H7A16484   2.314   0.750  13.629 -0.2815  1.1371 -0.4541
  139CHL1   H7B16485   2.140   0.754  13.589  0.3306  0.3988  0.9413
  139CHL1    C816486   2.230   0.557  13.642 -0.4026 -0.3139 -0.0681
  139CHL1    H816487   2.332   0.517  13.658  0.3632  0.9943 -1.4587
  139CHL1   C1416488   2.160   0.565  13.780 -0.3934 -0.5089 -0.2196
  139CHL1   H1416489   2.057   0.601  13.762  0.1721  0.8852 -0.7896
  139CHL1   C1516490   2.229   0.671  13.871  0.8527 -0.1338  0.1022
  139CHL1  H15A16491   2.338   0.653  13.862  0.6596 -1.1418 -0.4234
  139CHL1  H15B16492   2.212   0.776  13.840  0.1678  0.2437  1.6330
  139CHL1   C1616493   2.155   0.635  14.003  0.2589  0.7293  0.0557
  139CHL1  H16A16494   2.232   0.629  14.083 -0.3381  0.7612  0.6398
  139CHL1  H16B16495   2.080   0.711  14.033 -0.3480 -0.0186  0.4702
  139CHL1   C1716496   2.077   0.506  13.985 -0.2620 -0.1575 -0.3108
  139CHL1   H1716497   1.976   0.530  13.945  0.2379  0.0115 -1.5231
  139CHL1   C1316498   2.145   0.442  13.854 -0.2607 -0.4276 -0.2601
  139CHL1   C1816499   2.284   0.387  13.895 -0.1443 -0.4075 -0.0262
  139CHL1  H18A16500   2.269   0.285  13.939 -0.4195  0.1049  1.1171
  139CHL1  H18B16501   2.339   0.376  13.799 -0.5602 -0.7771 -0.2278
  139CHL1  H18C16502   2.336   0.446  13.973  0.5458 -2.4838  1.1935
  139CHL1   C1216503   2.060   0.347  13.769  0.3492  0.2543 -0.1779
  139CHL1  H12A16504   2.045   0.248  13.817  0.5225  0.9164  1.3105
  139CHL1  H12B16505   1.960   0.385  13.740 -0.8040 -2.1054  0.4731
  139CHL1   C1116506   2.124   0.316  13.632 -0.1014  0.3034  0.2768
  139CHL1  H11A16507   2.214   0.255  13.655 -0.0271  1.0588  2.1531
  139CHL1  H11B16508   2.052   0.252  13.578 -1.5008  2.0906 -0.0802
  139CHL1    C916509   2.166   0.446  13.554  0.7174 -0.4952  0.0161
  139CHL1    H916510   2.072   0.495  13.521  1.4877  0.7177 -0.4604
  139CHL1   C1016511   2.244   0.434  13.415 -0.1050 -0.9462 -0.4497
  139CHL1   C1916512   2.365   0.340  13.446  0.4324 -0.3549 -0.3004
  139CHL1  H19A16513   2.325   0.236  13.448 -0.7879  0.0416  3.3800
  139CHL1  H19B16514   2.444   0.345  13.368  2.1908  1.0863  1.4449
  139CHL1  H19C16515   2.406   0.358  13.548 -2.6703  1.1274  0.8276
  139CHL1    C116516   2.156   0.367  13.300 -0.0386  0.4363 -0.1980
  139CHL1   H1A16517   2.138   0.266  13.344 -1.1466  1.1577  1.0790
  139CHL1   H1B16518   2.059   0.420  13.290 -0.0770  0.3281 -0.4197
  139CHL1    C216519   2.216   0.368  13.156  0.1047  1.1481 -0.1455
  139CHL1   H2A16520   2.155   0.316  13.079  0.8035 -1.0962  0.7323
  139CHL1   H2B16521   2.309   0.307  13.161 -1.7870 -2.0273 -0.2853
  139CHL1   C2016522   2.079   0.418  14.107  0.2532 -0.4739  0.1046
  139CHL1   H2016523   2.182   0.376  14.118  0.4319 -0.4809 -1.3481
  139CHL1   C2116524   1.992   0.291  14.103  0.0441 -0.0181 -0.3992
  139CHL1  H21A16525   2.023   0.228  14.017  0.9750  0.5448 -0.4911
  139CHL1  H21B16526   1.886   0.318  14.083 -0.2045 -1.1153 -0.6003
  139CHL1  H21C16527   1.994   0.234  14.199  0.3537 -0.5763 -0.7301
  139CHL1   C2216528   2.032   0.484  14.237  0.1880 -0.3013 -1.0714
  139CHL1  H22A16529   2.021   0.593  14.221  1.6895 -0.0981 -0.8055
  139CHL1  H22B16530   1.927   0.455  14.258  0.5108 -0.4549  0.4224
  139CHL1   C2316531   2.105   0.445  14.366 -1.2287 -0.5043  0.5836
  139CHL1  H23A16532   2.124   0.336  14.369  1.4564 -0.1235  0.5618
  139CHL1  H23B16533   2.210   0.482  14.358 -0.7491 -0.9659  3.6244
  139CHL1   C2416534   2.034   0.488  14.497 -0.6965  0.0087 -0.2948
  139CHL1  H24A16535   2.036   0.598  14.512  1.9375 -0.2641  2.5657
  139CHL1  H24B16536   1.927   0.460  14.498 -0.5454 -0.6588  1.5203
  139CHL1   C2516537   2.097   0.439  14.632  0.9760 -0.1588  0.1173
  139CHL1   H2516538   2.202   0.476  14.632  0.5496  1.2834  2.6464
  139CHL1   C2616539   2.023   0.496  14.751  0.3998 -0.1860  0.1417
  139CHL1  H26A16540   2.056   0.449  14.846  2.8517  1.0224 -0.0427
  139CHL1  H26B16541   2.028   0.607  14.757  0.7304 -0.1720 -0.3886
  139CHL1  H26C16542   1.916   0.465  14.747  0.2426  0.4005 -0.3463
  139CHL1   C2716543   2.097   0.289  14.652 -0.6526 -0.1366  0.4343
  139CHL1  H27A16544   2.128   0.240  14.558  1.2555  1.6959  0.0327
  139CHL1  H27B16545   2.162   0.257  14.736  1.6223  1.0526 -0.7685
  139CHL1  H27C16546   1.992   0.260  14.675 -0.6947  0.1923  0.6665
  140CHL1    C316547   2.572   1.516  13.094 -0.4664 -0.4650  0.1330
  140CHL1    H316548   2.534   1.620  13.101  1.3780  0.2717 -0.2250
  140CHL1    O316549   2.597   1.491  12.956  0.2103 -0.2307 -0.1989
  140CHL1   H3'16550   2.687   1.522  12.942 -0.1905  1.5056  0.7585
  140CHL1    C416551   2.703   1.522  13.172 -0.2511  0.3703  0.1284
  140CHL1   H4A16552   2.755   1.427  13.150  0.1784  1.2833 -3.2953
  140CHL1   H4B16553   2.774   1.594  13.126  0.4329  0.1184  0.7635
  140CHL1    C516554   2.682   1.548  13.316  0.1957  0.0060  0.0732
  140CHL1    C616555   2.734   1.654  13.373  0.0186 -0.0358  0.1788
  140CHL1    H616556   2.792   1.728  13.316 -0.6071  0.9973  0.8451
  140CHL1    C716557   2.715   1.685  13.517  0.0227 -0.4090  0.5498
  140CHL1   H7A16558   2.817   1.694  13.560  0.1012  0.0477  0.2790
  140CHL1   H7B16559   2.654   1.777  13.531 -0.4059 -0.5803 -0.1464
  140CHL1    C816560   2.645   1.577  13.594 -0.0279 -1.4640  0.2389
  140CHL1    H816561   2.730   1.509  13.614  1.9270  0.7509 -0.1076
  140CHL1   C1416562   2.598   1.635  13.730  0.4200  0.1156  0.2206
  140CHL1   H1416563   2.517   1.707  13.706 -0.8968 -0.2592  3.1433
  140CHL1   C1516564   2.695   1.712  13.821  0.7064 -0.0156  0.4172
  140CHL1  H15A16565   2.788   1.653  13.830  1.2946  1.0283  1.4247
  140CHL1  H15B16566   2.722   1.814  13.787 -2.7257  1.3885  1.4403
  140CHL1   C1616567   2.609   1.726  13.951 -0.0786  0.7826 -0.5848
  140CHL1  H16A16568   2.679   1.705  14.035 -1.2939 -0.3967  0.1719
  140CHL1  H16B16569   2.576   1.830  13.974  0.4192  1.1630 -1.5122
  140CHL1   C1716570   2.500   1.618  13.944  0.1510 -0.1697  0.0055
  140CHL1   H1716571   2.410   1.668  13.902 -2.0623 -3.0565  0.9466
  140CHL1   C1316572   2.537   1.530  13.819  0.1619  0.4109 -0.3907
  140CHL1   C1816573   2.648   1.428  13.872  0.0529  0.1168 -0.0359
  140CHL1  H18A16574   2.704   1.461  13.963  0.5242 -0.1707 -0.2178
  140CHL1  H18B16575   2.593   1.335  13.899  0.2425 -0.3210 -1.1317
  140CHL1  H18C16576   2.725   1.410  13.794 -1.1129 -3.9485 -0.4747
  140CHL1   C1216577   2.421   1.472  13.747 -0.0598 -0.4816 -0.0365
  140CHL1  H12A16578   2.352   1.411  13.809 -1.3145 -0.6366 -1.5222
  140CHL1  H12B16579   2.364   1.559  13.710  1.2796  0.4020 -0.0872
  140CHL1   C1116580   2.474   1.399  13.626  0.3312  1.2461 -0.5007
  140CHL1  H11A16581   2.559   1.332  13.651 -0.3145  0.2905 -0.8565
  140CHL1  H11B16582   2.396   1.332  13.584  0.8677 -0.0420  0.4846
  140CHL1    C916583   2.533   1.499  13.522 -0.5439  0.3896  0.0224
  140CHL1    H916584   2.451   1.573  13.510 -1.9203 -0.3289  3.5360
  140CHL1   C1016585   2.578   1.452  13.384 -0.7862 -1.0496  0.2476
  140CHL1   C1916586   2.644   1.308  13.396 -0.4788  0.1902  0.1513
  140CHL1  H19A16587   2.596   1.237  13.466  0.2857  0.6303  1.1538
  140CHL1  H19B16588   2.656   1.266  13.294  1.2628  1.1421 -0.0780
  140CHL1  H19C16589   2.740   1.329  13.447 -1.3570  0.1044  1.8925
  140CHL1    C116590   2.449   1.427  13.299  0.1374  0.4737  0.3548
  140CHL1   H1A16591   2.399   1.344  13.354 -0.4856  2.2595  2.6654
  140CHL1   H1B16592   2.390   1.520  13.313 -1.0790 -0.0995 -0.8557
  140CHL1    C216593   2.470   1.412  13.143  0.3966 -0.1762 -0.2050
  140CHL1   H2A16594   2.378   1.419  13.081  0.4475 -2.0794 -0.5546
  140CHL1   H2B16595   2.520   1.315  13.121  2.5525  1.0745 -1.1631
  140CHL1   C2016596   2.468   1.552  14.080 -0.5987 -0.6121 -0.2535
  140CHL1   H2016597   2.563   1.502  14.110  0.4224  1.6962  0.5943
  140CHL1   C2116598   2.356   1.447  14.067  0.5526 -0.3747  0.1592
  140CHL1  H21A16599   2.277   1.493  14.004  0.7043 -1.0034 -0.5073
  140CHL1  H21B16600   2.308   1.431  14.166  1.9298  0.9214  1.0725
  140CHL1  H21C16601   2.396   1.351  14.028  0.8743  0.9066 -2.9354
  140CHL1   C2216602   2.440   1.652  14.198  0.4403 -0.0356  0.2131
  140CHL1  H22A16603   2.450   1.596  14.294 -0.7018  0.6896  0.7894
  140CHL1  H22B16604   2.514   1.734  14.185 -2.0462  2.2092 -0.6734
  140CHL1   C2316605   2.311   1.720  14.192  0.3137  0.2934 -0.6587
  140CHL1  H23A16606   2.285   1.748  14.087  1.2480 -1.3075 -1.3553
  140CHL1  H23B16607   2.230   1.651  14.225  2.2022 -2.0928 -0.7524
  140CHL1   C2416608   2.310   1.845  14.284  0.2570 -0.9602 -0.3709
  140CHL1  H24A16609   2.397   1.905  14.251  2.0319 -2.3281  1.5692
  140CHL1  H24B16610   2.213   1.897  14.267  0.0829 -1.0658  0.2395
  140CHL1   C2516611   2.320   1.824  14.436 -0.0161 -0.4465 -0.0673
  140CHL1   H2516612   2.403   1.756  14.464  1.2338  1.5546  1.3228
  140CHL1   C2616613   2.198   1.768  14.497  0.8233  0.0161  0.0038
  140CHL1  H26A16614   2.107   1.831  14.485  0.4502 -0.1772  1.5583
  140CHL1  H26B16615   2.174   1.667  14.456  0.2706 -0.2612  0.9637
  140CHL1  H26C16616   2.216   1.761  14.607 -1.3323  3.7080  0.7733
  140CHL1   C2716617   2.361   1.963  14.501  0.5297 -0.2180 -0.7393
  140CHL1  H27A16618   2.270   2.025  14.513  0.4720 -0.5706  0.9836
  140CHL1  H27B16619   2.414   1.936  14.595 -0.2448 -1.6395 -0.6950
  140CHL1  H27C16620   2.426   2.019  14.431 -0.1230 -0.9810 -1.9735
  141DOPC     N16621   6.334   3.826  17.784 -0.4289  0.3095 -0.1958
  141DOPC   C1216622   6.320   3.886  17.640 -0.6740 -0.0137  0.4858
  141DOPC  H12A16623   6.424   3.900  17.612 -0.6556  2.1853  1.4687
  141DOPC  H12B16624   6.289   3.989  17.648 -0.7395 -0.1772  3.1921
  141DOPC   C1316625   6.420   3.911  17.864 -0.1324 -0.6435 -0.8487
  141DOPC  H13A16626   6.377   4.011  17.867  0.4995 -0.3883  0.4452
  141DOPC  H13B16627   6.442   3.849  17.950  2.2042 -1.6203 -2.0497
  141DOPC  H13C16628   6.517   3.919  17.817 -0.8992  1.1743 -2.2744
  141DOPC   C1416629   6.390   3.686  17.768 -0.1676 -0.3942  0.0201
  141DOPC  H14A16630   6.449   3.675  17.858  0.4372 -0.1184 -0.3337
  141DOPC  H14B16631   6.308   3.617  17.756 -0.1675 -0.1798 -1.3903
  141DOPC  H14C16632   6.444   3.682  17.675  1.4030 -2.8566  0.9400
  141DOPC   C1516633   6.200   3.816  17.856 -0.0729 -0.5703  1.1093
  141DOPC  H15A16634   6.201   3.797  17.962 -3.6236 -0.1890  1.3588
  141DOPC  H15B16635   6.148   3.732  17.810  0.0434  0.6075 -1.3415
  141DOPC  H15C16636   6.146   3.905  17.828  1.6577 -0.2034 -1.4370
  141DOPC   C1116637   6.247   3.814  17.529  0.5725  0.4279  0.5410
  141DOPC  H11A16638   6.273   3.846  17.426 -3.1079 -0.4835 -0.8290
  141DOPC  H11B16639   6.269   3.705  17.527  0.9136  0.4576  1.8092
  141DOPC     P16640   6.017   3.919  17.468 -0.0145 -0.0560 -0.1157
  141DOPC   O1316641   6.041   4.052  17.535  0.2621 -0.5551  0.0087
  141DOPC   O1416642   5.881   3.869  17.464 -0.0717 -0.0121  0.0182
  141DOPC   O1216643   6.107   3.809  17.534  0.0091 -0.4582 -1.4716
  141DOPC   O1116644   6.083   3.929  17.322 -0.0362 -0.4721 -0.1342
  141DOPC    C116645   6.075   3.820  17.234 -0.0926  0.3138 -0.2326
  141DOPC    HA16646   5.988   3.835  17.166 -0.2762 -1.5716 -0.4730
  141DOPC    HB16647   6.052   3.721  17.279  0.4803 -0.2931 -1.2503
  141DOPC    C216648   6.199   3.804  17.130  0.4816  0.0121 -0.6077
  141DOPC    HS16649   6.285   3.842  17.190  1.1889  0.4101 -1.8396
  141DOPC   O2116650   6.180   3.900  17.020  0.6249  0.0893 -0.4171
  141DOPC   C2116651   6.293   3.930  16.956 -0.5528  0.4824  0.5200
  141DOPC   O2216652   6.405   3.895  16.992 -0.1759  0.1599 -0.5401
  141DOPC   C2216653   6.256   4.013  16.835  0.2832  0.2319  0.1732
  141DOPC   H2R16654   6.342   4.083  16.827  1.3702 -0.8106  1.9930
  141DOPC   H2S16655   6.164   4.073  16.854 -1.0154 -0.9331 -2.0118
  141DOPC    C316656   6.240   3.657  17.086 -0.6549 -0.9207  0.3681
  141DOPC    HX16657   6.272   3.601  17.176  0.6745 -0.9676 -0.1110
  141DOPC    HY16658   6.325   3.665  17.014 -0.9887 -2.1981 -0.2057
  141DOPC   O3116659   6.134   3.598  17.012  0.0540  0.0962 -0.1730
  141DOPC   C3116660   6.057   3.504  17.073  0.0689  0.6972  0.5361
  141DOPC   O3216661   6.066   3.486  17.195  0.3154  0.5167 -0.0914
  141DOPC   C3216662   5.960   3.445  16.968  0.2017  0.3356 -0.3029
  141DOPC   H2X16663   5.941   3.341  17.002  0.8026 -0.3853 -2.0756
  141DOPC   H2Y16664   5.865   3.502  16.984 -0.3542 -1.1547  2.3527
  141DOPC   C2316665   6.239   3.910  16.716  0.4393 -0.3872 -0.3539
  141DOPC   H3R16666   6.170   3.827  16.741 -0.3717  0.0946 -0.9648
  141DOPC   H3S16667   6.335   3.869  16.678  0.1678  0.2048 -1.7446
  141DOPC   C2416668   6.177   3.979  16.596 -0.1377 -0.0187 -0.5590
  141DOPC   H4R16669   6.084   4.028  16.630 -0.8742 -1.3041 -0.6864
  141DOPC   H4S16670   6.151   3.904  16.519  1.3390 -0.7158 -0.4040
  141DOPC   C2516671   6.257   4.098  16.543 -0.1785  1.0968 -0.2073
  141DOPC   H5R16672   6.262   4.169  16.628 -2.1251  1.6462 -0.5073
  141DOPC   H5S16673   6.194   4.142  16.463  0.3745  0.5387 -0.9648
  141DOPC   C2616674   6.393   4.059  16.475  0.3189  0.0662 -0.3782
  141DOPC   H6R16675   6.453   4.041  16.567  0.2814 -1.6867 -0.6725
  141DOPC   H6S16676   6.440   4.141  16.416  0.4511 -0.4302 -0.9818
  141DOPC   C2716677   6.399   3.937  16.382  0.9505 -0.2248  0.0579
  141DOPC   H7R16678   6.331   3.861  16.427 -0.8402  0.9453 -0.5751
  141DOPC   H7S16679   6.502   3.898  16.370  0.7111 -0.2979 -2.0856
  141DOPC   C2816680   6.325   3.961  16.250  0.1020 -0.5744 -0.1324
  141DOPC   H8R16681   6.216   3.970  16.270 -0.0054  2.5478 -1.5633
  141DOPC   H8S16682   6.329   3.864  16.195 -1.9460 -0.3944 -0.6986
  141DOPC   C2916683   6.374   4.081  16.163  0.8283  0.4141 -0.4848
  141DOPC   H9R16684   6.328   4.178  16.188  2.4980  1.1004  0.0434
  141DOPC  C21016685   6.458   4.072  16.056  0.1067  0.1762 -0.4602
  141DOPC  H10R16686   6.481   4.166  16.004 -2.0610  1.3601  0.5814
  141DOPC  C21116687   6.526   3.948  15.996  0.4009  0.3171  0.1970
  141DOPC  H11R16688   6.510   3.856  16.057  3.7777 -1.1226 -0.8452
  141DOPC  H11S16689   6.636   3.964  15.991  0.5926 -1.1183 -0.7616
  141DOPC  C21216690   6.466   3.930  15.853 -0.0589 -0.1086  0.0159
  141DOPC  H12R16691   6.500   4.009  15.783  0.3793  1.3205  1.7614
  141DOPC  H12S16692   6.355   3.935  15.858 -0.0538  0.4955 -0.4327
  141DOPC  C21316693   6.516   3.801  15.786  0.1970 -0.0995 -0.1791
  141DOPC  H13R16694   6.485   3.721  15.856 -0.0543  0.3328  0.2065
  141DOPC  H13S16695   6.626   3.815  15.793  0.2878 -1.3284  1.2931
  141DOPC  C21416696   6.463   3.778  15.645  0.1976 -0.4335  0.4673
  141DOPC  H14R16697   6.489   3.875  15.597  0.4822 -0.6431  0.1824
  141DOPC  H14S16698   6.353   3.772  15.657  0.0543  0.0338 -0.5047
  141DOPC  C21516699   6.526   3.667  15.563 -0.3738  0.0917 -0.1870
  141DOPC  H15R16700   6.507   3.570  15.614 -1.6250  1.0257  1.1898
  141DOPC  H15S16701   6.637   3.674  15.558 -0.3585  0.3528  0.4897
  141DOPC  C21616702   6.465   3.649  15.421  0.2964 -0.2053 -0.2245
  141DOPC  H16R16703   6.508   3.729  15.357 -0.4781  1.1220  0.8572
  141DOPC  H16S16704   6.355   3.657  15.414  0.4103  0.6764 -1.1501
  141DOPC  C21716705   6.503   3.522  15.341  0.1015  0.5854  0.1084
  141DOPC  H17R16706   6.607   3.485  15.353 -0.3470 -0.3438  1.1916
  141DOPC  H17S16707   6.495   3.535  15.231  0.6407  0.8364  0.0960
  141DOPC  C21816708   6.419   3.400  15.374  0.2558  0.2817 -0.4741
  141DOPC  H18R16709   6.449   3.308  15.319  0.7948  0.3720 -0.3358
  141DOPC  H18S16710   6.311   3.420  15.357 -0.0276  0.2526  1.0830
  141DOPC  H18T16711   6.420   3.388  15.485  0.9955 -0.4079 -0.5432
  141DOPC   C3316712   6.010   3.438  16.826  0.3631  0.2345 -0.1528
  141DOPC   H3X16713   6.109   3.390  16.840 -0.0461 -0.8513 -0.8428
  141DOPC   H3Y16714   6.018   3.543  16.789  1.7034  0.9567  2.0033
  141DOPC   C3416715   5.920   3.352  16.731 -0.4411  0.7306  0.3982
  141DOPC   H4X16716   5.816   3.390  16.715 -0.8589  0.6488  2.6414
  141DOPC   H4Y16717   5.921   3.249  16.773  0.5202 -0.3659 -2.0577
  141DOPC   C3516718   5.996   3.333  16.595  1.1344 -0.1472 -0.2688
  141DOPC   H5X16719   5.932   3.276  16.524  1.8160 -3.8953  1.8697
  141DOPC   H5Y16720   6.095   3.284  16.609  2.2604  1.7026 -1.2680
  141DOPC   C3616721   6.012   3.469  16.520  0.1044  0.1393 -0.8796
  141DOPC   H6X16722   5.920   3.525  16.546 -1.3177 -1.8408 -1.4670
  141DOPC   H6Y16723   6.101   3.511  16.572 -0.1055 -2.0530  1.4548
  141DOPC   C3716724   6.049   3.468  16.371 -0.0267 -0.6680  0.5930
  141DOPC   H7X16725   6.117   3.380  16.363  1.0438  0.1875 -0.0354
  141DOPC   H7Y16726   5.956   3.457  16.312 -0.5073  1.3278  0.9277
  141DOPC   C3816727   6.114   3.610  16.329  0.0995  0.5099 -0.3082
  141DOPC   H8X16728   6.147   3.667  16.419 -0.5226 -1.1793  1.0379
  141DOPC   H8Y16729   6.041   3.673  16.273  1.3576  2.3026 -0.0112
  141DOPC   C3916730   6.240   3.584  16.250 -0.3623  0.0995 -0.1202
  141DOPC   H9X16731   6.324   3.535  16.301 -1.2518 -1.6965 -0.2655
  141DOPC  C31016732   6.258   3.608  16.121 -0.3351 -0.8295  0.2210
  141DOPC  H10X16733   6.359   3.583  16.084  0.3182 -0.1162  1.4942
  141DOPC  C31116734   6.170   3.681  16.025  0.3659 -0.1293 -0.6124
  141DOPC  H11X16735   6.212   3.782  16.007 -0.6557  0.0986 -1.8859
  141DOPC  H11Y16736   6.064   3.684  16.059  0.4226 -1.6710 -0.2311
  141DOPC  C31216737   6.182   3.634  15.873  0.7779 -0.4043  0.6816
  141DOPC  H12X16738   6.142   3.531  15.863 -1.3436  0.5918 -2.1737
  141DOPC  H12Y16739   6.286   3.647  15.836  0.6392 -0.3985  0.2979
  141DOPC  C31316740   6.082   3.710  15.780  0.1394  0.0670  0.5031
  141DOPC  H13X16741   5.986   3.721  15.834 -1.4317  0.5778 -2.1781
  141DOPC  H13Y16742   6.120   3.814  15.769 -1.8603  1.1106  2.6102
  141DOPC  C31416743   6.054   3.643  15.650 -0.0165 -0.3296  0.0235
  141DOPC  H14X16744   6.148   3.646  15.590 -0.4706  0.5808 -0.6628
  141DOPC  H14Y16745   6.022   3.538  15.666 -2.0913  0.2515 -0.0600
  141DOPC  C31516746   5.958   3.733  15.557  0.5025 -0.4703 -0.1508
  141DOPC  H15X16747   5.991   3.838  15.551 -1.0993  0.0694  0.0602
  141DOPC  H15Y16748   5.874   3.748  15.627 -0.2443  1.4014 -1.3792
  141DOPC  C31616749   5.935   3.671  15.422  0.5911 -0.0821 -0.5173
  141DOPC  H16X16750   5.916   3.563  15.445  0.6612  0.3418  1.8146
  141DOPC  H16Y16751   5.838   3.710  15.385  0.1667  0.4301  1.0597
  141DOPC  C31716752   6.044   3.698  15.317 -0.1951  0.8003  0.4560
  141DOPC  H17X16753   6.074   3.801  15.288 -0.6243  1.5370  2.4983
  141DOPC  H17Y16754   6.132   3.647  15.363  0.2855 -0.2528 -1.5128
  141DOPC  C31816755   6.012   3.617  15.182 -0.0423 -0.3097 -0.1826
  141DOPC  H18X16756   6.071   3.649  15.094 -0.6175 -0.4744 -0.6354
  141DOPC  H18Y16757   6.028   3.508  15.202  0.2119 -0.1013  0.8167
  141DOPC  H18Z16758   5.906   3.635  15.152  0.1579  3.2386  0.8513
  142DOPC     N16759   0.658   4.320  17.693  0.4953 -0.3072 -0.4939
  142DOPC   C1216760   0.535   4.237  17.649 -0.6600 -0.6404  0.2932
  142DOPC  H12A16761   0.447   4.270  17.702 -0.4594 -1.2804  1.0545
  142DOPC  H12B16762   0.548   4.131  17.667 -1.9037 -0.5109  2.1839
  142DOPC   C1316763   0.619   4.467  17.690  0.1867  0.5021 -1.0358
  142DOPC  H13A16764   0.539   4.478  17.618 -0.9980 -0.4177  0.1056
  142DOPC  H13B16765   0.579   4.500  17.785  2.1606  1.0045 -0.3311
  142DOPC  H13C16766   0.698   4.540  17.677  0.0262  0.6348 -1.2717
  142DOPC   C1416767   0.773   4.304  17.601 -0.0010  0.7679  0.4535
  142DOPC  H14A16768   0.750   4.321  17.497  1.9106  0.1491 -0.1111
  142DOPC  H14B16769   0.854   4.361  17.645 -0.1235  0.9211  0.4779
  142DOPC  H14C16770   0.803   4.201  17.610 -0.0057  0.8945  2.4632
  142DOPC   C1516771   0.703   4.279  17.831  0.5450  0.3097 -0.0539
  142DOPC  H15A16772   0.722   4.172  17.832 -1.6900 -0.2217 -2.3979
  142DOPC  H15B16773   0.628   4.299  17.905  0.2243  1.9527 -0.7842
  142DOPC  H15C16774   0.789   4.334  17.867  1.1126 -1.1605  0.9521
  142DOPC   C1116775   0.490   4.265  17.501 -0.1887 -0.0411 -0.3241
  142DOPC  H11A16776   0.387   4.225  17.491  0.4725 -1.6046 -1.2558
  142DOPC  H11B16777   0.493   4.375  17.488 -2.4779  0.2401  1.0748
  142DOPC     P16778   0.597   4.050  17.390 -0.2027  0.6522  0.1863
  142DOPC   O1316779   0.582   3.976  17.518  0.3904  0.5755  0.3148
  142DOPC   O1416780   0.723   4.028  17.309 -0.1774  0.1437 -0.1593
  142DOPC   O1216781   0.580   4.206  17.408  0.8106 -0.1230  0.5051
  142DOPC   O1116782   0.461   4.013  17.312  0.5832  0.5262 -0.1215
  142DOPC    C116783   0.450   3.936  17.203  0.8043  0.1622 -0.2431
  142DOPC    HA16784   0.359   3.873  17.213  0.9078 -0.0106 -0.3970
  142DOPC    HB16785   0.543   3.880  17.182  1.9009  1.0119  1.9821
  142DOPC    C216786   0.417   4.019  17.083 -0.5661 -0.9582 -0.2975
  142DOPC    HS16787   0.404   3.946  17.000  2.7919 -1.4360 -0.5168
  142DOPC   O2116788   0.525   4.112  17.046  0.0385 -0.1150 -0.4291
  142DOPC   C2116789   0.616   4.070  16.968 -0.0990  1.0637  0.2891
  142DOPC   O2216790   0.612   3.958  16.917  0.3893  0.3843  0.6818
  142DOPC   C2216791   0.726   4.176  16.941 -0.8467  0.0978 -0.3961
  142DOPC   H2R16792   0.793   4.186  17.029  1.7600  1.9991 -2.4411
  142DOPC   H2S16793   0.682   4.277  16.925 -1.5204  0.3799  2.5530
  142DOPC    C316794   0.274   4.087  17.099 -0.4609  0.0190  0.4785
  142DOPC    HX16795   0.285   4.153  17.188 -2.2642  1.7002 -0.4651
  142DOPC    HY16796   0.204   4.004  17.118  0.5081 -1.0153 -0.3624
  142DOPC   O3116797   0.246   4.147  16.971  0.3863 -0.3258 -0.1036
  142DOPC   C3116798   0.279   4.279  16.962 -0.0996 -0.3530 -0.4088
  142DOPC   O3216799   0.314   4.342  17.061  0.1917 -0.4611  0.0583
  142DOPC   C3216800   0.269   4.330  16.824  0.4024  0.0386  0.0002
  142DOPC   H2X16801   0.183   4.278  16.776 -0.9216  1.0061  1.2435
  142DOPC   H2Y16802   0.252   4.440  16.828 -2.1727 -0.2901 -0.1766
  142DOPC   C2316803   0.815   4.141  16.820  0.1197  0.0897 -0.3563
  142DOPC   H3R16804   0.831   4.031  16.815 -3.6817 -0.7393  1.8022
  142DOPC   H3S16805   0.915   4.188  16.818  2.1183 -3.7285 -0.3391
  142DOPC   C2416806   0.750   4.186  16.692  0.0990 -0.5943  0.0771
  142DOPC   H4R16807   0.737   4.296  16.690  1.4950 -0.3810  1.0778
  142DOPC   H4S16808   0.651   4.138  16.679  0.3537 -1.5046  1.3215
  142DOPC   C2516809   0.832   4.155  16.568  0.2557 -0.7495  0.2368
  142DOPC   H5R16810   0.863   4.049  16.570  0.8268 -0.5775  1.2820
  142DOPC   H5S16811   0.924   4.217  16.578 -0.7738  0.9053 -0.1896
  142DOPC   C2616812   0.761   4.178  16.433  0.7379  0.2003 -0.7892
  142DOPC   H6R16813   0.735   4.286  16.431 -0.2058  0.0145  0.4058
  142DOPC   H6S16814   0.660   4.134  16.422  0.9805 -0.3809 -0.7099
  142DOPC   C2716815   0.844   4.142  16.305 -0.5670  0.1579  0.1281
  142DOPC   H7R16816   0.856   4.032  16.304  2.4700  0.3994 -1.1740
  142DOPC   H7S16817   0.950   4.177  16.308 -1.0613  1.8135 -0.7119
  142DOPC   C2816818   0.782   4.198  16.174 -0.1641 -0.8826  0.2536
  142DOPC   H8R16819   0.751   4.304  16.187  4.0167  0.4692  0.8940
  142DOPC   H8S16820   0.694   4.131  16.167 -1.5787  0.8310  1.0479
  142DOPC   C2916821   0.884   4.167  16.066  0.4479 -0.4746 -0.6913
  142DOPC   H9R16822   0.988   4.183  16.099  0.3784  0.5059 -0.8965
  142DOPC  C21016823   0.856   4.140  15.941  0.2996 -0.1910  0.3568
  142DOPC  H10R16824   0.941   4.113  15.876  0.6649  3.1104 -0.7705
  142DOPC  C21116825   0.728   4.136  15.863 -0.1347 -0.4726  0.0637
  142DOPC  H11R16826   0.649   4.203  15.903  1.0568 -0.2171  2.1014
  142DOPC  H11S16827   0.691   4.032  15.855 -3.6086  0.6759 -0.3688
  142DOPC  C21216828   0.761   4.182  15.719 -0.1005 -0.1010  0.3221
  142DOPC  H12R16829   0.861   4.151  15.682  0.5194  0.6559  1.3288
  142DOPC  H12S16830   0.761   4.293  15.722  0.3059 -0.1201  1.3029
  142DOPC  C21316831   0.658   4.124  15.611  0.3647  0.5451  0.4427
  142DOPC  H13R16832   0.664   4.197  15.527  0.1912  0.6122  0.4872
  142DOPC  H13S16833   0.555   4.131  15.653  0.3096 -0.4575  0.4827
  142DOPC  C21416834   0.687   3.981  15.561 -0.6321 -0.2868  0.0544
  142DOPC  H14R16835   0.685   3.915  15.650  1.9077 -0.3057  0.1727
  142DOPC  H14S16836   0.785   3.979  15.509 -1.1934 -1.3393 -1.0123
  142DOPC  C21516837   0.583   3.943  15.459  0.6940  0.0408 -0.0866
  142DOPC  H15R16838   0.485   3.973  15.501  1.2236  0.7614  0.6693
  142DOPC  H15S16839   0.587   3.834  15.440 -2.0121 -0.1782  0.1955
  142DOPC  C21616840   0.602   4.014  15.328 -0.0545 -1.0588  0.0959
  142DOPC  H16R16841   0.707   4.000  15.294  0.4986  1.5550  0.4705
  142DOPC  H16S16842   0.595   4.122  15.353  0.8420 -0.4671 -2.0288
  142DOPC  C21716843   0.498   3.990  15.224 -0.1113 -0.1653 -0.0645
  142DOPC  H17R16844   0.490   4.078  15.156 -1.2244 -0.1172  0.1066
  142DOPC  H17S16845   0.399   3.977  15.273 -1.2989  3.2575 -1.2791
  142DOPC  C21816846   0.538   3.872  15.138  0.3129  0.3944  0.7512
  142DOPC  H18R16847   0.640   3.883  15.095  0.4801 -1.1915  0.6718
  142DOPC  H18S16848   0.464   3.858  15.056  0.5140 -2.4974  0.9811
  142DOPC  H18T16849   0.548   3.785  15.205  0.8880  0.3689  0.6423
  142DOPC   C3316850   0.391   4.283  16.740 -0.1134 -0.2537  0.1875
  142DOPC   H3X16851   0.386   4.172  16.746 -1.1738 -0.3719 -1.9652
  142DOPC   H3Y16852   0.482   4.314  16.797  1.7997 -3.3737 -0.8826
  142DOPC   C3416853   0.398   4.325  16.594  0.2398  0.1868 -0.1274
  142DOPC   H4X16854   0.311   4.308  16.528  1.5087 -1.5802 -1.4338
  142DOPC   H4Y16855   0.487   4.265  16.565  0.3784 -0.1495  0.9627
  142DOPC   C3516856   0.442   4.474  16.574 -0.5020 -0.8323  0.0612
  142DOPC   H5X16857   0.539   4.487  16.627 -0.4377  2.6806 -0.7057
  142DOPC   H5Y16858   0.365   4.546  16.608  0.3589  0.1779 -0.0791
  142DOPC   C3616859   0.468   4.495  16.423 -0.4145  0.0038 -0.1797
  142DOPC   H6X16860   0.553   4.432  16.391 -0.2475 -1.1060  2.1709
  142DOPC   H6Y16861   0.372   4.472  16.372 -0.0221  2.6502 -2.3219
  142DOPC   C3716862   0.505   4.646  16.399 -0.0435 -0.2379 -0.2397
  142DOPC   H7X16863   0.416   4.708  16.422  0.5023  0.5808 -0.2680
  142DOPC   H7Y16864   0.576   4.679  16.478  0.2948  0.8879 -0.9892
  142DOPC   C3816865   0.557   4.672  16.258  0.0242 -0.2270 -0.4880
  142DOPC   H8X16866   0.637   4.599  16.236  1.3906  1.2910 -0.7085
  142DOPC   H8Y16867   0.593   4.775  16.236  0.1042 -0.1518 -0.0269
  142DOPC   C3916868   0.438   4.655  16.162 -0.0373  0.2683 -0.6463
  142DOPC   H9X16869   0.348   4.715  16.185 -1.8528 -2.7580  0.8959
  142DOPC  C31016870   0.437   4.557  16.071  0.1052 -0.5801  0.3210
  142DOPC  H10X16871   0.361   4.560  15.991  0.2934  1.0901  0.1727
  142DOPC  C31116872   0.546   4.463  16.025 -0.7140 -0.1571  0.4571
  142DOPC  H11X16873   0.516   4.356  16.024  1.1614 -0.7331  1.0911
  142DOPC  H11Y16874   0.635   4.467  16.091  0.7205  0.6660 -1.4408
  142DOPC  C31216875   0.581   4.515  15.882 -0.8141 -0.6383 -0.5610
  142DOPC  H12X16876   0.670   4.456  15.853  0.3399 -1.0873  3.3310
  142DOPC  H12Y16877   0.605   4.623  15.885  2.2034 -1.2542  0.4609
  142DOPC  C31316878   0.477   4.496  15.772  0.1532  0.4303  0.5034
  142DOPC  H13X16879   0.433   4.394  15.769 -1.9393  1.2825  0.9387
  142DOPC  H13Y16880   0.396   4.568  15.796 -0.8882  0.0846 -1.7008
  142DOPC  C31416881   0.552   4.509  15.637  0.5654 -0.6290 -0.0659
  142DOPC  H14X16882   0.603   4.607  15.628  0.7140 -0.8473 -2.1174
  142DOPC  H14Y16883   0.627   4.427  15.637  0.8599 -0.4064 -1.6795
  142DOPC  C31516884   0.450   4.491  15.514 -0.2633  1.1790 -0.4083
  142DOPC  H15X16885   0.356   4.543  15.540 -0.7664 -0.3395  0.9919
  142DOPC  H15Y16886   0.426   4.382  15.516 -0.0295  1.1434  0.6373
  142DOPC  C31616887   0.497   4.528  15.370  0.1269  0.0683  0.1875
  142DOPC  H16X16888   0.569   4.612  15.381 -0.2750  0.4275  0.1074
  142DOPC  H16Y16889   0.549   4.439  15.330  0.5931 -0.2835  1.5200
  142DOPC  C31716890   0.390   4.555  15.269 -0.1699 -0.1349  0.6369
  142DOPC  H17X16891   0.324   4.637  15.307 -1.1664 -0.9144  0.6337
  142DOPC  H17Y16892   0.444   4.575  15.174  2.1685 -4.1592  0.9172
  142DOPC  C31816893   0.296   4.436  15.243  0.2705  0.1277 -0.3575
  142DOPC  H18X16894   0.253   4.440  15.140 -0.5298  1.7385 -0.0054
  142DOPC  H18Y16895   0.351   4.340  15.253 -1.4200 -0.7934  0.6095
  142DOPC  H18Z16896   0.212   4.426  15.315  0.8846  0.1284  0.3701
  143DOPC     N16897   5.137   6.047  18.243  0.2187 -0.4845  0.1987
  143DOPC   C1216898   5.218   5.923  18.220  0.1520 -0.2793 -0.3605
  143DOPC  H12A16899   5.244   5.881  18.316  0.0504  0.2298 -0.1061
  143DOPC  H12B16900   5.313   5.952  18.178  1.1779  0.2624  2.1617
  143DOPC   C1316901   5.176   6.113  18.371  0.3004 -0.2210  0.2199
  143DOPC  H13A16902   5.152   6.057  18.460  0.9930 -1.8888 -0.6048
  143DOPC  H13B16903   5.281   6.133  18.380  1.0822 -3.9860  1.3889
  143DOPC  H13C16904   5.144   6.214  18.395  2.3378 -0.1560  3.0826
  143DOPC   C1416905   4.993   6.011  18.233  0.2947  0.3818 -1.0412
  143DOPC  H14A16906   4.972   5.988  18.130  0.4204  2.1165 -1.4931
  143DOPC  H14B16907   4.965   5.923  18.288  2.1138  0.5909  0.3238
  143DOPC  H14C16908   4.934   6.099  18.253 -1.2536 -0.6248 -1.0629
  143DOPC   C1516909   5.166   6.147  18.132 -0.6824  0.2366  0.2148
  143DOPC  H15A16910   5.274   6.141  18.126 -0.8110 -0.7633 -1.8376
  143DOPC  H15B16911   5.131   6.246  18.156  2.8243  2.6573 -3.2962
  143DOPC  H15C16912   5.134   6.118  18.033  0.8658  1.7690 -0.8049
  143DOPC   C1116913   5.150   5.808  18.135 -0.3461 -0.3141 -0.1388
  143DOPC  H11A16914   5.124   5.846  18.034  0.1172 -0.0257 -0.1517
  143DOPC  H11B16915   5.240   5.745  18.122  0.9349  1.3429  0.3525
  143DOPC     P16916   4.997   5.603  18.133 -0.0604 -0.4467  0.1626
  143DOPC   O1316917   4.869   5.564  18.201  0.1608  0.5716 -0.0911
  143DOPC   O1416918   5.113   5.519  18.139  0.4863 -0.0672 -0.2696
  143DOPC   O1216919   5.040   5.743  18.200  0.0452 -0.7441  0.0483
  143DOPC   O1116920   4.972   5.650  17.984 -0.2744 -0.7926  0.0292
  143DOPC    C116921   4.858   5.725  17.951  0.2413 -0.4520 -0.1863
  143DOPC    HA16922   4.854   5.815  18.016  0.2734  1.2925 -2.4893
  143DOPC    HB16923   4.770   5.660  17.970  0.8313 -1.5640 -1.1506
  143DOPC    C216924   4.847   5.759  17.794 -0.9154  0.6714  0.0740
  143DOPC    HS16925   4.760   5.823  17.770 -0.8518  0.7283 -0.0069
  143DOPC   O2116926   4.834   5.629  17.726 -0.3633  0.2261 -0.1585
  143DOPC   C2116927   4.720   5.598  17.690 -0.4614 -0.9171  0.4511
  143DOPC   O2216928   4.617   5.656  17.731 -0.1533 -0.1286  0.4911
  143DOPC   C2216929   4.721   5.481  17.587 -0.3900  0.0397 -1.0515
  143DOPC   H2R16930   4.762   5.386  17.629 -0.4477  0.5841  0.2496
  143DOPC   H2S16931   4.786   5.506  17.500  1.6417  1.7514  0.8637
  143DOPC    C316932   4.970   5.834  17.736 -0.4670  0.6356 -0.2702
  143DOPC    HX16933   5.062   5.776  17.761 -0.8823  0.7371  1.6102
  143DOPC    HY16934   4.972   5.925  17.799 -1.0170  0.1236  0.5062
  143DOPC   O3116935   4.964   5.851  17.597  0.2083  0.0021 -0.2089
  143DOPC   C3116936   4.897   5.958  17.551 -0.2257 -0.0639  0.5920
  143DOPC   O3216937   4.840   6.037  17.617  0.4062  0.3261  0.1025
  143DOPC   C3216938   4.917   5.960  17.398  0.3798 -0.5568  0.2349
  143DOPC   H2X16939   5.027   5.960  17.383  0.4729 -0.1228  0.8495
  143DOPC   H2Y16940   4.890   5.868  17.342  0.7227 -1.0396  0.8502
  143DOPC   C2316941   4.590   5.450  17.518  0.4366  0.1274  0.3777
  143DOPC   H3R16942   4.544   5.540  17.472  0.3260 -0.0639  0.1113
  143DOPC   H3S16943   4.517   5.397  17.583  1.5783 -1.3255  0.5383
  143DOPC   C2416944   4.619   5.358  17.399 -0.3830 -0.7608 -0.5864
  143DOPC   H4R16945   4.648   5.262  17.447 -0.6160  0.4538  2.2053
  143DOPC   H4S16946   4.715   5.389  17.354  0.0583  0.0611  0.8304
  143DOPC   C2516947   4.506   5.336  17.291 -0.5238  0.2540  0.0235
  143DOPC   H5R16948   4.507   5.437  17.244  0.9192  0.0532 -0.4592
  143DOPC   H5S16949   4.411   5.318  17.344  0.4622 -1.8080  1.2121
  143DOPC   C2616950   4.539   5.233  17.181  0.1588 -0.3938 -1.0792
  143DOPC   H6R16951   4.525   5.131  17.224 -1.1822  0.2419  0.0763
  143DOPC   H6S16952   4.643   5.230  17.142  0.2326 -1.7281 -0.8451
  143DOPC   C2716953   4.435   5.253  17.065 -0.0330  0.3891  0.0568
  143DOPC   H7R16954   4.422   5.359  17.035 -0.2227 -0.2899 -2.4325
  143DOPC   H7S16955   4.335   5.210  17.087 -0.1310  0.5936  0.0149
  143DOPC   C2816956   4.475   5.173  16.937 -0.0706 -0.1377  0.3654
  143DOPC   H8R16957   4.392   5.183  16.865  0.1191 -0.5273  0.0915
  143DOPC   H8S16958   4.484   5.065  16.961  0.4951  0.1905  1.7801
  143DOPC   C2916959   4.602   5.226  16.877  0.2456 -0.4359  0.0602
  143DOPC   H9R16960   4.690   5.201  16.939  1.0247  1.4464 -0.2129
  143DOPC  C21016961   4.616   5.292  16.759  0.0208  1.0368 -0.5659
  143DOPC  H10R16962   4.714   5.319  16.716  0.2721 -0.7597 -1.2025
  143DOPC  C21116963   4.507   5.338  16.666 -0.3613 -0.5373  0.4333
  143DOPC  H11R16964   4.538   5.441  16.637  0.6380 -1.3629 -1.6569
  143DOPC  H11S16965   4.406   5.339  16.714 -0.1302 -1.2762  0.9451
  143DOPC  C21216966   4.496   5.248  16.541 -0.0877 -0.4553  0.1377
  143DOPC  H12R16967   4.489   5.141  16.572 -2.2572 -1.1865 -2.4625
  143DOPC  H12S16968   4.589   5.249  16.480 -0.9305 -1.8037 -1.2458
  143DOPC  C21316969   4.369   5.274  16.454 -0.0518  0.3641  0.3476
  143DOPC  H13R16970   4.359   5.376  16.411 -2.0621  0.6621  1.4306
  143DOPC  H13S16971   4.279   5.255  16.516 -1.6294  0.4802 -1.7959
  143DOPC  C21416972   4.348   5.180  16.330  0.6205  0.7565  0.5607
  143DOPC  H14R16973   4.247   5.179  16.284  1.6090  0.2964 -1.7789
  143DOPC  H14S16974   4.373   5.077  16.364  2.0053  1.0235  0.4192
  143DOPC  C21516975   4.453   5.221  16.220 -0.0478  0.1640 -0.1564
  143DOPC  H15R16976   4.548   5.164  16.235  0.5906  1.4951  1.1053
  143DOPC  H15S16977   4.478   5.329  16.225  1.4875 -0.1663  0.0708
  143DOPC  C21616978   4.403   5.190  16.081  0.6177 -0.5133 -0.4062
  143DOPC  H16R16979   4.303   5.237  16.072  1.2675  1.3436  1.2312
  143DOPC  H16S16980   4.392   5.083  16.055  1.9302 -0.4990 -1.1508
  143DOPC  C21716981   4.478   5.260  15.973 -0.6807  1.3522 -0.2103
  143DOPC  H17R16982   4.465   5.370  15.978  0.1232  1.3869  2.3452
  143DOPC  H17S16983   4.444   5.226  15.872  0.7601  1.7135 -0.8332
  143DOPC  C21816984   4.633   5.223  15.973 -0.2513  0.0584 -0.4094
  143DOPC  H18R16985   4.647   5.114  15.987  1.7792  0.3557  0.3379
  143DOPC  H18S16986   4.684   5.274  16.058 -0.6816  0.8112 -0.5948
  143DOPC  H18T16987   4.685   5.246  15.877 -1.8058  0.6725 -1.1350
  143DOPC   C3316988   4.856   6.087  17.339 -0.2402 -0.7045 -0.3105
  143DOPC   H3X16989   4.868   6.172  17.409  0.7753 -1.7048  0.7601
  143DOPC   H3Y16990   4.747   6.061  17.337  0.4009 -3.7527 -1.1483
  143DOPC   C3416991   4.896   6.124  17.193 -0.7942 -0.3679 -0.2200
  143DOPC   H4X16992   4.908   6.029  17.138 -2.9100 -1.1759  0.6146
  143DOPC   H4Y16993   4.997   6.171  17.204 -0.0277 -2.1072  0.4815
  143DOPC   C3516994   4.803   6.220  17.118  0.1167 -0.0628 -0.0702
  143DOPC   H5X16995   4.796   6.313  17.179 -1.8686 -1.7799  2.5585
  143DOPC   H5Y16996   4.702   6.176  17.129  0.5741 -1.1808 -0.2097
  143DOPC   C3616997   4.846   6.264  16.971  0.0841  0.0603 -0.3294
  143DOPC   H6X16998   4.778   6.338  16.924  1.6626  0.2437 -2.4644
  143DOPC   H6Y16999   4.946   6.312  16.977  0.4082 -0.7735  1.8748
  143DOPC   C3717000   4.844   6.143  16.876 -0.0753  0.6539  0.5014
  143DOPC   H7X17001   4.918   6.065  16.902  0.2182 -1.0148 -4.3940
  143DOPC   H7Y17002   4.749   6.093  16.907  0.8349 -1.5339 -0.0564
  143DOPC   C3817003   4.860   6.185  16.730 -0.4342 -0.0891  0.1162
  143DOPC   H8X17004   4.796   6.274  16.717 -2.0768 -1.3104 -0.6379
  143DOPC   H8Y17005   4.823   6.105  16.661  1.3232 -1.6568  0.8794
  143DOPC   C3917006   4.999   6.224  16.698  0.4747  0.3298  0.5619
  143DOPC   H9X17007   5.060   6.229  16.790  0.4313 -1.4610  0.7258
  143DOPC  C31017008   5.057   6.207  16.575  0.3435  0.2088  0.4245
  143DOPC  H10X17009   5.166   6.214  16.560  0.1474  0.4490 -1.0192
  143DOPC  C31117010   4.985   6.155  16.449  0.6447  0.6871 -0.4567
  143DOPC  H11X17011   5.016   6.217  16.362  2.5926  0.6976  0.2018
  143DOPC  H11Y17012   4.878   6.179  16.465  0.0104 -0.7552 -2.1809
  143DOPC  C31217013   4.997   6.002  16.425 -0.9106  0.5580 -0.7207
  143DOPC  H12X17014   4.951   5.949  16.511  0.8888 -2.9617 -1.7250
  143DOPC  H12Y17015   5.106   5.980  16.436 -0.6296  2.2730  0.3842
  143DOPC  C31317016   4.946   5.953  16.292  0.3666  0.0006  0.2257
  143DOPC  H13X17017   4.934   5.843  16.296  0.9541 -0.0835  4.1073
  143DOPC  H13Y17018   4.841   5.989  16.284  0.2160 -0.6061 -0.5302
  143DOPC  C31417019   5.028   6.007  16.173 -0.0765  0.4239  0.8840
  143DOPC  H14X17020   5.017   6.116  16.155  0.0069  0.2121 -0.5044
  143DOPC  H14Y17021   5.139   5.994  16.180  0.1244  1.9320  0.7802
  143DOPC  C31517022   4.994   5.929  16.044  0.1266 -0.0200  0.3391
  143DOPC  H15X17023   4.886   5.936  16.021 -0.1729 -1.7953  1.0750
  143DOPC  H15Y17024   5.014   5.821  16.063 -0.2971  0.0043  0.9340
  143DOPC  C31617025   5.088   5.974  15.933 -0.4815  0.4552  0.5209
  143DOPC  H16X17026   5.067   6.078  15.900 -1.5184  0.8228  2.2723
  143DOPC  H16Y17027   5.193   5.964  15.968 -0.9667  1.5618  2.4218
  143DOPC  C31717028   5.078   5.884  15.811  0.0365 -0.3688 -0.4727
  143DOPC  H17X17029   5.126   5.787  15.838  0.4723  0.4754  2.0295
  143DOPC  H17Y17030   4.973   5.869  15.778  0.0915  0.3529 -1.0003
  143DOPC  C31817031   5.160   5.940  15.695 -0.0679 -0.6770  0.4167
  143DOPC  H18X17032   5.265   5.939  15.732  0.2214  0.2364 -0.3213
  143DOPC  H18Y17033   5.149   5.888  15.598  1.8279  0.5852 -0.5413
  143DOPC  H18Z17034   5.131   6.046  15.677  0.3326 -0.3620  1.5001
  144DOPC     N17035   5.061   3.504  17.528 -0.4805  0.2553 -0.1405
  144DOPC   C1217036   5.209   3.534  17.518 -0.5097  0.2511 -0.5783
  144DOPC  H12A17037   5.259   3.557  17.611  1.2706  0.6756 -1.5889
  144DOPC  H12B17038   5.220   3.627  17.465  0.2789  1.1027  0.9998
  144DOPC   C1317039   4.990   3.607  17.597  0.1282 -0.7016 -0.0007
  144DOPC  H13A17040   4.883   3.593  17.595  0.2273 -2.1547  1.7920
  144DOPC  H13B17041   5.014   3.612  17.703 -2.4809 -3.0834  0.8558
  144DOPC  H13C17042   5.003   3.705  17.555 -3.3556 -0.0985  0.0758
  144DOPC   C1417043   5.023   3.374  17.597 -0.0847 -0.6612 -0.3072
  144DOPC  H14A17044   4.916   3.359  17.602 -0.0900 -0.3516  0.7756
  144DOPC  H14B17045   5.075   3.293  17.549  1.5037  1.2609 -2.0356
  144DOPC  H14C17046   5.053   3.366  17.700  2.4098  2.4866 -0.6234
  144DOPC   C1517047   5.025   3.509  17.377 -0.0078  0.1142  0.2551
  144DOPC  H15A17048   5.074   3.426  17.328 -1.2768  0.8337 -2.4240
  144DOPC  H15B17049   5.036   3.604  17.328  2.8685 -0.0359  0.4380
  144DOPC  H15C17050   4.921   3.481  17.364 -0.1358  0.4140  0.6115
  144DOPC   C1117051   5.296   3.425  17.447  0.0102  0.4789 -0.7631
  144DOPC  H11A17052   5.276   3.406  17.339  0.8685 -2.3114 -0.5031
  144DOPC  H11B17053   5.398   3.469  17.452 -0.6339  1.8961  1.9171
  144DOPC     P17054   5.341   3.273  17.651 -0.0005  0.3201 -0.2337
  144DOPC   O1317055   5.228   3.193  17.708  0.0977  0.1238 -0.8325
  144DOPC   O1417056   5.373   3.400  17.716  0.4273  0.1068  0.4251
  144DOPC   O1217057   5.302   3.299  17.504 -0.0110  0.0581  0.6807
  144DOPC   O1117058   5.468   3.183  17.645  0.2199 -0.4571 -0.0509
  144DOPC    C117059   5.476   3.053  17.586  0.2160  0.9543  0.3334
  144DOPC    HA17060   5.384   3.016  17.535  0.3671 -0.2885  0.9189
  144DOPC    HB17061   5.504   2.988  17.672  0.4475  1.8907  0.9780
  144DOPC    C217062   5.586   3.036  17.469 -0.3604 -0.5261  0.2196
  144DOPC    HS17063   5.675   3.098  17.491 -1.2260  0.7768  0.1570
  144DOPC   O2117064   5.538   3.080  17.343 -0.3533  0.7312 -0.2009
  144DOPC   C2117065   5.541   3.203  17.307 -0.1022  0.3466 -0.0131
  144DOPC   O2217066   5.590   3.295  17.370  0.3723  0.0699  0.1596
  144DOPC   C2217067   5.468   3.206  17.176  0.3279 -0.4681 -0.1682
  144DOPC   H2R17068   5.424   3.308  17.169  3.4392  1.0254  0.3400
  144DOPC   H2S17069   5.393   3.124  17.173  1.0963 -1.1586 -1.3986
  144DOPC    C317070   5.633   2.884  17.461  0.2967  0.0558 -0.5079
  144DOPC    HX17071   5.541   2.826  17.485 -0.2151  1.3549  0.7884
  144DOPC    HY17072   5.710   2.868  17.540 -0.3561 -1.2423 -0.0996
  144DOPC   O3117073   5.685   2.852  17.333 -0.4192 -0.3988 -0.1889
  144DOPC   C3117074   5.733   2.730  17.323  0.9620 -0.1430  1.0410
  144DOPC   O3217075   5.713   2.646  17.404  0.6006 -0.0889  0.2480
  144DOPC   C3217076   5.812   2.701  17.190 -0.7483 -0.0825  0.1442
  144DOPC   H2X17077   5.771   2.780  17.124 -1.5088 -0.0320  0.6755
  144DOPC   H2Y17078   5.921   2.714  17.210 -0.6282 -1.8682  0.8423
  144DOPC   C2317079   5.560   3.190  17.052 -0.3395 -0.3182  1.0536
  144DOPC   H3R17080   5.656   3.244  17.059  2.1243 -3.9641 -1.0636
  144DOPC   H3S17081   5.520   3.236  16.959  0.2207 -1.6806  0.0959
  144DOPC   C2417082   5.600   3.045  17.025  0.0876  0.4968 -0.0430
  144DOPC   H4R17083   5.514   2.975  17.029  1.8402 -1.7940 -0.0804
  144DOPC   H4S17084   5.667   3.022  17.110  0.0796 -0.7643 -0.3632
  144DOPC   C2517085   5.676   3.022  16.892  0.4731 -0.6253 -0.1648
  144DOPC   H5R17086   5.712   2.916  16.891 -0.0297 -0.8113  0.6902
  144DOPC   H5S17087   5.773   3.075  16.887  1.1253 -1.7402  0.2179
  144DOPC   C2617088   5.593   3.033  16.767 -0.0390 -0.4421  0.8869
  144DOPC   H6R17089   5.553   3.137  16.768 -0.1815 -0.3487 -2.3193
  144DOPC   H6S17090   5.511   2.958  16.763 -0.6889  0.2779 -2.4773
  144DOPC   C2717091   5.687   3.018  16.636  0.1357  0.2978 -0.6067
  144DOPC   H7R17092   5.729   2.916  16.626  3.7688  1.6350 -0.4852
  144DOPC   H7S17093   5.777   3.082  16.644 -0.6429  1.3776 -0.2099
  144DOPC   C2817094   5.613   3.054  16.502 -0.2458 -0.1095 -0.2311
  144DOPC   H8R17095   5.692   3.077  16.427  1.6417  0.3190  1.7769
  144DOPC   H8S17096   5.565   3.151  16.524 -1.8532 -1.0063  0.4389
  144DOPC   C2917097   5.517   2.948  16.453 -0.5956 -0.2078  0.2166
  144DOPC   H9R17098   5.428   2.928  16.515  0.8216 -1.6681  1.8963
  144DOPC  C21017099   5.540   2.858  16.352 -0.1885 -0.1843 -0.4891
  144DOPC  H10R17100   5.459   2.792  16.319 -0.0766 -0.5819  0.0220
  144DOPC  C21117101   5.668   2.828  16.269  0.5455 -0.1360  0.1503
  144DOPC  H11R17102   5.674   2.718  16.257 -0.1014 -0.2695  0.9295
  144DOPC  H11S17103   5.751   2.864  16.334  0.0495 -0.7433  1.1518
  144DOPC  C21217104   5.659   2.895  16.137  0.0990  0.4822  0.1762
  144DOPC  H12R17105   5.682   3.003  16.146 -2.3899  1.1474 -0.6746
  144DOPC  H12S17106   5.559   2.879  16.091  0.2752 -2.3873  0.6115
  144DOPC  C21317107   5.762   2.850  16.041  0.4957  0.1187  1.2062
  144DOPC  H13R17108   5.773   2.740  16.054 -0.5283 -0.2083 -0.4728
  144DOPC  H13S17109   5.863   2.891  16.066  0.0089  1.5023  0.9564
  144DOPC  C21417110   5.724   2.888  15.897  0.5494  0.3889 -0.0760
  144DOPC  H14R17111   5.739   2.998  15.892 -0.3723  0.5222 -0.0381
  144DOPC  H14S17112   5.623   2.851  15.869  0.8398 -1.2382  0.9163
  144DOPC  C21517113   5.825   2.826  15.795 -0.5244 -0.2639  0.5212
  144DOPC  H15R17114   5.821   2.717  15.816 -1.6898 -0.7822 -2.0118
  144DOPC  H15S17115   5.924   2.870  15.820  0.2198  0.4754 -3.1675
  144DOPC  C21617116   5.795   2.846  15.642  0.0200 -0.1648 -0.9684
  144DOPC  H16R17117   5.813   2.954  15.624 -0.6564 -0.0528 -1.0222
  144DOPC  H16S17118   5.692   2.811  15.619 -1.0825  2.2903 -0.0957
  144DOPC  C21717119   5.875   2.767  15.538 -0.0852 -0.2478  0.2040
  144DOPC  H17R17120   5.977   2.804  15.562  0.9356 -2.7311 -0.0350
  144DOPC  H17S17121   5.844   2.805  15.438 -1.9394  0.1675  0.8811
  144DOPC  C21817122   5.840   2.617  15.534 -0.5213 -0.1141  0.7441
  144DOPC  H18R17123   5.883   2.582  15.438 -1.9946 -2.2919  0.7946
  144DOPC  H18S17124   5.735   2.586  15.549 -0.5231 -0.7439 -0.4611
  144DOPC  H18T17125   5.893   2.568  15.619 -1.7313 -3.7700 -0.4201
  144DOPC   C3317126   5.778   2.572  17.111  0.5776 -0.2415 -0.4804
  144DOPC   H3X17127   5.667   2.563  17.110  0.5191 -0.1626 -3.1261
  144DOPC   H3Y17128   5.817   2.488  17.172  0.0407  0.8748  1.4934
  144DOPC   C3417129   5.833   2.581  16.963  0.1922  0.3441  0.1781
  144DOPC   H4X17130   5.944   2.584  16.967  0.1895  1.5481 -0.3847
  144DOPC   H4Y17131   5.805   2.677  16.915  0.2119 -0.4700 -1.5185
  144DOPC   C3517132   5.785   2.468  16.867  0.6700 -0.4046 -0.6467
  144DOPC   H5X17133   5.690   2.511  16.829  1.0046  1.8570  0.8609
  144DOPC   H5Y17134   5.769   2.382  16.935  1.9146  0.4369  0.7915
  144DOPC   C3617135   5.864   2.435  16.743 -0.6390  0.6023  0.3266
  144DOPC   H6X17136   5.970   2.420  16.772 -0.5512  1.2674  0.3628
  144DOPC   H6Y17137   5.836   2.350  16.677 -3.4079  1.9114 -0.3262
  144DOPC   C3717138   5.889   2.558  16.655  1.0066 -0.6784  0.5403
  144DOPC   H7X17139   5.786   2.593  16.629  1.4297 -0.1401 -0.4721
  144DOPC   H7Y17140   5.935   2.644  16.707  1.8114 -0.1339 -0.9909
  144DOPC   C3817141   5.967   2.510  16.536  0.4474 -0.1532  0.6337
  144DOPC   H8X17142   5.925   2.416  16.493  0.2217  0.2559 -0.0484
  144DOPC   H8Y17143   6.071   2.492  16.572  0.9257  0.6110 -0.3269
  144DOPC   C3917144   5.982   2.618  16.431  0.1160  0.4797 -0.5293
  144DOPC   H9X17145   6.048   2.700  16.463  2.8896 -1.0834 -1.8990
  144DOPC  C31017146   5.937   2.621  16.303 -0.4964 -0.2421 -0.0741
  144DOPC  H10X17147   5.946   2.713  16.244 -1.4584 -1.9094 -3.0346
  144DOPC  C31117148   5.864   2.513  16.227 -0.2844 -0.4671  0.2535
  144DOPC  H11X17149   5.793   2.555  16.153  0.6622  0.4882 -0.1471
  144DOPC  H11Y17150   5.811   2.444  16.295  0.6248 -2.9352 -1.4000
  144DOPC  C31217151   5.963   2.418  16.158  0.1755 -0.3154  0.4320
  144DOPC  H12X17152   6.030   2.365  16.228  0.2715 -0.2916  0.3577
  144DOPC  H12Y17153   6.023   2.486  16.094  1.1241  0.4067  2.0356
  144DOPC  C31317154   5.899   2.312  16.069 -0.0354  0.5058  0.4613
  144DOPC  H13X17155   5.839   2.236  16.123 -0.1876  0.6360  0.4772
  144DOPC  H13Y17156   5.834   2.368  15.999 -0.2838 -1.5396 -1.0289
  144DOPC  C31417157   6.001   2.238  15.984  0.3238 -0.0370  0.1228
  144DOPC  H14X17158   6.095   2.298  15.982 -0.1126  0.6385 -1.6121
  144DOPC  H14Y17159   6.028   2.142  16.032  0.2531  1.4120  3.3741
  144DOPC  C31517160   5.944   2.219  15.846 -0.1680  0.1906  0.1375
  144DOPC  H15X17161   6.025   2.180  15.781 -0.0638 -1.1790  1.0302
  144DOPC  H15Y17162   5.913   2.316  15.802  0.4291  0.4291  0.2404
  144DOPC  C31617163   5.820   2.125  15.847 -0.2579  0.5612 -0.2043
  144DOPC  H16X17164   5.852   2.024  15.880  2.5032  1.1832 -0.7320
  144DOPC  H16Y17165   5.740   2.149  15.921 -2.3952 -1.0874 -1.8669
  144DOPC  C31717166   5.756   2.107  15.704 -0.1674  0.3124  0.0910
  144DOPC  H17X17167   5.821   2.045  15.640 -0.9198 -2.7140  2.0471
  144DOPC  H17Y17168   5.669   2.039  15.721  1.1660 -1.4661  0.0841
  144DOPC  C31817169   5.712   2.245  15.649 -0.1892  0.7481 -0.1387
  144DOPC  H18X17170   5.673   2.317  15.725  2.1622  0.1483  1.7602
  144DOPC  H18Y17171   5.787   2.301  15.590 -0.2277 -1.8115 -2.8762
  144DOPC  H18Z17172   5.631   2.218  15.578  0.4872  1.6885 -1.3017
  145DOPC     N17173   5.892   5.383  18.119  0.4265  0.4005 -0.0834
  145DOPC   C1217174   5.878   5.325  17.990  1.1577  0.4019  0.1717
  145DOPC  H12A17175   5.771   5.327  17.971  1.1415  2.4718  0.3203
  145DOPC  H12B17176   5.909   5.221  17.988  0.3903  0.1616  0.1516
  145DOPC   C1317177   6.037   5.390  18.159  0.2809 -0.3482 -0.1647
  145DOPC  H13A17178   6.093   5.439  18.080  1.5115 -0.0633  0.8557
  145DOPC  H13B17179   6.052   5.459  18.241  0.0673  1.5295 -1.6375
  145DOPC  H13C17180   6.077   5.291  18.172 -0.8388 -0.5814  2.0495
  145DOPC   C1417181   5.816   5.307  18.227  0.4811  0.5316 -0.3169
  145DOPC  H14A17182   5.712   5.308  18.196 -0.3149  1.4076  2.1404
  145DOPC  H14B17183   5.843   5.203  18.236 -0.3075  0.3918  0.6343
  145DOPC  H14C17184   5.835   5.357  18.321  1.1116  0.4364 -0.3909
  145DOPC   C1517185   5.840   5.522  18.109  0.1317 -0.5893 -0.0025
  145DOPC  H15A17186   5.842   5.579  18.201 -0.2409 -2.6002  1.3104
  145DOPC  H15B17187   5.741   5.534  18.066  0.4442  1.3380 -0.2861
  145DOPC  H15C17188   5.908   5.568  18.039 -1.7383  3.2961  0.4269
  145DOPC   C1117189   5.941   5.394  17.869 -0.5061 -0.0166 -0.7831
  145DOPC  H11A17190   5.924   5.340  17.773  1.6419 -0.3036 -1.0636
  145DOPC  H11B17191   5.875   5.482  17.860 -0.4651 -0.0134 -1.0638
  145DOPC     P17192   6.187   5.325  17.817  0.2665  0.1247 -0.1340
  145DOPC   O1317193   6.129   5.189  17.834 -0.0546  0.1998  0.3408
  145DOPC   O1417194   6.312   5.339  17.888  0.0382 -0.7666  0.4099
  145DOPC   O1217195   6.078   5.431  17.880 -0.4880  0.0729 -0.5294
  145DOPC   O1117196   6.203   5.367  17.672 -0.4553  0.5700  0.3133
  145DOPC    C117197   6.126   5.456  17.597  0.1138 -0.2354 -0.1033
  145DOPC    HA17198   6.188   5.541  17.560 -0.7274 -0.0267 -1.1187
  145DOPC    HB17199   6.043   5.509  17.649  0.0829  0.1606 -0.5426
  145DOPC    C217200   6.068   5.386  17.468 -0.1640 -0.0485 -0.5546
  145DOPC    HS17201   6.041   5.289  17.515 -2.2104  0.8830  0.3245
  145DOPC   O2117202   6.172   5.376  17.368  0.0625 -0.3212 -0.8162
  145DOPC   C2117203   6.180   5.264  17.300 -0.0199 -0.0816  0.3138
  145DOPC   O2217204   6.105   5.170  17.315  0.3087  0.7087 -0.1992
  145DOPC   C2217205   6.307   5.270  17.216 -0.6275  0.1108  0.2034
  145DOPC   H2R17206   6.333   5.181  17.155  1.0149  0.2961  0.5930
  145DOPC   H2S17207   6.391   5.290  17.286  0.4776  3.9796 -1.9776
  145DOPC    C317208   5.948   5.456  17.408 -0.1000  0.1375  0.1274
  145DOPC    HX17209   5.978   5.562  17.391 -1.2969  0.3755 -0.6324
  145DOPC    HY17210   5.866   5.463  17.483 -0.5909 -1.4700 -0.2154
  145DOPC   O3117211   5.901   5.412  17.283 -0.0294  0.2135 -0.3373
  145DOPC   C3117212   5.808   5.317  17.277 -0.8332 -0.0551  0.8365
  145DOPC   O3217213   5.770   5.257  17.375 -0.6639  0.5660 -0.6276
  145DOPC   C3217214   5.772   5.288  17.132 -0.2223 -0.5671 -0.4648
  145DOPC   H2X17215   5.726   5.383  17.099 -2.7979 -1.0940  1.2699
  145DOPC   H2Y17216   5.862   5.258  17.074 -0.3365 -0.2378 -0.8142
  145DOPC   C2317217   6.311   5.391  17.113  0.1081 -0.3236  0.0262
  145DOPC   H3R17218   6.420   5.399  17.090 -0.0569  0.8161 -0.4413
  145DOPC   H3S17219   6.273   5.480  17.167 -0.2678 -0.8571  0.6466
  145DOPC   C2417220   6.231   5.359  16.988  0.0253  0.6953 -0.4287
  145DOPC   H4R17221   6.122   5.381  16.998 -0.0979  0.5947 -1.5037
  145DOPC   H4S17222   6.218   5.249  16.975 -1.5743  0.3866  2.6990
  145DOPC   C2517223   6.263   5.436  16.864  0.0847  0.3876  0.2095
  145DOPC   H5R17224   6.371   5.420  16.842  0.5951  3.2622  0.2284
  145DOPC   H5S17225   6.241   5.544  16.880  0.7679  0.4358  0.9048
  145DOPC   C2617226   6.180   5.378  16.743  0.3051  0.2096 -0.7211
  145DOPC   H6R17227   6.076   5.382  16.781  0.8602 -0.0039  0.9023
  145DOPC   H6S17228   6.201   5.270  16.724  4.2076  0.6690  0.1430
  145DOPC   C2717229   6.196   5.451  16.608 -0.0033 -0.5655 -0.2216
  145DOPC   H7R17230   6.302   5.430  16.582  0.2976 -1.8039  1.7742
  145DOPC   H7S17231   6.177   5.560  16.621 -0.8351 -0.7508  0.1684
  145DOPC   C2817232   6.108   5.388  16.500  0.2127 -0.0327 -0.1116
  145DOPC   H8R17233   6.011   5.354  16.542 -0.1952 -0.3359 -1.2450
  145DOPC   H8S17234   6.167   5.299  16.468 -0.1276 -0.6629  0.9711
  145DOPC   C2917235   6.097   5.486  16.379  0.1836  0.2216 -0.4458
  145DOPC   H9R17236   6.027   5.570  16.391 -0.5495 -0.3800 -0.4108
  145DOPC  C21017237   6.161   5.476  16.264  0.4652  0.3234  0.1585
  145DOPC  H10R17238   6.148   5.565  16.200  0.2655  1.4753  1.7317
  145DOPC  C21117239   6.267   5.375  16.227 -0.0981  0.5174 -0.5353
  145DOPC  H11R17240   6.312   5.331  16.318  1.2827  0.9643 -0.9775
  145DOPC  H11S17241   6.349   5.425  16.172  0.0081  1.8739  0.8068
  145DOPC  C21217242   6.207   5.258  16.149 -0.9519 -0.3244 -0.2922
  145DOPC  H12R17243   6.124   5.221  16.213 -0.9198  3.1447  1.9506
  145DOPC  H12S17244   6.274   5.169  16.139  1.6506  1.4450  0.4715
  145DOPC  C21317245   6.147   5.294  16.007 -0.2646 -0.5111 -0.4975
  145DOPC  H13R17246   6.092   5.390  16.015  1.4368  0.4724 -0.1893
  145DOPC  H13S17247   6.077   5.214  15.974  0.0532 -1.2057  0.4794
  145DOPC  C21417248   6.258   5.307  15.900  0.1549 -0.2607  0.0529
  145DOPC  H14R17249   6.324   5.218  15.903 -0.0048 -0.3619  0.7252
  145DOPC  H14S17250   6.319   5.395  15.930 -1.3948  0.9301 -0.1480
  145DOPC  C21517251   6.200   5.310  15.760 -0.2059  0.0764  0.0635
  145DOPC  H15R17252   6.138   5.400  15.741 -1.4203 -0.9815 -1.2125
  145DOPC  H15S17253   6.134   5.222  15.750 -0.7207  0.1812  2.0311
  145DOPC  C21617254   6.308   5.324  15.650 -0.0206  0.2701  0.0864
  145DOPC  H16R17255   6.373   5.235  15.664 -3.9200 -2.9788 -0.6095
  145DOPC  H16S17256   6.377   5.411  15.663  2.2680 -1.1317 -1.9068
  145DOPC  C21717257   6.262   5.331  15.507  0.1777 -0.0618 -0.1314
  145DOPC  H17R17258   6.355   5.332  15.445  0.6323 -1.3270  0.4977
  145DOPC  H17S17259   6.206   5.421  15.473  0.5736 -0.8487 -3.1824
  145DOPC  C21817260   6.181   5.217  15.452 -0.6129 -0.0361 -0.0314
  145DOPC  H18R17261   6.084   5.195  15.502 -0.8109 -0.7834 -0.7163
  145DOPC  H18S17262   6.235   5.120  15.462 -0.6738 -0.0537  0.1448
  145DOPC  H18T17263   6.166   5.239  15.345  0.4546  1.7633  0.1499
  145DOPC   C3317264   5.659   5.185  17.112 -0.7519  0.3807  0.3103
  145DOPC   H3X17265   5.563   5.221  17.156 -2.1392  0.1462 -2.3644
  145DOPC   H3Y17266   5.700   5.096  17.164 -0.0899 -0.1471 -1.0742
  145DOPC   C3417267   5.628   5.161  16.962 -0.1538 -0.3079  0.0297
  145DOPC   H4X17268   5.608   5.258  16.912  1.2139  1.2753  2.4124
  145DOPC   H4Y17269   5.530   5.109  16.960 -0.4930  0.2801  0.8326
  145DOPC   C3517270   5.724   5.073  16.876 -0.5024 -0.2205 -0.8754
  145DOPC   H5X17271   5.761   4.995  16.945 -1.3342  0.0431 -0.1188
  145DOPC   H5Y17272   5.815   5.134  16.856 -0.7643  0.7465  0.7229
  145DOPC   C3617273   5.659   5.028  16.748  0.5028  0.0777  0.3107
  145DOPC   H6X17274   5.722   4.955  16.692  0.9099 -1.0360  2.1174
  145DOPC   H6Y17275   5.571   4.967  16.779  0.3870  0.2642  0.3428
  145DOPC   C3717276   5.627   5.141  16.649 -0.6793 -0.1035  0.5579
  145DOPC   H7X17277   5.618   5.241  16.697 -0.7504  0.5328 -0.7520
  145DOPC   H7Y17278   5.714   5.143  16.580 -1.2813 -1.4600 -0.2814
  145DOPC   C3817279   5.493   5.121  16.576 -0.0571  0.4725 -0.0118
  145DOPC   H8X17280   5.475   5.209  16.511  1.6387  0.4539 -0.5398
  145DOPC   H8Y17281   5.402   5.123  16.640 -1.1141 -0.7839 -1.3899
  145DOPC   C3917282   5.502   4.988  16.499  0.5444 -0.4879 -0.0243
  145DOPC   H9X17283   5.546   4.903  16.554  2.0194 -0.1171 -0.5850
  145DOPC  C31017284   5.474   4.965  16.372  0.4229  0.3020  1.1981
  145DOPC  H10X17285   5.487   4.862  16.337 -0.9415  0.5939 -0.2629
  145DOPC  C31117286   5.423   5.065  16.266  0.5442  0.2890  0.6849
  145DOPC  H11X17287   5.376   5.146  16.325  0.8200  0.2801  0.9195
  145DOPC  H11Y17288   5.348   5.013  16.203  0.0787 -1.6256  2.6915
  145DOPC  C31217289   5.535   5.116  16.174 -0.1156 -0.7444 -0.5530
  145DOPC  H12X17290   5.627   5.111  16.235 -2.2212 -0.0366  2.9716
  145DOPC  H12Y17291   5.516   5.218  16.133 -3.0929 -0.1009  2.0319
  145DOPC  C31317292   5.559   5.023  16.047  1.2780 -0.4923 -0.1258
  145DOPC  H13X17293   5.653   5.056  15.998  1.1908 -0.4153 -0.2401
  145DOPC  H13Y17294   5.580   4.917  16.073  0.3497 -0.6522  0.0249
  145DOPC  C31417295   5.438   5.026  15.954 -0.4989 -0.0194  1.0409
  145DOPC  H14X17296   5.353   4.963  15.988  0.4874 -1.4641  0.8765
  145DOPC  H14Y17297   5.401   5.131  15.961 -0.7983 -0.0106 -0.4001
  145DOPC  C31517298   5.465   5.009  15.805 -0.9715 -0.8486  0.2609
  145DOPC  H15X17299   5.487   4.903  15.780 -0.0521 -0.6919  0.3736
  145DOPC  H15Y17300   5.563   5.056  15.782 -1.6905  0.1831 -0.7758
  145DOPC  C31617301   5.360   5.069  15.711  0.4290 -0.3913 -0.4890
  145DOPC  H16X17302   5.268   5.035  15.761  0.7268  0.7992  0.9491
  145DOPC  H16Y17303   5.370   5.180  15.709 -2.1831 -0.1063 -0.5368
  145DOPC  C31717304   5.357   5.017  15.571 -0.2386 -0.5034  0.1206
  145DOPC  H17X17305   5.459   5.012  15.527 -0.3543 -1.2640 -0.0878
  145DOPC  H17Y17306   5.336   4.908  15.586 -2.0451  0.0438  2.1141
  145DOPC  C31817307   5.239   5.081  15.498  0.2782 -0.2476  0.0561
  145DOPC  H18X17308   5.204   5.017  15.414  0.0779  0.5494 -0.4804
  145DOPC  H18Y17309   5.153   5.092  15.567 -0.2180 -0.9685 -0.4350
  145DOPC  H18Z17310   5.265   5.187  15.475  0.6958 -0.0312  1.4282
  146DOPC     N17311   5.762   3.166  17.888  0.1161  0.5969  0.2305
  146DOPC   C1217312   5.741   3.225  17.750 -0.1549 -0.2011  0.4526
  146DOPC  H12A17313   5.732   3.331  17.765  2.3986  0.4965 -2.1199
  146DOPC  H12B17314   5.658   3.181  17.696 -1.2811  0.3202  1.7008
  146DOPC   C1317315   5.869   3.239  17.962 -0.6868 -0.2241 -0.3901
  146DOPC  H13A17316   5.852   3.345  17.955 -2.3123 -0.3319  1.0688
  146DOPC  H13B17317   5.860   3.214  18.067  0.2893  3.3716  0.6965
  146DOPC  H13C17318   5.964   3.207  17.922 -0.1473  0.5556  0.2320
  146DOPC   C1417319   5.798   3.020  17.894  0.6103 -0.2518  0.2164
  146DOPC  H14A17320   5.891   3.006  17.840  0.3003 -0.4608 -0.2704
  146DOPC  H14B17321   5.821   2.986  17.993 -2.2362 -1.5475  0.5285
  146DOPC  H14C17322   5.716   2.958  17.862  1.2718 -0.6138 -0.8570
  146DOPC   C1517323   5.628   3.187  17.955 -0.1532  0.5906 -0.7006
  146DOPC  H15A17324   5.608   3.117  18.035 -0.6684 -0.3922 -1.6769
  146DOPC  H15B17325   5.547   3.170  17.887 -0.9870  0.8176  0.2071
  146DOPC  H15C17326   5.623   3.293  17.975 -3.0896  0.5910 -1.0874
  146DOPC   C1117327   5.871   3.222  17.658 -0.0771 -0.1336  0.1048
  146DOPC  H11A17328   5.862   3.289  17.569 -2.7429  2.6647  2.2621
  146DOPC  H11B17329   5.957   3.266  17.713  1.0844 -0.3056 -1.4877
  146DOPC     P17330   6.051   3.055  17.580  0.2571 -0.0069  0.2186
  146DOPC   O1317331   6.059   2.905  17.556 -0.2388 -1.2589 -0.4851
  146DOPC   O1417332   6.150   3.102  17.684  0.2502  0.1242  0.5076
  146DOPC   O1217333   5.902   3.093  17.616  0.1121 -0.0932  0.1189
  146DOPC   O1117334   6.077   3.124  17.432 -0.0320  0.5870 -0.0537
  146DOPC    C117335   5.989   3.093  17.325 -0.2865  0.1607  0.0044
  146DOPC    HA17336   5.928   3.182  17.297  0.5832  1.5513  2.2051
  146DOPC    HB17337   5.914   3.015  17.351  1.0534 -1.3832 -0.6383
  146DOPC    C217338   6.066   3.043  17.207 -0.2429 -0.2498 -0.0272
  146DOPC    HS17339   6.119   2.948  17.229  3.0273  2.0968  3.5315
  146DOPC   O2117340   6.158   3.144  17.174 -0.2803 -0.0632  0.0852
  146DOPC   C2117341   6.286   3.119  17.210 -0.0134 -0.7702  0.8689
  146DOPC   O2217342   6.327   3.029  17.276  0.0139 -0.0549 -0.1010
  146DOPC   C2217343   6.373   3.225  17.145  0.2011  0.4022  0.9132
  146DOPC   H2R17344   6.473   3.178  17.151  0.7090  1.5323  1.5732
  146DOPC   H2S17345   6.375   3.323  17.198  1.0348  0.6539  0.4232
  146DOPC    C317346   5.976   3.021  17.086 -0.0493 -0.4214  0.3840
  146DOPC    HX17347   5.907   3.107  17.068 -0.6518 -1.1890 -1.1836
  146DOPC    HY17348   5.908   2.933  17.090  0.2556 -0.6290  0.9870
  146DOPC   O3117349   6.050   3.013  16.963 -0.4236  1.0260  0.0919
  146DOPC   C3117350   6.110   2.898  16.931  0.7487 -0.4623  0.5455
  146DOPC   O3217351   6.124   2.798  17.003 -0.1632 -0.2222  0.7225
  146DOPC   C3217352   6.163   2.903  16.791 -0.2462 -0.2619 -0.7077
  146DOPC   H2X17353   6.259   2.957  16.799  1.1495 -2.8918  1.5311
  146DOPC   H2Y17354   6.191   2.797  16.774 -0.3883 -0.1166 -1.9967
  146DOPC   C2317355   6.347   3.246  16.993  0.2223 -0.0058  0.1316
  146DOPC   H3R17356   6.248   3.290  16.970  1.5288  2.2780 -1.5540
  146DOPC   H3S17357   6.366   3.153  16.934  1.7178 -0.7142  1.6580
  146DOPC   C2417358   6.450   3.351  16.949 -0.1095  0.0915  0.4440
  146DOPC   H4R17359   6.548   3.303  16.930  0.1462  0.3322  1.1595
  146DOPC   H4S17360   6.455   3.428  17.028  0.2768  0.7033 -0.1606
  146DOPC   C2517361   6.404   3.448  16.830 -0.8246  0.0420  0.4064
  146DOPC   H5R17362   6.305   3.496  16.847 -0.5343  1.0876 -0.7488
  146DOPC   H5S17363   6.387   3.389  16.738 -0.0204  0.0437  0.2554
  146DOPC   C2617364   6.504   3.560  16.800 -0.5966  0.5683 -0.1004
  146DOPC   H6R17365   6.605   3.514  16.806 -0.1786  1.4727  0.0514
  146DOPC   H6S17366   6.507   3.635  16.883  1.2437  2.4536 -1.7326
  146DOPC   C2717367   6.472   3.634  16.672 -0.5479 -0.5279  0.8650
  146DOPC   H7R17368   6.517   3.735  16.662 -2.2548  0.2524  0.5338
  146DOPC   H7S17369   6.361   3.645  16.662 -0.4686 -0.6904 -0.4258
  146DOPC   C2817370   6.497   3.555  16.547  0.2000  0.1547 -0.1006
  146DOPC   H8R17371   6.446   3.603  16.462  0.7750 -0.2554 -0.6919
  146DOPC   H8S17372   6.448   3.456  16.558  0.4327  0.1330  0.8411
  146DOPC   C2917373   6.640   3.523  16.513 -0.2932  0.0016 -0.2943
  146DOPC   H9R17374   6.698   3.471  16.590 -0.0140  0.2908 -0.3078
  146DOPC  C21017375   6.711   3.575  16.410  0.1342 -0.2892  0.1123
  146DOPC  H10R17376   6.812   3.540  16.387  0.2955  1.3063 -1.8522
  146DOPC  C21117377   6.669   3.668  16.306  0.4147  0.0308  0.0113
  146DOPC  H11R17378   6.672   3.770  16.349  1.6100 -0.1756  0.4536
  146DOPC  H11S17379   6.560   3.651  16.288  0.0191  0.7984  1.5553
  146DOPC  C21217380   6.751   3.668  16.177 -0.0999  0.5306 -0.2613
  146DOPC  H12R17381   6.857   3.673  16.212  0.0737 -3.7243  0.3621
  146DOPC  H12S17382   6.722   3.757  16.117 -2.2443 -1.1316 -1.8509
  146DOPC  C21317383   6.734   3.548  16.083  0.6766 -0.6191 -0.9426
  146DOPC  H13R17384   6.627   3.520  16.095  0.9007 -1.2083 -0.2404
  146DOPC  H13S17385   6.787   3.460  16.124 -1.4444 -1.1309  0.8944
  146DOPC  C21417386   6.780   3.583  15.936 -0.9102 -0.0820  0.0057
  146DOPC  H14R17387   6.886   3.616  15.931 -2.0675  4.0902 -4.5857
  146DOPC  H14S17388   6.724   3.662  15.883 -0.4217  0.1537 -0.1558
  146DOPC  C21517389   6.771   3.471  15.835  0.2845  0.0886  0.6806
  146DOPC  H15R17390   6.799   3.507  15.734  2.3091 -0.3423  1.0538
  146DOPC  H15S17391   6.668   3.429  15.833  0.5861 -0.6491 -1.3007
  146DOPC  C21617392   6.867   3.356  15.866 -0.3462  1.0691 -0.1272
  146DOPC  H16R17393   6.836   3.305  15.960 -2.6449  1.7189 -0.4695
  146DOPC  H16S17394   6.970   3.393  15.886 -0.2750  0.1760  1.3105
  146DOPC  C21717395   6.872   3.258  15.751  0.5892 -0.6980  0.2367
  146DOPC  H17R17396   6.880   3.317  15.657 -0.8909 -0.4635  0.2407
  146DOPC  H17S17397   6.774   3.208  15.736 -1.0823  2.8477 -1.8013
  146DOPC  C21817398   6.983   3.158  15.769  0.9943  0.7321 -0.7420
  146DOPC  H18R17399   6.994   3.093  15.680 -0.8119  1.3955 -1.4899
  146DOPC  H18S17400   6.981   3.100  15.864  2.4314 -0.9070 -1.6650
  146DOPC  H18T17401   7.080   3.213  15.773  0.4948  1.5799  0.1938
  146DOPC   C3317402   6.067   2.951  16.676  0.1850  0.3368  0.6268
  146DOPC   H3X17403   6.015   3.045  16.706 -2.1414 -1.3692  2.2714
  146DOPC   H3Y17404   5.987   2.877  16.657  1.3706 -0.6834 -0.5907
  146DOPC   C3417405   6.142   2.991  16.540 -0.1291  0.0635  0.3431
  146DOPC   H4X17406   6.210   2.916  16.495 -0.7857 -0.1104 -0.3970
  146DOPC   H4Y17407   6.205   3.081  16.557  2.4144 -1.5300 -0.1236
  146DOPC   C3517408   6.041   3.011  16.427 -0.1288  0.3008  0.3214
  146DOPC   H5X17409   5.960   3.075  16.467  0.5959  0.8173  0.9897
  146DOPC   H5Y17410   5.978   2.921  16.410 -1.2305  0.4760  2.9673
  146DOPC   C3617411   6.098   3.065  16.299 -0.1047 -0.1551  0.2289
  146DOPC   H6X17412   6.164   3.151  16.324 -0.0293 -0.4643  1.1245
  146DOPC   H6Y17413   6.156   2.992  16.239 -1.0364  1.7848 -3.3220
  146DOPC   C3717414   5.992   3.110  16.196 -0.2533  0.1717  0.0452
  146DOPC   H7X17415   5.905   3.040  16.197 -1.2151  1.3206  1.5009
  146DOPC   H7Y17416   5.945   3.206  16.227 -1.8669  0.1047 -1.9513
  146DOPC   C3817417   6.041   3.120  16.047 -0.0245  0.3523 -0.6660
  146DOPC   H8X17418   5.957   3.136  15.976 -1.2225 -1.2097  0.3407
  146DOPC   H8Y17419   6.091   3.022  16.032  0.6314  0.8228 -1.7194
  146DOPC   C3917420   6.126   3.238  16.033 -0.4377  0.1940  0.8960
  146DOPC   H9X17421   6.144   3.298  16.124  2.0518  0.7058  0.1212
  146DOPC  C31017422   6.208   3.259  15.924  0.1930 -0.4041  0.0773
  146DOPC  H10X17423   6.269   3.350  15.919  0.9111 -0.6811  2.4647
  146DOPC  C31117424   6.216   3.185  15.797  0.3789  0.5294 -0.6977
  146DOPC  H11X17425   6.172   3.084  15.805  0.4553  0.5634  0.2203
  146DOPC  H11Y17426   6.323   3.184  15.766 -0.0400  0.5429 -2.2166
  146DOPC  C31217427   6.140   3.271  15.693  0.0360 -0.2646 -0.3984
  146DOPC  H12X17428   6.178   3.374  15.681  1.0290 -0.5289  0.3701
  146DOPC  H12Y17429   6.036   3.287  15.728  0.5778  0.6688  0.8704
  146DOPC  C31317430   6.127   3.196  15.566 -0.6398 -0.8383  0.0116
  146DOPC  H13X17431   6.224   3.208  15.512 -0.9951  0.9181 -0.3055
  146DOPC  H13Y17432   6.111   3.086  15.568  1.2854 -1.1489  0.5852
  146DOPC  C31417433   6.024   3.253  15.467  0.0655 -0.0650  0.8186
  146DOPC  H14X17434   5.923   3.218  15.500  0.1818  1.1443  2.6125
  146DOPC  H14Y17435   6.021   3.364  15.462  0.9278  0.0280  1.8562
  146DOPC  C31517436   6.049   3.198  15.326 -0.5887  0.4428  0.2731
  146DOPC  H15X17437   6.067   3.089  15.333  0.2352  0.4611 -1.1225
  146DOPC  H15Y17438   6.142   3.242  15.283 -0.2963 -0.4004  0.0178
  146DOPC  C31617439   5.928   3.233  15.238  0.0009  0.4563  0.8164
  146DOPC  H16X17440   5.853   3.155  15.265 -0.4454  1.1342  1.5498
  146DOPC  H16Y17441   5.881   3.330  15.264 -1.7130 -0.2816  0.5988
  146DOPC  C31717442   5.970   3.218  15.088  0.0646 -0.3609 -0.0487
  146DOPC  H17X17443   6.038   3.300  15.058 -0.1075 -0.6098 -1.1589
  146DOPC  H17Y17444   6.034   3.128  15.078  1.9923  1.0939 -1.7869
  146DOPC  C31817445   5.859   3.201  14.987  0.2744  0.0979  0.6095
  146DOPC  H18X17446   5.786   3.127  15.026  2.1923 -0.9641  2.3773
  146DOPC  H18Y17447   5.801   3.295  14.979  1.4072  0.8318  0.7642
  146DOPC  H18Z17448   5.891   3.169  14.885 -0.2233 -2.6707  1.2366
  147DOPC     N17449   3.748   3.966  17.973  0.4742 -0.2520 -0.2293
  147DOPC   C1217450   3.802   3.902  17.851 -0.1937  0.2931  0.5796
  147DOPC  H12A17451   3.723   3.903  17.777 -0.7579 -0.3706  1.1538
  147DOPC  H12B17452   3.833   3.799  17.857  2.8870  1.0298 -0.8233
  147DOPC   C1317453   3.729   4.112  17.938  0.3828  0.6009 -0.0467
  147DOPC  H13A17454   3.683   4.164  18.020  1.2074 -0.3341  1.0308
  147DOPC  H13B17455   3.828   4.156  17.928  1.8215 -2.2769  0.5494
  147DOPC  H13C17456   3.669   4.127  17.849  1.4847 -0.6381 -1.0458
  147DOPC   C1417457   3.835   3.953  18.091 -0.4144  0.1014  0.6446
  147DOPC  H14A17458   3.932   4.000  18.078  0.3488 -0.6154  3.1548
  147DOPC  H14B17459   3.782   3.978  18.182 -2.0791  0.1862 -0.3116
  147DOPC  H14C17460   3.861   3.850  18.114 -3.0899 -0.5660  1.0243
  147DOPC   C1517461   3.617   3.911  18.017  0.2359  0.1473 -0.4537
  147DOPC  H15A17462   3.549   3.890  17.935  0.8814 -2.6614 -0.3672
  147DOPC  H15B17463   3.570   3.970  18.095  0.0833  0.4250 -0.7530
  147DOPC  H15C17464   3.631   3.815  18.064  0.7405 -0.5968 -2.0692
  147DOPC   C1117465   3.936   3.952  17.786 -0.6023 -0.1092 -0.3348
  147DOPC  H11A17466   3.954   3.906  17.687 -0.5699  2.7917 -1.7749
  147DOPC  H11B17467   3.928   4.062  17.772  3.4903  0.0918 -2.9190
  147DOPC     P17468   4.129   3.784  17.869  0.0388  0.3950  0.5573
  147DOPC   O1317469   4.023   3.678  17.875 -0.4025  0.5837  0.4876
  147DOPC   O1417470   4.220   3.785  17.983 -0.5653  0.1719 -0.4624
  147DOPC   O1217471   4.049   3.924  17.868 -0.4083 -0.5872  0.4701
  147DOPC   O1117472   4.219   3.781  17.735  0.6505 -0.6319  0.2121
  147DOPC    C117473   4.320   3.876  17.713 -0.5817  0.1046 -0.0623
  147DOPC    HA17474   4.407   3.828  17.664  0.1893  2.3574 -1.0572
  147DOPC    HB17475   4.350   3.941  17.798  0.2844  0.5001 -0.6460
  147DOPC    C217476   4.265   3.968  17.598  0.3331  0.0263  1.1858
  147DOPC    HS17477   4.161   3.992  17.629  0.1850  0.3411  0.4715
  147DOPC   O2117478   4.265   3.902  17.473 -0.0930  0.1793  0.7306
  147DOPC   C2117479   4.153   3.908  17.412  0.1484  0.6258  0.5877
  147DOPC   O2217480   4.056   3.973  17.442 -0.3291 -0.3297  0.1769
  147DOPC   C2217481   4.163   3.814  17.291  0.7470 -0.7180 -0.1863
  147DOPC   H2R17482   4.082   3.739  17.298  1.0841 -0.9197  2.8415
  147DOPC   H2S17483   4.260   3.760  17.301  0.9060 -0.5989 -1.0018
  147DOPC    C317484   4.333   4.108  17.588  0.3011 -0.4204 -0.9990
  147DOPC    HX17485   4.442   4.089  17.601  0.1636 -0.2060  0.7139
  147DOPC    HY17486   4.315   4.174  17.676  1.1961 -1.1625 -0.2361
  147DOPC   O3117487   4.311   4.169  17.460  0.6079 -0.2923  0.0412
  147DOPC   C3117488   4.218   4.268  17.467 -0.5403  0.3089 -0.3830
  147DOPC   O3217489   4.145   4.278  17.563 -0.2690 -0.7190  0.0509
  147DOPC   C3217490   4.223   4.346  17.342 -0.8848 -0.1524  1.3105
  147DOPC   H2X17491   4.138   4.418  17.338 -0.9993 -0.2447  2.1083
  147DOPC   H2Y17492   4.325   4.391  17.340 -0.9670  0.0769  2.0578
  147DOPC   C2317493   4.155   3.886  17.156  0.2136 -1.4869  0.2662
  147DOPC   H3R17494   4.214   3.837  17.075  1.6304 -0.0903  0.4190
  147DOPC   H3S17495   4.200   3.987  17.169  0.3082 -1.6577  1.3515
  147DOPC   C2417496   4.009   3.908  17.108  0.1478 -0.0111  0.4725
  147DOPC   H4R17497   3.955   3.976  17.178 -2.4532  1.4495 -2.7049
  147DOPC   H4S17498   3.948   3.815  17.105 -0.3827  0.2908  1.3904
  147DOPC   C2517499   4.013   3.982  16.975 -0.7491  0.4923  0.0848
  147DOPC   H5R17500   4.105   3.951  16.919  0.2462 -0.2421  2.0495
  147DOPC   H5S17501   4.016   4.091  16.996  0.1994  0.8275 -1.5455
  147DOPC   C2617502   3.893   3.948  16.887 -0.9637 -0.5649  0.4549
  147DOPC   H6R17503   3.805   3.975  16.948 -2.0023 -0.1270 -1.1712
  147DOPC   H6S17504   3.887   3.841  16.856 -2.5551 -0.1370 -0.8265
  147DOPC   C2717505   3.898   4.038  16.768  0.0130 -0.3943  0.8490
  147DOPC   H7R17506   3.985   4.003  16.709 -1.0826 -0.9823 -0.4699
  147DOPC   H7S17507   3.919   4.140  16.805 -2.0357 -0.0005  1.0790
  147DOPC   C2817508   3.771   4.029  16.691 -0.0672 -0.7597 -0.1873
  147DOPC   H8R17509   3.692   4.059  16.763  0.4445 -1.3698  0.6430
  147DOPC   H8S17510   3.754   3.921  16.669 -0.4716 -0.9225  0.8600
  147DOPC   C2917511   3.762   4.113  16.566 -0.5723  0.1930  0.7189
  147DOPC   H9R17512   3.788   4.220  16.564 -1.0067  0.2952 -1.0937
  147DOPC  C21017513   3.738   4.069  16.438 -0.7454 -0.5119  1.1369
  147DOPC  H10R17514   3.732   4.145  16.359  0.6201 -1.8891 -0.3484
  147DOPC  C21117515   3.688   3.926  16.402 -0.3006 -0.2628 -1.0692
  147DOPC  H11R17516   3.625   3.936  16.311 -2.4647 -1.4058  0.2170
  147DOPC  H11S17517   3.619   3.886  16.479 -0.8068  1.0720 -0.8103
  147DOPC  C21217518   3.817   3.841  16.386  0.3344  0.3150 -0.0697
  147DOPC  H12R17519   3.796   3.752  16.449  0.1180 -0.9172 -1.8176
  147DOPC  H12S17520   3.908   3.897  16.416 -0.8243  1.2939  1.7291
  147DOPC  C21317521   3.827   3.777  16.252  0.2714  0.1229  0.2713
  147DOPC  H13R17522   3.797   3.860  16.184 -0.7773 -0.9206 -0.6015
  147DOPC  H13S17523   3.748   3.698  16.247 -1.5694  1.8858  0.3811
  147DOPC  C21417524   3.957   3.699  16.209  1.0269 -0.5762 -0.1265
  147DOPC  H14R17525   3.920   3.634  16.128  1.3316  0.5997 -1.2418
  147DOPC  H14S17526   3.987   3.628  16.289 -1.3062  0.0082  1.3662
  147DOPC  C21517527   4.070   3.785  16.160 -0.2483 -0.0332  0.6217
  147DOPC  H15R17528   4.131   3.833  16.240 -0.7574  1.0337  0.4014
  147DOPC  H15S17529   4.036   3.881  16.115  0.0825  1.0889  2.6502
  147DOPC  C21617530   4.184   3.714  16.081 -0.4692  1.0718 -0.3486
  147DOPC  H16R17531   4.134   3.672  15.991 -0.0725  0.1973 -0.1752
  147DOPC  H16S17532   4.215   3.632  16.150 -0.4730  1.0003 -0.4313
  147DOPC  C21717533   4.306   3.795  16.046 -0.0261 -0.1177  0.0285
  147DOPC  H17R17534   4.266   3.884  15.993 -1.0063 -0.5076  0.1042
  147DOPC  H17S17535   4.359   3.731  15.972  0.0610  0.4696 -0.4235
  147DOPC  C21817536   4.395   3.834  16.159  0.5023  0.0941  0.0098
  147DOPC  H18R17537   4.469   3.911  16.126 -0.7399  0.6259 -1.6438
  147DOPC  H18S17538   4.456   3.748  16.195  0.4802  0.0800  0.0140
  147DOPC  H18T17539   4.349   3.895  16.240 -0.1669 -1.6760  1.0077
  147DOPC   C3317540   4.206   4.252  17.219  0.2279  0.1672  0.2519
  147DOPC   H3X17541   4.124   4.182  17.243  2.1988 -2.2549  0.3823
  147DOPC   H3Y17542   4.298   4.190  17.206  0.1921  0.1309  0.1706
  147DOPC   C3417543   4.165   4.321  17.086 -0.2421  0.1998 -0.0258
  147DOPC   H4X17544   4.180   4.431  17.094  0.6924  0.0253  0.8371
  147DOPC   H4Y17545   4.056   4.300  17.074  0.1390 -3.3695  1.5973
  147DOPC   C3517546   4.227   4.275  16.957 -0.5597  0.2476  0.0385
  147DOPC   H5X17547   4.219   4.164  16.953  0.5171  0.0931  1.5032
  147DOPC   H5Y17548   4.334   4.298  16.973 -1.1014  1.1550  3.0468
  147DOPC   C3617549   4.179   4.354  16.835 -1.2280 -0.4058 -0.3044
  147DOPC   H6X17550   4.070   4.331  16.844 -0.9041 -1.6412  0.7378
  147DOPC   H6Y17551   4.179   4.464  16.848 -1.4238 -0.3816 -0.4844
  147DOPC   C3717552   4.241   4.299  16.708  0.0066  0.3007  0.1813
  147DOPC   H7X17553   4.351   4.287  16.706 -0.0398 -0.1469 -0.9284
  147DOPC   H7Y17554   4.216   4.192  16.689  0.1015  0.4783 -1.0113
  147DOPC   C3817555   4.197   4.372  16.582 -0.4758  0.0442 -0.6349
  147DOPC   H8X17556   4.288   4.361  16.519  0.2007  2.5158 -0.1983
  147DOPC   H8Y17557   4.203   4.482  16.601 -2.9149  0.2524 -0.7754
  147DOPC   C3917558   4.074   4.328  16.516  0.0920 -0.1062 -0.1107
  147DOPC   H9X17559   3.988   4.310  16.582  1.9095 -0.1824  2.4051
  147DOPC  C31017560   4.070   4.280  16.393  0.0103  0.3960  0.9191
  147DOPC  H10X17561   3.969   4.248  16.362 -1.3044  0.7558  4.4530
  147DOPC  C31117562   4.192   4.236  16.309  0.5027  0.2007  0.1026
  147DOPC  H11X17563   4.174   4.142  16.251 -0.3190 -0.0162  0.6903
  147DOPC  H11Y17564   4.283   4.217  16.369  0.1099  0.3465  0.7457
  147DOPC  C31217565   4.246   4.342  16.209 -0.0338  0.0220 -0.4982
  147DOPC  H12X17566   4.342   4.310  16.165 -0.6797 -0.8308 -1.3101
  147DOPC  H12Y17567   4.275   4.426  16.276  0.3179 -1.2537  1.0155
  147DOPC  C31317568   4.142   4.392  16.103  0.4157 -0.0095 -0.4334
  147DOPC  H13X17569   4.054   4.430  16.159  0.7594  1.0588 -0.5949
  147DOPC  H13Y17570   4.180   4.480  16.046 -0.6403  0.2966 -0.6786
  147DOPC  C31417571   4.092   4.287  16.002 -0.3269  0.2033  0.1629
  147DOPC  H14X17572   4.057   4.191  16.046  1.5117 -0.6408 -0.1485
  147DOPC  H14Y17573   4.011   4.325  15.936 -0.7287  1.9789  1.5916
  147DOPC  C31517574   4.217   4.253  15.926 -0.2036  0.0258  0.1962
  147DOPC  H15X17575   4.281   4.188  15.989 -0.1422  2.0830  2.4017
  147DOPC  H15Y17576   4.282   4.340  15.903  0.6443 -0.2166  1.5664
  147DOPC  C31617577   4.195   4.175  15.792 -0.9602  0.0877  1.0266
  147DOPC  H16X17578   4.172   4.071  15.822 -1.9775 -0.1212 -0.3551
  147DOPC  H16Y17579   4.107   4.217  15.739 -1.9874 -1.2431  1.6174
  147DOPC  C31717580   4.316   4.176  15.707 -0.2424 -0.6449 -0.5060
  147DOPC  H17X17581   4.340   4.276  15.666  1.1030 -0.4242  0.7243
  147DOPC  H17Y17582   4.410   4.159  15.764  0.8542  0.5618 -1.8602
  147DOPC  C31817583   4.305   4.083  15.590 -0.7982  0.7947  0.4574
  147DOPC  H18X17584   4.400   4.092  15.533 -0.4929 -0.8518  0.6768
  147DOPC  H18Y17585   4.293   3.979  15.625 -1.1634  0.4547 -0.6315
  147DOPC  H18Z17586   4.219   4.095  15.521 -0.2108 -2.3979 -1.0210
  148DOPC     N17587   2.998   0.730  17.398  0.0362  0.4431  0.9081
  148DOPC   C1217588   2.985   0.579  17.399 -0.7568  0.6197 -0.1783
  148DOPC  H12A17589   2.992   0.557  17.504 -3.1205  1.2040  0.1576
  148DOPC  H12B17590   3.077   0.542  17.356 -1.5330 -0.7491 -0.7603
  148DOPC   C1317591   3.114   0.767  17.488  0.6226  0.0514  0.4038
  148DOPC  H13A17592   3.078   0.771  17.590  0.0462 -0.6460  0.2336
  148DOPC  H13B17593   3.202   0.706  17.477  0.1701 -0.5352 -0.0299
  148DOPC  H13C17594   3.147   0.869  17.473 -1.9927  0.5808 -2.9139
  148DOPC   C1417595   2.871   0.782  17.433  0.2370  0.1373 -0.0879
  148DOPC  H14A17596   2.840   0.764  17.534  1.9057  0.0063  0.4357
  148DOPC  H14B17597   2.871   0.890  17.422  1.8024  0.1425 -0.2256
  148DOPC  H14C17598   2.800   0.738  17.365 -0.6113  0.5046  0.5361
  148DOPC   C1517599   3.037   0.775  17.258 -0.1087 -0.2225 -0.4887
  148DOPC  H15A17600   2.954   0.776  17.189 -0.3778  2.3385 -0.1930
  148DOPC  H15B17601   3.120   0.726  17.210  0.2879  0.6130 -0.6707
  148DOPC  H15C17602   3.069   0.878  17.253 -1.7834  0.2902 -1.5210
  148DOPC   C1117603   2.866   0.499  17.352 -0.2388  0.2154  0.1770
  148DOPC  H11A17604   2.773   0.526  17.406 -0.1343 -0.7182  0.8538
  148DOPC  H11B17605   2.863   0.511  17.241  1.3029  0.4360  0.1440
  148DOPC     P17606   2.987   0.261  17.308 -0.3461 -0.0764  0.2611
  148DOPC   O1317607   2.956   0.125  17.357 -0.4516  0.0488 -0.5738
  148DOPC   O1417608   3.127   0.304  17.329  0.2159 -0.4681 -0.8213
  148DOPC   O1217609   2.885   0.364  17.385 -0.7933  0.4718  0.6512
  148DOPC   O1117610   2.941   0.264  17.155 -0.5163 -0.0404 -0.1198
  148DOPC    C117611   2.829   0.189  17.117 -0.4815 -0.0527  0.2559
  148DOPC    HA17612   2.740   0.221  17.177 -1.1569  0.5269 -1.0199
  148DOPC    HB17613   2.858   0.084  17.136  1.3788  0.4468  0.4123
  148DOPC    C217614   2.792   0.209  16.965  0.8001 -0.1580  0.0603
  148DOPC    HS17615   2.719   0.131  16.935 -0.0130  0.9199 -0.8843
  148DOPC   O2117616   2.902   0.200  16.877  0.5327  0.1613  0.5538
  148DOPC   C2117617   2.962   0.090  16.860  0.1235  0.7181 -0.4236
  148DOPC   O2217618   2.929  -0.019  16.908  0.9848 -0.4908  0.3760
  148DOPC   C2217619   3.086   0.114  16.761  0.8688 -0.1261  0.6754
  148DOPC   H2R17620   3.119   0.010  16.740  1.8698  0.3755 -0.3507
  148DOPC   H2S17621   3.163   0.160  16.827  0.2566  2.1002 -0.0533
  148DOPC    C317622   2.731   0.353  16.945  0.2163 -0.3645  0.2972
  148DOPC    HX17623   2.801   0.420  17.000 -1.2141  1.2357  0.2330
  148DOPC    HY17624   2.646   0.370  17.014  2.7137  2.7990  2.9266
  148DOPC   O3117625   2.698   0.387  16.808 -0.2392  0.1073  0.1062
  148DOPC   C3117626   2.753   0.496  16.768  0.2475 -0.1840 -0.2173
  148DOPC   O3217627   2.818   0.571  16.844  0.0592  0.2016  0.2908
  148DOPC   C3217628   2.705   0.530  16.624  0.0315 -0.0008  0.5604
  148DOPC   H2X17629   2.751   0.454  16.557 -0.9141  0.0026 -0.1078
  148DOPC   H2Y17630   2.595   0.519  16.632  0.2336 -1.1524  2.1846
  148DOPC   C2317631   3.053   0.194  16.639 -0.1450 -0.2691  0.2660
  148DOPC   H3R17632   2.949   0.231  16.636 -0.7403 -1.8519  0.5942
  148DOPC   H3S17633   3.066   0.125  16.553 -0.5329  0.3929 -0.3263
  148DOPC   C2417634   3.152   0.308  16.612  0.5877 -0.1479 -0.0744
  148DOPC   H4R17635   3.253   0.264  16.607 -0.0051 -1.6233  0.3137
  148DOPC   H4S17636   3.153   0.377  16.699  2.3897  3.0906 -2.4369
  148DOPC   C2517637   3.132   0.397  16.488 -1.3249  0.1275 -0.2100
  148DOPC   H5R17638   3.221   0.462  16.501  0.1012 -1.8822  0.5256
  148DOPC   H5S17639   3.039   0.455  16.507 -1.3475 -0.0946  0.3549
  148DOPC   C2617640   3.132   0.328  16.348 -0.6035 -0.0479  0.5239
  148DOPC   H6R17641   3.095   0.397  16.269  0.9387  0.4104  0.1713
  148DOPC   H6S17642   3.050   0.253  16.348 -0.2190 -0.4886 -0.6440
  148DOPC   C2717643   3.267   0.261  16.305  0.6348 -0.1812  0.3074
  148DOPC   H7R17644   3.267   0.154  16.333 -0.8510 -0.6799 -1.4027
  148DOPC   H7S17645   3.343   0.327  16.350  0.6942 -1.2355  1.8220
  148DOPC   C2817646   3.274   0.248  16.152  0.3616 -0.0257 -0.8164
  148DOPC   H8R17647   3.180   0.197  16.122 -0.4439 -0.2441  1.8397
  148DOPC   H8S17648   3.350   0.170  16.127  0.0588 -1.2871  1.8615
  148DOPC   C2917649   3.319   0.368  16.072 -0.1757  0.0023  0.1944
  148DOPC   H9R17650   3.396   0.423  16.129 -1.6416  2.1731  0.1886
  148DOPC  C21017651   3.274   0.413  15.953  0.5359  0.2238 -0.5303
  148DOPC  H10R17652   3.321   0.507  15.920  1.5616  0.7974  2.3167
  148DOPC  C21117653   3.156   0.358  15.868 -0.0366 -0.8167  0.9581
  148DOPC  H11R17654   3.074   0.434  15.871 -0.7126 -1.5523  1.9294
  148DOPC  H11S17655   3.109   0.264  15.903 -0.6579 -0.2875  1.6032
  148DOPC  C21217656   3.202   0.323  15.723  0.0137 -0.6967  0.7739
  148DOPC  H12R17657   3.278   0.242  15.723  2.8828  1.7620  0.0416
  148DOPC  H12S17658   3.252   0.417  15.688  0.4376 -1.1779  0.0602
  148DOPC  C21317659   3.089   0.291  15.628  0.4283  0.1193  0.8928
  148DOPC  H13R17660   3.004   0.362  15.630  1.7051  1.9140 -1.9813
  148DOPC  H13S17661   3.060   0.187  15.653  2.4784 -0.9044 -0.6779
  148DOPC  C21417662   3.138   0.288  15.471 -0.0643  0.4259 -0.1436
  148DOPC  H14R17663   3.230   0.225  15.474 -0.6978 -0.5818 -1.0819
  148DOPC  H14S17664   3.153   0.394  15.443  0.0669  0.6640  0.8181
  148DOPC  C21517665   3.034   0.231  15.372 -0.3733 -1.1799  0.5385
  148DOPC  H15R17666   3.072   0.232  15.267 -2.1190  0.5147 -0.1389
  148DOPC  H15S17667   2.949   0.302  15.375  0.1152 -0.6229  1.8553
  148DOPC  C21617668   2.995   0.086  15.399 -0.1310  0.8949  0.2997
  148DOPC  H16R17669   2.962   0.076  15.504 -2.7767 -0.8980 -0.5964
  148DOPC  H16S17670   3.073   0.009  15.381  0.7409  1.8830 -0.2921
  148DOPC  C21717671   2.877   0.036  15.301 -0.3986 -0.1998 -0.5064
  148DOPC  H17R17672   2.795   0.105  15.331  1.8987  1.5988  2.0926
  148DOPC  H17S17673   2.839  -0.065  15.330  0.9595 -1.0273 -1.4408
  148DOPC  C21817674   2.920   0.040  15.154 -0.0497  0.1610 -0.1739
  148DOPC  H18R17675   2.931   0.146  15.122  0.9777  0.0445 -0.2246
  148DOPC  H18S17676   2.841  -0.004  15.089 -2.7100  0.7124  2.4390
  148DOPC  H18T17677   3.012  -0.014  15.124 -1.9512 -2.3896 -1.8308
  148DOPC   C3317678   2.747   0.668  16.573 -0.9376 -0.6601 -0.8437
  148DOPC   H3X17679   2.858   0.683  16.574 -0.9353 -0.5835 -1.5100
  148DOPC   H3Y17680   2.708   0.753  16.633 -0.9811 -0.8395 -0.6172
  148DOPC   C3417681   2.698   0.690  16.427 -0.4507  0.1550  0.3624
  148DOPC   H4X17682   2.686   0.801  16.425  1.2398  0.5120  3.5973
  148DOPC   H4Y17683   2.602   0.635  16.418  1.3439 -2.8955 -2.3140
  148DOPC   C3517684   2.794   0.649  16.319 -0.1012  0.2000  0.5031
  148DOPC   H5X17685   2.818   0.545  16.350  0.2580  0.4465  1.0867
  148DOPC   H5Y17686   2.884   0.715  16.319 -0.4493  0.6934 -0.2408
  148DOPC   C3617687   2.736   0.661  16.174  0.4212  0.0045  0.5040
  148DOPC   H6X17688   2.629   0.633  16.182  1.2504 -4.3114 -1.0027
  148DOPC   H6Y17689   2.743   0.768  16.147  0.5590  0.1393  1.0572
  148DOPC   C3717690   2.815   0.560  16.078  0.2981  0.1582  0.2784
  148DOPC   H7X17691   2.839   0.624  15.991  2.3121 -0.6493  0.1814
  148DOPC   H7Y17692   2.907   0.531  16.132 -0.3647  2.5273  2.8854
  148DOPC   C3817693   2.725   0.437  16.040  0.0696  0.6629  0.3238
  148DOPC   H8X17694   2.636   0.474  15.984 -0.0205 -0.5834 -0.3941
  148DOPC   H8Y17695   2.687   0.390  16.133 -0.6810  0.2728 -0.1691
  148DOPC   C3917696   2.802   0.336  15.957  0.1645 -0.1891  0.5102
  148DOPC   H9X17697   2.886   0.287  16.008 -0.7378 -1.8234  0.5007
  148DOPC  C31017698   2.782   0.313  15.828  0.4636 -0.1574  0.1408
  148DOPC  H10X17699   2.842   0.234  15.780 -1.5384 -2.4367  1.1494
  148DOPC  C31117700   2.684   0.383  15.740  0.0263 -0.0745 -0.2886
  148DOPC  H11X17701   2.730   0.476  15.700  1.3895 -0.4282  0.3943
  148DOPC  H11Y17702   2.585   0.397  15.787  0.4180 -0.0234  0.5464
  148DOPC  C31217703   2.645   0.299  15.612 -0.0286  0.3130 -0.2379
  148DOPC  H12X17704   2.741   0.261  15.571 -0.6071 -0.9012 -0.5093
  148DOPC  H12Y17705   2.586   0.360  15.540  1.5409  0.4135 -1.5068
  148DOPC  C31317706   2.550   0.192  15.647  0.1834 -0.1993  0.0337
  148DOPC  H13X17707   2.559   0.160  15.752 -2.2684 -0.2843  0.2780
  148DOPC  H13Y17708   2.447   0.234  15.641 -0.0464 -0.5540  1.3354
  148DOPC  C31417709   2.574   0.076  15.556 -0.7868 -0.6085 -0.2731
  148DOPC  H14X17710   2.561   0.100  15.448  1.5975  0.6556 -0.3599
  148DOPC  H14Y17711   2.668   0.019  15.576 -0.2321  0.2536 -0.3633
  148DOPC  C31517712   2.460  -0.019  15.586 -0.1944 -0.4469 -0.0725
  148DOPC  H15X17713   2.365   0.037  15.575  1.1783  1.7613 -1.6319
  148DOPC  H15Y17714   2.467  -0.037  15.695  0.4100  0.9572  0.1355
  148DOPC  C31617715   2.449  -0.143  15.499  0.8996  0.7273 -0.0019
  148DOPC  H16X17716   2.455  -0.120  15.391  0.5422 -0.8342 -0.3702
  148DOPC  H16Y17717   2.523  -0.224  15.512 -0.0445 -0.2217 -0.3838
  148DOPC  C31717718   2.319  -0.218  15.536 -0.0406 -0.0203  0.4083
  148DOPC  H17X17719   2.236  -0.172  15.478 -0.9535  0.9009  2.3820
  148DOPC  H17Y17720   2.327  -0.322  15.498  0.1333  0.1699 -0.0903
  148DOPC  C31817721   2.277  -0.231  15.683  0.2198 -0.3107  0.7420
  148DOPC  H18X17722   2.196  -0.306  15.691  1.3458 -1.4254  2.2517
  148DOPC  H18Y17723   2.355  -0.277  15.746 -1.5372 -0.7989  2.6991
  148DOPC  H18Z17724   2.247  -0.133  15.727  0.6923 -0.7130  2.0076
  149DOPC     N17725   4.285   3.372  17.916  0.1603  0.1903 -0.3509
  149DOPC   C1217726   4.377   3.485  17.866  0.5508  0.1728  0.3106
  149DOPC  H12A17727   4.474   3.473  17.912 -0.0609 -3.8024  0.8835
  149DOPC  H12B17728   4.341   3.582  17.898 -1.0536  0.1631 -1.2862
  149DOPC   C1317729   4.149   3.378  17.838 -0.4476 -0.1918 -0.3658
  149DOPC  H13A17730   4.075   3.314  17.884 -0.3079  0.6644  1.1311
  149DOPC  H13B17731   4.119   3.481  17.851 -0.0529 -0.1890  0.6564
  149DOPC  H13C17732   4.165   3.352  17.735  2.1265  0.3664 -0.1886
  149DOPC   C1417733   4.251   3.395  18.060  0.5480 -0.1533  0.2754
  149DOPC  H14A17734   4.327   3.377  18.135 -1.8194 -0.3503  2.7667
  149DOPC  H14B17735   4.215   3.496  18.073 -0.2748 -0.4595  0.4391
  149DOPC  H14C17736   4.169   3.333  18.093 -0.6138  0.8914 -0.5535
  149DOPC   C1517737   4.348   3.240  17.895 -0.9279 -0.2000  0.2422
  149DOPC  H15A17738   4.445   3.242  17.943 -1.6654  0.1201  1.7775
  149DOPC  H15B17739   4.379   3.226  17.793 -0.2153  0.1074  0.4070
  149DOPC  H15C17740   4.291   3.152  17.919 -1.8447  0.4900  0.6420
  149DOPC   C1117741   4.405   3.492  17.715  0.0960 -0.8496 -0.3725
  149DOPC  H11A17742   4.316   3.465  17.653  0.4299 -2.2780 -0.2534
  149DOPC  H11B17743   4.426   3.599  17.693 -0.3016 -0.2743  1.8017
  149DOPC     P17744   4.660   3.431  17.678  0.2159  0.3027  0.1042
  149DOPC   O1317745   4.728   3.302  17.648  0.6229  0.1750 -0.5529
  149DOPC   O1417746   4.688   3.505  17.806  0.1191  0.0235 -0.4014
  149DOPC   O1217747   4.503   3.413  17.668 -0.0865  0.0950  0.6100
  149DOPC   O1117748   4.685   3.531  17.562  0.1280  0.1027  0.5275
  149DOPC    C117749   4.640   3.505  17.425 -0.5324 -0.3912 -0.6103
  149DOPC    HA17750   4.586   3.408  17.416  0.1159 -0.9455  1.1566
  149DOPC    HB17751   4.726   3.503  17.355  1.1017  0.1198  1.2893
  149DOPC    C217752   4.554   3.624  17.388  0.0542  0.4213 -0.6592
  149DOPC    HS17753   4.454   3.624  17.435  0.7942  1.8908  1.0334
  149DOPC   O2117754   4.545   3.627  17.251  0.5278  0.2449  0.1075
  149DOPC   C2117755   4.457   3.538  17.197  0.1787 -0.2915  0.3740
  149DOPC   O2217756   4.381   3.463  17.251 -0.0814 -0.1364 -0.2136
  149DOPC   C2217757   4.468   3.544  17.045 -0.3981  0.5096  0.5328
  149DOPC   H2R17758   4.506   3.643  17.013  0.1348  0.2891  0.4861
  149DOPC   H2S17759   4.361   3.538  17.015  0.2349 -0.2918 -1.7067
  149DOPC    C317760   4.629   3.751  17.433 -0.3974 -0.3701  0.0717
  149DOPC    HX17761   4.730   3.744  17.387 -1.2877 -2.3658 -1.7707
  149DOPC    HY17762   4.649   3.747  17.543 -0.3166 -1.5208  0.0378
  149DOPC   O3117763   4.553   3.873  17.399 -0.2332 -0.1434 -0.2079
  149DOPC   C3117764   4.617   3.951  17.310 -0.1346 -0.1822  0.4036
  149DOPC   O3217765   4.731   3.942  17.273 -0.2585 -0.0001  0.1766
  149DOPC   C3217766   4.518   4.056  17.260 -0.4602  0.1713  0.7167
  149DOPC   H2X17767   4.414   4.016  17.260 -0.9121  1.2129 -1.2045
  149DOPC   H2Y17768   4.528   4.133  17.339  1.6411  1.0339 -0.3222
  149DOPC   C2317769   4.558   3.444  16.968  0.0805 -0.1296  0.0072
  149DOPC   H3R17770   4.539   3.341  17.006 -0.6686  0.0520  0.1403
  149DOPC   H3S17771   4.661   3.477  16.994 -0.2670 -0.1136  1.4548
  149DOPC   C2417772   4.536   3.442  16.814 -0.6139 -0.0299  0.2593
  149DOPC   H4R17773   4.552   3.546  16.777  0.0705 -0.3573 -0.3984
  149DOPC   H4S17774   4.438   3.400  16.786 -1.0868  0.4126  1.2070
  149DOPC   C2517775   4.630   3.354  16.735 -0.6972  0.9075 -0.2651
  149DOPC   H5R17776   4.605   3.246  16.743 -0.7055  0.8679 -0.7927
  149DOPC   H5S17777   4.730   3.375  16.780 -0.5240  0.7663 -0.5809
  149DOPC   C2617778   4.642   3.384  16.582  0.8303 -0.3065 -1.0089
  149DOPC   H6R17779   4.681   3.292  16.534 -0.2822 -0.2037 -2.1921
  149DOPC   H6S17780   4.712   3.463  16.547  1.0709 -1.0862 -2.3577
  149DOPC   C2717781   4.499   3.414  16.523  0.4421 -0.1823 -0.0794
  149DOPC   H7R17782   4.457   3.504  16.572  1.4426  2.5027 -3.6984
  149DOPC   H7S17783   4.432   3.327  16.537 -3.3373  1.9842 -2.8254
  149DOPC   C2817784   4.509   3.427  16.366 -0.5585  0.4859  0.9203
  149DOPC   H8R17785   4.569   3.511  16.326  0.0037  0.0976  0.9364
  149DOPC   H8S17786   4.411   3.440  16.316  0.8131 -0.6622 -2.3088
  149DOPC   C2917787   4.540   3.294  16.300 -0.0938 -0.1314  0.5984
  149DOPC   H9R17788   4.477   3.207  16.326  0.6493 -1.4102 -1.5688
  149DOPC  C21017789   4.640   3.270  16.203 -0.2540 -0.3328 -0.3817
  149DOPC  H10R17790   4.641   3.168  16.163  0.1767 -1.3545  2.0545
  149DOPC  C21117791   4.763   3.354  16.164  0.1263  0.1670  0.4151
  149DOPC  H11R17792   4.859   3.297  16.159 -0.3662 -0.7431  0.9517
  149DOPC  H11S17793   4.770   3.446  16.226 -0.8622  0.0720  0.6763
  149DOPC  C21217794   4.737   3.408  16.025  0.1651 -0.3501  0.7629
  149DOPC  H12R17795   4.687   3.333  15.959  0.7398  0.4868 -0.6551
  149DOPC  H12S17796   4.837   3.431  15.984  0.0727 -0.6143  0.3854
  149DOPC  C21317797   4.644   3.536  16.009 -0.0236  0.3438 -0.6693
  149DOPC  H13R17798   4.683   3.611  16.080 -0.7118 -0.8799  1.0648
  149DOPC  H13S17799   4.553   3.488  16.051  0.9294 -0.9615 -0.0465
  149DOPC  C21417800   4.640   3.575  15.862  0.2092 -0.0692  0.2404
  149DOPC  H14R17801   4.736   3.621  15.831  0.5699 -1.2341 -0.4231
  149DOPC  H14S17802   4.569   3.659  15.846  0.1904 -0.5190 -2.3819
  149DOPC  C21517803   4.575   3.476  15.763 -0.3468 -0.1599  0.3016
  149DOPC  H15R17804   4.464   3.485  15.757 -0.2930  0.3110 -0.0571
  149DOPC  H15S17805   4.606   3.374  15.796  0.1061  0.2406  1.1434
  149DOPC  C21617806   4.625   3.500  15.623  0.2543  0.4102 -0.5124
  149DOPC  H16R17807   4.733   3.527  15.614  0.9844 -2.3478 -0.8069
  149DOPC  H16S17808   4.575   3.590  15.582 -0.1980  0.9210  1.0931
  149DOPC  C21717809   4.615   3.376  15.535 -0.6130  0.4837 -0.1798
  149DOPC  H17R17810   4.509   3.342  15.538  0.0536 -2.0108 -1.7880
  149DOPC  H17S17811   4.679   3.299  15.583 -0.8638 -0.2916 -1.0513
  149DOPC  C21817812   4.659   3.385  15.386 -0.0890  0.5968  0.1043
  149DOPC  H18R17813   4.675   3.284  15.342 -0.3524  1.0672 -1.1039
  149DOPC  H18S17814   4.756   3.437  15.377  0.4681 -0.6178 -1.1539
  149DOPC  H18T17815   4.588   3.445  15.325  1.2349  0.6020 -1.4673
  149DOPC   C3317816   4.551   4.114  17.117 -0.6018  0.0401 -0.2583
  149DOPC   H3X17817   4.652   4.159  17.123 -1.3833  1.7554  1.4700
  149DOPC   H3Y17818   4.471   4.187  17.092 -3.3259 -3.3723 -2.3734
  149DOPC   C3417819   4.538   4.006  17.011 -0.4690 -0.4808 -0.4505
  149DOPC   H4X17820   4.439   3.957  17.022 -1.3543  1.4968  0.9926
  149DOPC   H4Y17821   4.618   3.933  17.034 -0.5184 -0.7454 -1.1047
  149DOPC   C3517822   4.556   4.063  16.869  0.2646  0.0838 -0.3271
  149DOPC   H5X17823   4.659   4.083  16.833  1.4644  0.8107  3.1025
  149DOPC   H5Y17824   4.484   4.146  16.856 -1.1011 -0.9867  0.0980
  149DOPC   C3617825   4.499   3.960  16.772  0.0801 -0.4592  1.1736
  149DOPC   H6X17826   4.541   3.857  16.778  2.7163  0.5561  1.9473
  149DOPC   H6Y17827   4.393   3.950  16.802  0.0445  1.5069  1.8365
  149DOPC   C3717828   4.517   4.010  16.624 -0.1176  0.4389  0.4622
  149DOPC   H7X17829   4.503   4.120  16.624 -0.3436  0.4369 -1.4124
  149DOPC   H7Y17830   4.622   3.983  16.597 -0.7211  0.1505 -1.8050
  149DOPC   C3817831   4.438   3.928  16.520 -0.0632  0.3553  0.3158
  149DOPC   H8X17832   4.479   3.825  16.521  0.1006  0.3912 -1.3175
  149DOPC   H8Y17833   4.461   3.964  16.418 -0.3494  0.2664  0.2161
  149DOPC   C3917834   4.292   3.938  16.533 -0.0261 -0.4650 -0.1757
  149DOPC   H9X17835   4.251   4.035  16.499 -0.3733 -0.8080 -0.7586
  149DOPC  C31017836   4.205   3.836  16.541 -0.4485  0.3071 -0.6895
  149DOPC  H10X17837   4.100   3.868  16.549 -0.7830 -0.8965  0.0570
  149DOPC  C31117838   4.226   3.685  16.559  0.0849  0.8248  0.2960
  149DOPC  H11X17839   4.323   3.648  16.518  0.3541 -0.0657  1.6782
  149DOPC  H11Y17840   4.146   3.631  16.505  1.5585 -0.3478 -0.7843
  149DOPC  C31217841   4.213   3.618  16.701 -0.1673 -0.5795 -0.4813
  149DOPC  H12X17842   4.295   3.657  16.766 -0.5267  0.1879 -0.4743
  149DOPC  H12Y17843   4.218   3.508  16.693 -0.8680 -0.8213  1.7526
  149DOPC  C31317844   4.081   3.656  16.776  0.6912  0.6701  0.1362
  149DOPC  H13X17845   4.112   3.753  16.821  1.2009  0.8090 -0.4948
  149DOPC  H13Y17846   3.996   3.672  16.707 -0.6005 -1.0365  1.2482
  149DOPC  C31417847   4.024   3.542  16.862 -0.0771 -0.3367 -0.5910
  149DOPC  H14X17848   4.030   3.454  16.795 -1.1803 -0.0103 -1.1551
  149DOPC  H14Y17849   4.090   3.520  16.948  3.2588  0.6109 -2.6817
  149DOPC  C31517850   3.871   3.551  16.900 -0.1546 -0.0693  0.3913
  149DOPC  H15X17851   3.805   3.590  16.820 -0.1155 -1.5466 -0.3931
  149DOPC  H15Y17852   3.857   3.618  16.988 -3.2386 -0.0981  0.0486
  149DOPC  C31617853   3.817   3.414  16.938 -0.4576  0.1921 -0.3279
  149DOPC  H16X17854   3.706   3.414  16.941 -0.4711  1.5515 -0.3298
  149DOPC  H16Y17855   3.848   3.346  16.855 -0.7075 -0.1080 -0.1757
  149DOPC  C31717856   3.872   3.363  17.072 -0.3477 -0.5793  0.1231
  149DOPC  H17X17857   3.982   3.344  17.071 -0.4961 -1.5327 -0.5703
  149DOPC  H17Y17858   3.852   3.440  17.149 -1.2050  0.3421 -0.9808
  149DOPC  C31817859   3.799   3.237  17.115  0.0425 -0.4674 -0.1088
  149DOPC  H18X17860   3.848   3.173  17.191 -0.2196 -0.7165 -0.1503
  149DOPC  H18Y17861   3.698   3.264  17.153  1.1717  2.9510  0.8241
  149DOPC  H18Z17862   3.785   3.173  17.025 -0.8139  0.2602 -0.5119
  150DOPC     N17863   0.835   6.250  17.745 -0.3263 -0.4412 -0.6150
  150DOPC   C1217864   0.815   6.336  17.615 -0.1396 -0.1590 -0.8341
  150DOPC  H12A17865   0.726   6.395  17.626  0.7451  0.9139  1.1469
  150DOPC  H12B17866   0.820   6.274  17.527  1.2497  0.8890 -1.5472
  150DOPC   C1317867   0.964   6.174  17.750  0.3212 -0.0413  0.1377
  150DOPC  H13A17868   0.973   6.128  17.848  0.2887  0.2527  0.2792
  150DOPC  H13B17869   0.950   6.091  17.682 -0.9606 -0.3494  0.7465
  150DOPC  H13C17870   1.046   6.239  17.727  0.4487 -0.1612  0.2457
  150DOPC   C1417871   0.727   6.154  17.762  0.3641  0.1645 -0.5916
  150DOPC  H14A17872   0.709   6.093  17.674 -2.0270  1.1227 -0.8203
  150DOPC  H14B17873   0.739   6.095  17.851  0.6830  0.4257 -0.4613
  150DOPC  H14C17874   0.632   6.200  17.782  0.4506  0.6625 -1.2722
  150DOPC   C1517875   0.840   6.346  17.871 -0.0461  0.0276 -0.1191
  150DOPC  H15A17876   0.903   6.431  17.850 -1.1173  0.7621 -0.4251
  150DOPC  H15B17877   0.866   6.311  17.970  0.1391 -2.3861 -0.9519
  150DOPC  H15C17878   0.744   6.391  17.891 -0.1489 -0.5827  0.8135
  150DOPC   C1117879   0.928   6.441  17.588 -0.0993  0.4256  0.0726
  150DOPC  H11A17880   0.891   6.506  17.505  1.7013 -1.2898 -2.2124
  150DOPC  H11B17881   0.941   6.504  17.678 -1.0247  0.7503 -0.0111
  150DOPC     P17882   1.081   6.344  17.409 -0.2441 -0.2880 -0.0263
  150DOPC   O1317883   1.209   6.269  17.401 -0.2051  0.0674 -0.2191
  150DOPC   O1417884   1.079   6.473  17.336  0.6086  0.0393 -0.4455
  150DOPC   O1217885   1.056   6.379  17.554  0.1539  0.5731 -0.4731
  150DOPC   O1117886   0.955   6.254  17.367 -0.6190 -0.4696  0.4206
  150DOPC    C117887   0.959   6.117  17.391  0.3282  0.8704 -0.3585
  150DOPC    HA17888   0.865   6.078  17.435  0.8942  0.6100  0.6459
  150DOPC    HB17889   1.035   6.091  17.468  0.2214 -0.0882 -0.5746
  150DOPC    C217890   0.983   6.033  17.266 -0.4245  0.6368  0.5124
  150DOPC    HS17891   1.082   6.053  17.219 -0.8745 -1.5958 -1.6027
  150DOPC   O2117892   0.876   6.053  17.170 -0.6619  0.5214  0.6732
  150DOPC   C2117893   0.887   6.157  17.100  0.1965 -0.0226  0.2214
  150DOPC   O2217894   0.983   6.230  17.085 -0.2548 -0.2656 -1.2012
  150DOPC   C2217895   0.756   6.184  17.040 -0.3348  0.9449  0.0898
  150DOPC   H2R17896   0.679   6.212  17.115 -2.5068 -1.2460 -1.1585
  150DOPC   H2S17897   0.724   6.086  17.000 -0.6910  1.4878 -1.0142
  150DOPC    C317898   0.989   5.881  17.303  0.3151 -0.2945 -0.0567
  150DOPC    HX17899   0.887   5.850  17.334  0.4885  0.8426  1.8224
  150DOPC    HY17900   1.048   5.884  17.397 -1.1149  2.3712  0.8794
  150DOPC   O3117901   1.044   5.802  17.198  0.4372  0.0358 -1.3400
  150DOPC   C3117902   0.971   5.713  17.137  0.3175  0.4999  0.0001
  150DOPC   O3217903   0.855   5.684  17.159  0.4158 -0.3887 -0.8681
  150DOPC   C3217904   1.057   5.641  17.037 -0.0106  0.2933  0.3416
  150DOPC   H2X17905   1.121   5.708  16.977  1.9076 -0.9715  0.8889
  150DOPC   H2Y17906   1.123   5.572  17.094 -0.2100 -0.3981 -0.2531
  150DOPC   C2317907   0.767   6.272  16.921  0.2159 -0.0506  0.1356
  150DOPC   H3R17908   0.818   6.368  16.944 -0.2391  0.1143  0.4703
  150DOPC   H3S17909   0.674   6.297  16.867  0.4617 -0.2714 -0.3944
  150DOPC   C2417910   0.836   6.210  16.791 -0.5400  0.2588 -0.3560
  150DOPC   H4R17911   0.795   6.111  16.762  2.0256 -1.0727  0.2689
  150DOPC   H4S17912   0.941   6.189  16.822 -1.8075 -3.3758  2.1481
  150DOPC   C2517913   0.842   6.313  16.674  0.0263 -0.0068 -0.3824
  150DOPC   H5R17914   0.901   6.400  16.711 -0.4175 -0.0593  0.4831
  150DOPC   H5S17915   0.736   6.344  16.661 -0.3964  0.8255  3.6220
  150DOPC   C2617916   0.898   6.248  16.545  0.1622 -0.4458 -1.0498
  150DOPC   H6R17917   0.817   6.179  16.513 -0.7078  0.2737 -0.4335
  150DOPC   H6S17918   0.984   6.176  16.545  0.4256 -0.1322 -1.0478
  150DOPC   C2717919   0.949   6.360  16.450  0.8382  0.2960 -0.3722
  150DOPC   H7R17920   1.039   6.408  16.494  1.0527 -0.4840  0.0630
  150DOPC   H7S17921   0.866   6.434  16.448  1.5013  1.0942  0.4036
  150DOPC   C2817922   0.963   6.311  16.305  0.1431  0.6897  0.0674
  150DOPC   H8R17923   0.865   6.268  16.278  1.0611 -1.1989 -0.4499
  150DOPC   H8S17924   1.032   6.224  16.309  0.9709  1.2999 -0.6305
  150DOPC   C2917925   1.017   6.406  16.206  0.2433  0.3819 -0.7847
  150DOPC   H9R17926   1.116   6.450  16.226  0.0515  0.6866 -0.4707
  150DOPC  C21017927   0.947   6.452  16.101  0.5251 -0.0806 -0.7538
  150DOPC  H10R17928   0.983   6.539  16.045  0.7217  1.3654  1.5152
  150DOPC  C21117929   0.809   6.405  16.054 -0.1956 -0.3768  0.0204
  150DOPC  H11R17930   0.729   6.445  16.120 -0.0525 -0.4437  0.2346
  150DOPC  H11S17931   0.812   6.298  16.080  3.0179  0.4052  3.8085
  150DOPC  C21217932   0.778   6.431  15.904 -0.0558 -1.0122  0.5466
  150DOPC  H12R17933   0.807   6.535  15.876 -0.8166 -0.7729  0.6332
  150DOPC  H12S17934   0.670   6.411  15.888 -0.0319 -1.4603  0.9289
  150DOPC  C21317935   0.857   6.342  15.807 -0.0047  0.1233 -0.0292
  150DOPC  H13R17936   0.848   6.236  15.838 -0.0813 -0.0160 -0.5241
  150DOPC  H13S17937   0.967   6.360  15.816  0.1598 -1.3134  1.4176
  150DOPC  C21417938   0.828   6.368  15.659 -0.0058 -0.2457  0.8406
  150DOPC  H14R17939   0.852   6.473  15.631  0.8685 -0.2600  1.5129
  150DOPC  H14S17940   0.718   6.349  15.656  0.2254 -1.8496  1.6769
  150DOPC  C21517941   0.893   6.271  15.565  0.2104 -0.1362  0.1660
  150DOPC  H15R17942   0.838   6.176  15.577  2.5971 -1.6637 -0.1550
  150DOPC  H15S17943   0.998   6.251  15.596  1.6364  1.9138 -2.8293
  150DOPC  C21617944   0.884   6.311  15.414 -0.3847  0.2466 -0.1851
  150DOPC  H16R17945   0.935   6.233  15.354 -1.3867  1.0981 -2.2276
  150DOPC  H16S17946   0.930   6.409  15.387  1.2467 -0.6102 -0.6159
  150DOPC  C21717947   0.736   6.316  15.369  0.3469 -0.4440 -0.1848
  150DOPC  H17R17948   0.738   6.335  15.259 -2.5053 -0.9640 -0.3976
  150DOPC  H17S17949   0.682   6.403  15.409 -2.1733 -2.0259  0.0694
  150DOPC  C21817950   0.648   6.188  15.384  0.1287  0.1163  0.1142
  150DOPC  H18R17951   0.643   6.153  15.489 -1.3885  1.2568  0.4434
  150DOPC  H18S17952   0.674   6.099  15.322  0.4349 -1.8773  2.9258
  150DOPC  H18T17953   0.545   6.209  15.350  0.1017 -0.2022 -0.0050
  150DOPC   C3317954   0.984   5.550  16.938  0.5362  0.0422  0.1468
  150DOPC   H3X17955   0.906   5.484  16.983  0.9150 -1.5260 -1.4082
  150DOPC   H3Y17956   1.061   5.479  16.902 -0.1769 -1.3716  1.3181
  150DOPC   C3417957   0.935   5.622  16.804 -0.5494  0.5517  0.3341
  150DOPC   H4X17958   1.013   5.697  16.775  0.3233  0.6763  2.7472
  150DOPC   H4Y17959   0.846   5.677  16.840 -1.1060 -1.7033  2.6606
  150DOPC   C3517960   0.898   5.525  16.691  0.1768  0.6585 -0.1284
  150DOPC   H5X17961   0.814   5.464  16.729  0.8697 -0.0253  0.3453
  150DOPC   H5Y17962   0.983   5.453  16.684  1.5384  1.7597  3.2104
  150DOPC   C3617963   0.879   5.609  16.561  0.0627 -0.1323 -0.4411
  150DOPC   H6X17964   0.818   5.701  16.564  0.6968  0.3812 -2.2700
  150DOPC   H6Y17965   0.982   5.646  16.542  0.4639 -0.5343  0.8203
  150DOPC   C3717966   0.817   5.518  16.454  0.3374 -0.4217  0.2047
  150DOPC   H7X17967   0.880   5.433  16.422 -2.0241 -1.8127 -1.0549
  150DOPC   H7Y17968   0.732   5.479  16.515  0.1676 -0.3733  0.0007
  150DOPC   C3817969   0.756   5.600  16.335 -0.8668 -0.3028  0.4166
  150DOPC   H8X17970   0.675   5.666  16.373 -0.7429  0.9774 -1.3914
  150DOPC   H8Y17971   0.712   5.520  16.272 -2.0800 -0.2838  1.2095
  150DOPC   C3917972   0.862   5.675  16.247  0.8694  0.2929 -0.0170
  150DOPC   H9X17973   0.931   5.743  16.300 -1.2140  1.4167  1.4221
  150DOPC  C31017974   0.887   5.657  16.118  0.0962 -0.7430  0.0664
  150DOPC  H10X17975   0.971   5.710  16.071 -0.5302 -1.0992 -1.5293
  150DOPC  C31117976   0.824   5.559  16.024 -0.2127 -0.8140 -0.7372
  150DOPC  H11X17977   0.733   5.614  15.989  0.1013 -1.5453 -2.8273
  150DOPC  H11Y17978   0.799   5.459  16.064 -1.1071 -0.6775 -0.9127
  150DOPC  C31217979   0.908   5.554  15.898 -0.0407  0.9397  0.0800
  150DOPC  H12X17980   1.014   5.524  15.914  0.0166  0.3749 -1.2039
  150DOPC  H12Y17981   0.925   5.655  15.853  1.2963  0.5376 -0.3666
  150DOPC  C31317982   0.847   5.457  15.797  0.1870  0.6533  0.2300
  150DOPC  H13X17983   0.841   5.353  15.837 -2.4072  1.4624  2.2509
  150DOPC  H13Y17984   0.741   5.490  15.787 -0.0576  0.5335  2.0602
  150DOPC  C31417985   0.915   5.462  15.656 -0.0833 -0.3148 -0.3252
  150DOPC  H14X17986   0.904   5.566  15.618 -1.9645 -0.5653 -0.5854
  150DOPC  H14Y17987   1.021   5.430  15.647  0.1375 -0.4667  2.2491
  150DOPC  C31517988   0.848   5.371  15.553 -0.2213  0.5364 -0.4129
  150DOPC  H15X17989   0.748   5.409  15.524 -0.8334  1.2778  2.3568
  150DOPC  H15Y17990   0.839   5.264  15.580  0.9077  0.6105  0.3286
  150DOPC  C31617991   0.932   5.368  15.416 -0.4242 -0.2301  0.5220
  150DOPC  H16X17992   1.038   5.346  15.438 -0.2351 -2.3904 -1.9813
  150DOPC  H16Y17993   0.890   5.291  15.346 -1.1974  0.2073  0.4892
  150DOPC  C31717994   0.915   5.501  15.338  0.5982 -0.0944 -0.0984
  150DOPC  H17X17995   0.806   5.508  15.317 -0.8063 -2.8042  4.7729
  150DOPC  H17Y17996   0.949   5.591  15.394  0.2703 -1.0962  1.8039
  150DOPC  C31817997   1.001   5.505  15.209 -0.2717  0.3084 -0.3022
  150DOPC  H18X17998   1.109   5.484  15.227  0.0468  1.1956 -1.1196
  150DOPC  H18Y17999   0.957   5.440  15.131 -1.2884  2.2794 -1.4386
  150DOPC  H18Z18000   0.992   5.606  15.164 -0.8136  0.6028  0.4340
  151DOPC     N18001   3.572   2.090  17.587 -0.2388 -0.8444  0.9534
  151DOPC   C1218002   3.508   2.195  17.499  0.5826 -0.4862 -0.3229
  151DOPC  H12A18003   3.405   2.214  17.527 -0.0681 -1.4230 -1.9151
  151DOPC  H12B18004   3.498   2.161  17.397  0.3793 -0.0800 -0.4446
  151DOPC   C1318005   3.573   2.123  17.732 -0.3071  0.0831 -0.2843
  151DOPC  H13A18006   3.472   2.155  17.753 -0.8334 -1.3597 -0.4493
  151DOPC  H13B18007   3.614   2.040  17.788  0.4915  0.1584 -0.7471
  151DOPC  H13C18008   3.639   2.206  17.751  2.3089 -2.0299  0.4610
  151DOPC   C1418009   3.711   2.059  17.532 -0.6239  0.1435  0.1932
  151DOPC  H14A18010   3.756   1.972  17.577 -0.0399  0.8967  1.0762
  151DOPC  H14B18011   3.715   2.045  17.425  1.4434  0.1264  0.2390
  151DOPC  H14C18012   3.776   2.142  17.552 -2.6300  1.9689 -0.4174
  151DOPC   C1518013   3.492   1.959  17.564  0.7389 -0.1678  0.0563
  151DOPC  H15A18014   3.513   1.916  17.467 -0.9077  0.1586 -0.4773
  151DOPC  H15B18015   3.392   1.999  17.570  1.6003  1.9217  2.9446
  151DOPC  H15C18016   3.508   1.886  17.642  2.1978  0.1645  0.0879
  151DOPC   C1118017   3.576   2.327  17.491 -0.2078 -0.3933  0.5980
  151DOPC  H11A18018   3.511   2.393  17.430 -0.3481 -0.0644  1.0941
  151DOPC  H11B18019   3.571   2.379  17.589  1.0973 -0.2865  0.6223
  151DOPC     P18020   3.727   2.327  17.275 -0.2849  0.2410  0.1062
  151DOPC   O1318021   3.656   2.198  17.234 -0.4587 -0.3587 -0.8862
  151DOPC   O1418022   3.869   2.344  17.244  0.0326 -0.0675 -0.3193
  151DOPC   O1218023   3.711   2.321  17.432 -0.5196  0.0773 -0.4375
  151DOPC   O1118024   3.643   2.445  17.216  0.3729  0.3900 -0.0331
  151DOPC    C118025   3.670   2.584  17.263  0.2922  0.7381  0.0826
  151DOPC    HA18026   3.734   2.596  17.353  2.7444  2.5523 -1.7573
  151DOPC    HB18027   3.580   2.639  17.298  0.3879  1.1865 -0.3677
  151DOPC    C218028   3.724   2.677  17.157 -0.4508 -0.0538  0.2929
  151DOPC    HS18029   3.737   2.779  17.200  1.9469 -0.1321 -0.1118
  151DOPC   O2118030   3.638   2.669  17.047  0.2538 -0.6284 -0.0791
  151DOPC   C2118031   3.526   2.742  17.068 -0.7531  0.7405 -0.1492
  151DOPC   O2218032   3.511   2.816  17.166  0.2973 -0.5651  0.7918
  151DOPC   C2218033   3.417   2.707  16.966  0.3863  0.6045 -0.5341
  151DOPC   H2R18034   3.349   2.635  17.017  1.3089 -0.2425 -0.4746
  151DOPC   H2S18035   3.452   2.655  16.874  2.6018  1.5592 -0.2791
  151DOPC    C318036   3.861   2.633  17.104 -0.0041  0.2552 -0.5533
  151DOPC    HX18037   3.844   2.531  17.063  2.1553  0.3998 -1.9624
  151DOPC    HY18038   3.943   2.621  17.178 -0.8001  0.2515  0.3584
  151DOPC   O3118039   3.898   2.716  16.992  0.1455 -0.2044  0.3699
  151DOPC   C3118040   3.923   2.844  17.017 -0.2943  0.2330  0.4600
  151DOPC   O3218041   3.949   2.888  17.127  0.1579 -0.4826  0.0426
  151DOPC   C3218042   3.914   2.921  16.887 -0.2915 -0.5699 -0.4208
  151DOPC   H2X18043   3.949   3.022  16.917  1.0358 -1.8426  2.7263
  151DOPC   H2Y18044   3.998   2.889  16.821  1.9918 -0.3292  2.2180
  151DOPC   C2318045   3.334   2.838  16.931 -0.2105 -0.1775  1.1967
  151DOPC   H3R18046   3.291   2.865  17.030 -1.7241 -0.0479  0.5348
  151DOPC   H3S18047   3.244   2.831  16.866  1.2628 -1.5813 -0.8188
  151DOPC   C2418048   3.422   2.962  16.887  0.4889  0.1099  0.0237
  151DOPC   H4R18049   3.469   2.935  16.790  0.7366  0.3204  0.0873
  151DOPC   H4S18050   3.502   2.984  16.960  2.2507  0.6324 -1.9682
  151DOPC   C2518051   3.340   3.093  16.881 -0.5475  0.5604  0.3365
  151DOPC   H5R18052   3.317   3.117  16.986  0.5196 -1.1304  1.0073
  151DOPC   H5S18053   3.250   3.083  16.816  0.3517 -2.3861 -0.6368
  151DOPC   C2618054   3.422   3.205  16.821 -0.0827  0.6702  0.8057
  151DOPC   H6R18055   3.525   3.200  16.863  1.5781 -2.2341 -2.9537
  151DOPC   H6S18056   3.378   3.303  16.846  1.8212  1.4965  1.0778
  151DOPC   C2718057   3.445   3.193  16.672 -0.0669  0.0342  0.9727
  151DOPC   H7R18058   3.360   3.156  16.611 -1.5870  3.5250  0.7760
  151DOPC   H7S18059   3.537   3.136  16.646 -0.3242 -0.2462  0.6768
  151DOPC   C2818060   3.464   3.325  16.597 -0.4925 -0.4174 -0.2346
  151DOPC   H8R18061   3.380   3.393  16.625 -0.2831 -0.3084  0.1371
  151DOPC   H8S18062   3.445   3.297  16.491  0.1361 -0.5479 -0.3166
  151DOPC   C2918063   3.590   3.393  16.643  0.3306  0.1931 -0.1429
  151DOPC   H9R18064   3.570   3.434  16.744  2.9775  0.3782  0.3743
  151DOPC  C21018065   3.702   3.418  16.577 -0.1950 -0.7139 -0.1054
  151DOPC  H10R18066   3.782   3.480  16.620  0.1474 -1.5903  0.5456
  151DOPC  C21118067   3.722   3.378  16.435 -0.4554  0.2557  0.0139
  151DOPC  H11R18068   3.677   3.451  16.364 -0.6263 -1.8136 -2.1087
  151DOPC  H11S18069   3.675   3.283  16.404 -1.1031  0.8555 -0.9101
  151DOPC  C21218070   3.872   3.371  16.396 -0.2969 -0.0165  0.2637
  151DOPC  H12R18071   3.924   3.291  16.453 -1.5038 -0.0570  1.3394
  151DOPC  H12S18072   3.918   3.470  16.414  1.1318 -0.8006  1.0951
  151DOPC  C21318073   3.902   3.332  16.252 -0.0300 -0.3320  0.0306
  151DOPC  H13R18074   3.862   3.407  16.181 -0.3204 -1.0981 -0.6325
  151DOPC  H13S18075   3.846   3.237  16.235  0.4893 -0.3374 -1.8041
  151DOPC  C21418076   4.053   3.318  16.236 -0.1708 -0.0177 -0.0168
  151DOPC  H14R18077   4.094   3.233  16.295 -1.0274  0.6384  1.5847
  151DOPC  H14S18078   4.097   3.412  16.275 -0.1557 -0.2778  0.6127
  151DOPC  C21518079   4.098   3.319  16.092  0.5025 -0.2501  0.4177
  151DOPC  H15R18080   4.055   3.404  16.035  0.8430 -0.2464  0.1598
  151DOPC  H15S18081   4.068   3.226  16.038  3.1105  0.1003 -1.8835
  151DOPC  C21618082   4.253   3.326  16.080 -0.1697  0.0596  0.3574
  151DOPC  H16R18083   4.314   3.251  16.133  1.2028  1.4005  0.7638
  151DOPC  H16S18084   4.285   3.425  16.119 -1.1035  0.6431 -0.3091
  151DOPC  C21718085   4.295   3.318  15.936 -0.1073 -0.5988  0.2284
  151DOPC  H17R18086   4.392   3.370  15.920  0.2191 -0.3265  2.6384
  151DOPC  H17S18087   4.224   3.377  15.875 -2.0450 -0.3872  2.5287
  151DOPC  C21818088   4.303   3.175  15.879 -0.3230 -0.2315  0.2502
  151DOPC  H18R18089   4.354   3.122  15.961  0.2761 -0.5899 -0.3459
  151DOPC  H18S18090   4.372   3.184  15.793 -0.6629  0.9882  0.0799
  151DOPC  H18T18091   4.208   3.120  15.858  0.6368 -2.4728  1.4611
  151DOPC   C3318092   3.775   2.914  16.814 -0.1497 -0.7718  0.0079
  151DOPC   H3X18093   3.703   2.983  16.863 -0.6483 -0.2813 -1.3594
  151DOPC   H3Y18094   3.741   2.809  16.811 -0.1310 -0.7830  0.1899
  151DOPC   C3418095   3.790   2.973  16.668 -0.5024 -0.2969 -0.4053
  151DOPC   H4X18096   3.857   3.062  16.663  0.8488 -1.3249 -1.1025
  151DOPC   H4Y18097   3.696   3.018  16.629  0.0487  1.3055  0.0427
  151DOPC   C3518098   3.828   2.868  16.560  0.4777  0.1626 -0.6007
  151DOPC   H5X18099   3.761   2.781  16.575  0.5158  0.2551  0.2002
  151DOPC   H5Y18100   3.931   2.831  16.583  0.2109 -0.5992 -0.6104
  151DOPC   C3618101   3.820   2.912  16.410  0.2047  0.0312 -0.4600
  151DOPC   H6X18102   3.717   2.938  16.378 -1.0296 -1.9231  1.6025
  151DOPC   H6Y18103   3.883   3.002  16.396 -0.5194  0.3497 -1.8403
  151DOPC   C3718104   3.868   2.804  16.315 -0.1671 -0.0809 -0.3048
  151DOPC   H7X18105   3.971   2.773  16.342 -0.6623  0.0165  1.8758
  151DOPC   H7Y18106   3.799   2.718  16.325  1.5365 -1.2882  2.1111
  151DOPC   C3818107   3.857   2.852  16.171 -0.0997 -0.5224  0.2718
  151DOPC   H8X18108   3.757   2.897  16.159  0.5406  0.5332 -1.4034
  151DOPC   H8Y18109   3.844   2.760  16.111 -3.0090  0.1268 -0.2209
  151DOPC   C3918110   3.961   2.948  16.125 -1.0816  0.7418  0.2626
  151DOPC   H9X18111   3.963   3.041  16.183  3.3815  1.1102 -0.1509
  151DOPC  C31018112   4.070   2.932  16.035 -0.0236  1.4491 -0.0090
  151DOPC  H10X18113   4.152   3.005  16.040  2.3552 -1.0970  0.0132
  151DOPC  C31118114   4.099   2.806  15.958  0.3574  0.2145 -0.8089
  151DOPC  H11X18115   4.017   2.734  15.977 -1.6962  3.0388  2.0373
  151DOPC  H11Y18116   4.187   2.749  15.993 -1.1824 -2.0458 -0.3971
  151DOPC  C31218117   4.104   2.830  15.807  0.0072 -0.5069  0.5478
  151DOPC  H12X18118   4.197   2.890  15.792  1.2083 -2.1207  1.2548
  151DOPC  H12Y18119   4.007   2.877  15.780 -0.2106 -0.2247  1.7862
  151DOPC  C31318120   4.135   2.708  15.723 -0.0571 -0.9862  0.0545
  151DOPC  H13X18121   4.244   2.685  15.730  0.3782  1.2657  2.5525
  151DOPC  H13Y18122   4.079   2.620  15.761 -2.7227  0.0923 -1.1530
  151DOPC  C31418123   4.092   2.722  15.572 -0.0564 -0.4272  0.2748
  151DOPC  H14X18124   4.124   2.633  15.514  1.3226 -0.3465  0.8877
  151DOPC  H14Y18125   3.982   2.714  15.586 -0.1703  0.5663  0.0405
  151DOPC  C31518126   4.122   2.852  15.496  0.1170 -0.7608  0.1849
  151DOPC  H15X18127   4.230   2.878  15.497  0.1180 -0.6012 -1.3332
  151DOPC  H15Y18128   4.058   2.936  15.532  1.0868  0.6416 -1.1828
  151DOPC  C31618129   4.082   2.830  15.353 -0.1911 -0.2439  0.5444
  151DOPC  H16X18130   4.161   2.771  15.302 -0.7117  0.0815 -0.6807
  151DOPC  H16Y18131   3.986   2.776  15.365 -0.2457 -0.2148  0.2580
  151DOPC  C31718132   4.050   2.971  15.294 -0.4109 -0.2912  0.2286
  151DOPC  H17X18133   3.986   3.036  15.357 -0.1168 -0.7007  0.9610
  151DOPC  H17Y18134   4.147   3.024  15.283 -0.3424 -0.5484 -0.4167
  151DOPC  C31818135   3.985   2.978  15.155  0.2125 -0.0014  0.7668
  151DOPC  H18X18136   4.033   2.908  15.084 -3.3822 -1.2580 -0.6341
  151DOPC  H18Y18137   3.879   2.950  15.172  0.5564 -1.1686  1.0960
  151DOPC  H18Z18138   3.991   3.085  15.123  1.3888  0.5103  2.5117
  152DOPC     N18139   6.202   0.904  17.328 -0.3558 -0.5448 -0.8370
  152DOPC   C1218140   6.121   0.921  17.205 -0.8824 -0.9224  0.4100
  152DOPC  H12A18141   6.030   0.975  17.226 -0.0277  1.2966 -1.1956
  152DOPC  H12B18142   6.092   0.821  17.178 -0.0219 -0.6953 -1.5302
  152DOPC   C1318143   6.320   0.815  17.306  0.3905  0.2111 -0.7286
  152DOPC  H13A18144   6.293   0.725  17.252  0.7041 -0.3277  0.0057
  152DOPC  H13B18145   6.399   0.866  17.253 -0.5748  1.6664 -0.8188
  152DOPC  H13C18146   6.362   0.794  17.403 -1.6610  0.6765  0.3245
  152DOPC   C1418147   6.123   0.841  17.440 -0.0573 -0.2449  0.0153
  152DOPC  H14A18148   6.091   0.740  17.418  0.5699 -0.5762  0.5694
  152DOPC  H14B18149   6.187   0.827  17.526  1.3456  0.7425 -0.8287
  152DOPC  H14C18150   6.042   0.906  17.468  0.4768  0.3612  0.1759
  152DOPC   C1518151   6.249   1.042  17.362  0.4712  0.2340  0.6048
  152DOPC  H15A18152   6.309   1.032  17.452  0.5254 -0.4126  0.5067
  152DOPC  H15B18153   6.174   1.110  17.397  0.9614  0.5385  1.0874
  152DOPC  H15C18154   6.303   1.081  17.277 -0.8008 -0.0264 -0.3382
  152DOPC   C1118155   6.173   0.992  17.074 -0.2711  0.3473  0.2908
  152DOPC  H11A18156   6.282   0.981  17.055 -0.1589  1.1860  0.4045
  152DOPC  H11B18157   6.123   0.936  16.992  1.2636 -2.3762  1.0703
  152DOPC     P18158   6.010   1.196  17.057 -0.1252 -0.0365  0.1807
  152DOPC   O1318159   6.019   1.338  17.022 -0.3372 -0.2447 -0.1308
  152DOPC   O1418160   5.934   1.160  17.177  0.1638 -0.2329 -0.0546
  152DOPC   O1218161   6.151   1.129  17.076  0.4236  0.0807  0.3782
  152DOPC   O1118162   5.955   1.118  16.927  0.2912  0.1515 -0.5072
  152DOPC    C118163   6.013   1.127  16.801 -0.1577 -0.2315 -0.0843
  152DOPC    HA18164   6.047   1.026  16.771 -1.0625 -0.6938  0.3838
  152DOPC    HB18165   6.112   1.178  16.795  0.2165 -0.9281  0.0937
  152DOPC    C218166   5.916   1.194  16.700  0.6459  0.2912  0.7740
  152DOPC    HS18167   5.824   1.133  16.714  0.4650  0.2037 -0.6942
  152DOPC   O2118168   5.965   1.181  16.566  0.5632  0.5475  0.2122
  152DOPC   C2118169   5.878   1.178  16.469 -0.3987  0.6684 -0.1998
  152DOPC   O2218170   5.758   1.148  16.476  0.2531  0.0746  0.3279
  152DOPC   C2218171   5.948   1.238  16.344  0.1084  0.1001  0.7038
  152DOPC   H2R18172   6.054   1.202  16.347  0.3223  0.7743  1.5092
  152DOPC   H2S18173   5.959   1.346  16.364 -0.0991  0.2345  0.1077
  152DOPC    C318174   5.898   1.342  16.733  0.2646 -0.2074 -0.1060
  152DOPC    HX18175   5.985   1.405  16.761  0.5528 -0.7892  0.3326
  152DOPC    HY18176   5.843   1.333  16.830 -0.2111 -2.2544 -0.5134
  152DOPC   O3118177   5.825   1.410  16.625  0.4555  0.2952  0.1403
  152DOPC   C3118178   5.758   1.515  16.663 -0.1772  0.5793  0.2135
  152DOPC   O3218179   5.760   1.564  16.776  0.1780  0.4572 -0.3343
  152DOPC   C3218180   5.676   1.567  16.540 -0.1551  0.3969 -0.0636
  152DOPC   H2X18181   5.748   1.610  16.467  0.0447 -1.1640 -0.8182
  152DOPC   H2Y18182   5.622   1.479  16.499 -1.4737  2.1682 -2.3626
  152DOPC   C2318183   5.885   1.213  16.211  0.4151 -0.4236 -0.1192
  152DOPC   H3R18184   5.774   1.224  16.208  0.4538  1.3274  2.1699
  152DOPC   H3S18185   5.905   1.107  16.183  0.8188 -0.3562 -0.0938
  152DOPC   C2418186   5.941   1.304  16.102 -0.6323 -0.1826 -0.4884
  152DOPC   H4R18187   6.051   1.305  16.090 -0.7401  0.4439 -1.6628
  152DOPC   H4S18188   5.911   1.409  16.126  1.8366  0.2652  0.8905
  152DOPC   C2518189   5.877   1.276  15.967 -0.5790  0.3721 -0.3997
  152DOPC   H5R18190   5.768   1.297  15.972 -1.3674 -3.2576  1.0223
  152DOPC   H5S18191   5.881   1.171  15.930  0.2443  0.8147 -1.6448
  152DOPC   C2618192   5.932   1.359  15.850 -0.2919 -0.1733 -0.0375
  152DOPC   H6R18193   6.043   1.364  15.848 -0.3349  2.4670  0.5706
  152DOPC   H6S18194   5.884   1.459  15.858  0.1980 -0.0241  1.1968
  152DOPC   C2718195   5.888   1.298  15.718  0.0956 -0.6486 -0.2277
  152DOPC   H7R18196   5.778   1.291  15.705  0.1116  0.0140 -0.7533
  152DOPC   H7S18197   5.928   1.194  15.717 -2.0571 -1.5152 -0.5976
  152DOPC   C2818198   5.949   1.372  15.596 -0.6114 -0.1030 -0.3468
  152DOPC   H8R18199   6.059   1.372  15.611 -0.6034  0.2458 -0.4076
  152DOPC   H8S18200   5.908   1.475  15.587 -0.1236 -0.0214 -2.1964
  152DOPC   C2918201   5.906   1.299  15.471 -0.1067  0.5161  0.0279
  152DOPC   H9R18202   5.878   1.193  15.472  2.8298 -0.3760  2.0205
  152DOPC  C21018203   5.919   1.350  15.348 -0.1541  0.4447  0.5073
  152DOPC  H10R18204   5.895   1.285  15.262 -1.4941  0.4696  0.8330
  152DOPC  C21118205   5.963   1.487  15.308 -0.1821 -0.2299 -0.4465
  152DOPC  H11R18206   6.025   1.543  15.381  1.6544 -0.7916 -1.4959
  152DOPC  H11S18207   5.874   1.551  15.288  0.0971  1.1274  2.1326
  152DOPC  C21218208   6.037   1.489  15.178 -0.0599 -0.5373 -0.0714
  152DOPC  H12R18209   5.964   1.449  15.104  0.3157  0.2755 -0.9202
  152DOPC  H12S18210   6.126   1.424  15.192  0.5439  0.4598  0.8856
  152DOPC  C21318211   6.084   1.626  15.140 -0.6895  0.4043  0.1515
  152DOPC  H13R18212   6.116   1.677  15.234  0.5621  0.6277 -0.3775
  152DOPC  H13S18213   6.003   1.678  15.085 -0.1821 -0.7422 -1.7785
  152DOPC  C21418214   6.209   1.626  15.049  0.0144 -0.2631  0.4881
  152DOPC  H14R18215   6.165   1.579  14.959 -1.5062  0.1059  1.0096
  152DOPC  H14S18216   6.299   1.571  15.085  0.9912  1.7120  1.1795
  152DOPC  C21518217   6.240   1.768  14.992 -0.0487  0.3205 -0.3949
  152DOPC  H15R18218   6.293   1.826  15.071 -1.5638 -0.5427  1.3101
  152DOPC  H15S18219   6.143   1.821  14.983 -0.1942  0.2071  0.4584
  152DOPC  C21618220   6.311   1.770  14.857 -0.3961 -0.0956 -0.1226
  152DOPC  H16R18221   6.243   1.716  14.788  0.5005 -0.5256 -0.6862
  152DOPC  H16S18222   6.406   1.716  14.873  0.7533  1.9571  0.3972
  152DOPC  C21718223   6.338   1.911  14.802 -0.0529 -0.6319  0.4694
  152DOPC  H17R18224   6.396   1.974  14.874  0.6915  0.8569 -1.3517
  152DOPC  H17S18225   6.243   1.966  14.785  0.4869  0.2078  0.0984
  152DOPC  C21818226   6.423   1.895  14.685 -0.2191  0.5354 -0.1273
  152DOPC  H18R18227   6.457   1.995  14.650  0.9270  0.0924 -0.3241
  152DOPC  H18S18228   6.377   1.836  14.602 -1.0338  0.3683  0.4329
  152DOPC  H18T18229   6.522   1.852  14.713  0.7930  2.1929 -1.0336
  152DOPC   C3318230   5.576   1.686  16.589 -0.9366  0.1428 -0.4916
  152DOPC   H3X18231   5.637   1.778  16.598  1.8385 -1.5539 -0.7498
  152DOPC   H3Y18232   5.545   1.654  16.690  1.4541 -0.3020  0.1658
  152DOPC   C3418233   5.459   1.725  16.508  0.1797  0.6404  0.6456
  152DOPC   H4X18234   5.486   1.717  16.400 -3.3413  1.9280 -0.4807
  152DOPC   H4Y18235   5.418   1.828  16.517  0.6863  0.9667 -0.5638
  152DOPC   C3518236   5.334   1.628  16.535 -0.1230 -0.3336  0.0589
  152DOPC   H5X18237   5.299   1.653  16.638  1.4834 -0.6260  0.7059
  152DOPC   H5Y18238   5.364   1.522  16.526 -0.3703 -0.4523  0.6088
  152DOPC   C3618239   5.230   1.651  16.423  0.8577  0.1575 -0.0343
  152DOPC   H6X18240   5.180   1.749  16.437  0.2068 -0.2900  0.8525
  152DOPC   H6Y18241   5.281   1.658  16.325  0.4839  0.8481 -0.1882
  152DOPC   C3718242   5.115   1.547  16.440  0.5040  1.0993 -0.2332
  152DOPC   H7X18243   5.156   1.445  16.452  0.1943  1.1174  1.1826
  152DOPC   H7Y18244   5.068   1.579  16.535  1.6130  0.5508  0.5148
  152DOPC   C3818245   5.002   1.559  16.336 -0.8042  0.2641 -0.7511
  152DOPC   H8X18246   4.994   1.668  16.321  0.1672  0.6456  1.2536
  152DOPC   H8Y18247   4.902   1.523  16.369 -1.0234 -1.1956 -2.7475
  152DOPC   C3918248   5.039   1.485  16.214  0.2476 -0.6455  0.4526
  152DOPC   H9X18249   5.040   1.375  16.225 -2.4757 -0.7226  0.7491
  152DOPC  C31018250   5.042   1.533  16.085  0.2475  0.1772  0.1409
  152DOPC  H10X18251   5.094   1.476  16.006  0.4994  2.2996 -1.3168
  152DOPC  C31118252   5.029   1.680  16.056  0.4791  1.1855  0.0746
  152DOPC  H11X18253   5.080   1.737  16.137  0.4206 -0.4649  1.3162
  152DOPC  H11Y18254   4.922   1.711  16.057  0.1587  0.0951  1.2361
  152DOPC  C31218255   5.104   1.717  15.928  0.3112  0.1502 -0.0816
  152DOPC  H12X18256   5.209   1.681  15.934  0.8739  1.3764 -1.8375
  152DOPC  H12Y18257   5.113   1.827  15.933  0.5729  0.1221  0.0938
  152DOPC  C31318258   5.040   1.658  15.800 -0.2621 -0.3669 -0.4218
  152DOPC  H13X18259   5.060   1.550  15.785 -0.5203 -0.2291 -1.9884
  152DOPC  H13Y18260   4.932   1.680  15.807 -0.0778  1.9280 -2.8328
  152DOPC  C31418261   5.097   1.722  15.673  0.0651 -0.3254 -0.4370
  152DOPC  H14X18262   5.082   1.832  15.666 -2.2462 -0.6979 -2.3392
  152DOPC  H14Y18263   5.206   1.702  15.682 -0.4495 -3.1901  0.5867
  152DOPC  C31518264   5.034   1.648  15.555  0.2496 -0.3073  0.0167
  152DOPC  H15X18265   4.932   1.692  15.551  0.4222  0.0183 -0.9122
  152DOPC  H15Y18266   5.026   1.538  15.566  0.0031 -0.2525  0.4042
  152DOPC  C31618267   5.088   1.692  15.414  0.2211 -0.4096  0.5941
  152DOPC  H16X18268   5.076   1.801  15.397 -0.0416 -0.5858 -0.4458
  152DOPC  H16Y18269   5.196   1.670  15.403  0.5111  0.2579  1.8903
  152DOPC  C31718270   5.005   1.617  15.305  0.2059  0.1279  0.0706
  152DOPC  H17X18271   5.039   1.512  15.303  3.8851  1.1594  0.6501
  152DOPC  H17Y18272   4.897   1.618  15.332 -0.0021 -3.2670 -0.2597
  152DOPC  C31818273   5.036   1.676  15.167 -0.1469  0.3285 -0.3142
  152DOPC  H18X18274   5.147   1.684  15.159 -0.0109  1.2200  1.6718
  152DOPC  H18Y18275   4.988   1.614  15.088 -2.4766 -1.8658  2.5972
  152DOPC  H18Z18276   5.004   1.782  15.161  0.1824  0.4154 -0.5833
  153DOPC     N18277   0.549   1.242  17.167 -0.3513  0.2945 -0.6564
  153DOPC   C1218278   0.619   1.371  17.148  0.9723 -0.1917 -0.5078
  153DOPC  H12A18279   0.714   1.376  17.198  0.4705 -1.3700  0.6084
  153DOPC  H12B18280   0.556   1.442  17.199  0.1641 -1.3844  0.2083
  153DOPC   C1318281   0.428   1.220  17.084  0.0902 -0.2937  0.0428
  153DOPC  H13A18282   0.448   1.224  16.978 -1.3851 -1.9398 -0.3551
  153DOPC  H13B18283   0.385   1.122  17.100  1.1684 -0.9805 -1.0740
  153DOPC  H13C18284   0.364   1.303  17.107 -0.4161 -0.0018 -2.2340
  153DOPC   C1418285   0.515   1.214  17.315  0.1626 -0.3139 -0.6190
  153DOPC  H14A18286   0.596   1.244  17.379 -0.2691  4.0343 -1.8390
  153DOPC  H14B18287   0.434   1.279  17.344  0.7706 -0.2935  1.0812
  153DOPC  H14C18288   0.486   1.111  17.334 -0.7742  0.2870  1.4315
  153DOPC   C1518289   0.645   1.124  17.128  0.8658 -0.7830  0.5428
  153DOPC  H15A18290   0.715   1.096  17.205  2.4945 -1.8155 -1.2156
  153DOPC  H15B18291   0.704   1.168  17.049  1.0995  1.4091  1.8662
  153DOPC  H15C18292   0.586   1.037  17.104  1.4536 -1.2990  0.9336
  153DOPC   C1118293   0.630   1.423  17.004 -0.0403 -0.6281 -0.1644
  153DOPC  H11A18294   0.532   1.414  16.953  0.5330 -3.5770 -0.9073
  153DOPC  H11B18295   0.647   1.533  17.012  0.3602 -0.6967 -0.0314
  153DOPC     P18296   0.875   1.419  16.912 -0.1009  0.2358 -0.4248
  153DOPC   O1318297   0.939   1.352  16.795  0.1025 -0.0053 -0.3165
  153DOPC   O1418298   0.947   1.407  17.038 -0.1959  0.2175  0.1487
  153DOPC   O1218299   0.729   1.364  16.929 -0.3770  1.0685  0.5794
  153DOPC   O1118300   0.852   1.572  16.892 -0.3294 -0.2829  0.3371
  153DOPC    C118301   0.775   1.621  16.785 -0.7836 -0.0444 -0.3771
  153DOPC    HA18302   0.769   1.731  16.801 -0.0420  0.2833 -2.1042
  153DOPC    HB18303   0.666   1.603  16.781 -0.8323  0.1985 -0.1216
  153DOPC    C218304   0.837   1.588  16.644 -0.3256 -1.0396  0.2706
  153DOPC    HS18305   0.854   1.479  16.630 -0.2055 -0.7508 -2.2943
  153DOPC   O2118306   0.955   1.674  16.631  0.3063 -0.3787 -0.1402
  153DOPC   C2118307   1.051   1.637  16.545 -0.1663  0.2908 -0.2575
  153DOPC   O2218308   1.061   1.527  16.494 -0.2267  0.4782 -0.5044
  153DOPC   C2218309   1.164   1.741  16.541  0.2650 -0.1332  0.2633
  153DOPC   H2R18310   1.248   1.671  16.563  0.3359  0.3035  1.4836
  153DOPC   H2S18311   1.158   1.804  16.633  0.1209 -1.2570  1.0509
  153DOPC    C318312   0.735   1.630  16.526 -0.2919 -0.5008 -0.3708
  153DOPC    HX18313   0.702   1.735  16.544  2.0699 -0.0233  1.6787
  153DOPC    HY18314   0.644   1.567  16.536 -0.0598 -0.6190  1.1955
  153DOPC   O3118315   0.782   1.626  16.393  0.3371 -0.2015  0.3458
  153DOPC   C3118316   0.801   1.503  16.343 -0.4008 -0.3811 -0.0808
  153DOPC   O3218317   0.789   1.401  16.409 -0.2027 -0.2722  0.2595
  153DOPC   C3218318   0.825   1.524  16.195 -0.6587  0.1307  0.2631
  153DOPC   H2X18319   0.844   1.629  16.163 -0.1614  0.3687  1.3206
  153DOPC   H2Y18320   0.923   1.478  16.168 -0.7524 -0.4358  0.8595
  153DOPC   C2318321   1.181   1.822  16.410 -0.1356 -0.2186  0.0811
  153DOPC   H3R18322   1.212   1.748  16.333 -0.3281 -1.5393  1.2265
  153DOPC   H3S18323   1.271   1.888  16.417 -0.5733  0.4537 -0.5250
  153DOPC   C2418324   1.060   1.889  16.357 -0.2399 -0.1338  0.0694
  153DOPC   H4R18325   1.006   1.956  16.427 -2.5193 -0.6028 -1.1406
  153DOPC   H4S18326   0.990   1.806  16.334 -2.8237  1.6532  0.9993
  153DOPC   C2518327   1.090   1.983  16.234  0.5822 -0.5128 -0.4484
  153DOPC   H5R18328   1.158   2.062  16.273  1.2750 -1.2179 -0.2126
  153DOPC   H5S18329   0.999   2.036  16.199 -0.1805 -1.7578 -0.4091
  153DOPC   C2618330   1.147   1.912  16.109 -0.3224 -0.6836 -1.1294
  153DOPC   H6R18331   1.229   1.849  16.148  0.3432 -1.4512 -3.5704
  153DOPC   H6S18332   1.184   1.987  16.035  0.0121 -1.0173 -1.3042
  153DOPC   C2718333   1.051   1.810  16.042 -0.1988  0.0081  0.7607
  153DOPC   H7R18334   0.954   1.864  16.049 -0.3805 -0.2570  0.3172
  153DOPC   H7S18335   1.040   1.721  16.108 -1.6976 -0.2803  0.1805
  153DOPC   C2818336   1.078   1.748  15.897 -0.4940 -0.5899 -0.6760
  153DOPC   H8R18337   1.065   1.838  15.833 -3.3888 -1.7487 -1.8971
  153DOPC   H8S18338   1.003   1.671  15.868 -1.7594  0.3336  0.0200
  153DOPC   C2918339   1.220   1.705  15.870  0.6292  0.2043  0.8804
  153DOPC   H9R18340   1.288   1.690  15.956  2.7663  0.4733 -0.6705
  153DOPC  C21018341   1.271   1.687  15.746  0.4080  0.5685  0.2197
  153DOPC  H10R18342   1.378   1.662  15.746  0.8359  2.1320  2.0905
  153DOPC  C21118343   1.196   1.695  15.614  0.0039 -0.7889  0.3370
  153DOPC  H11R18344   1.245   1.768  15.546 -0.5362 -2.1778 -1.6212
  153DOPC  H11S18345   1.096   1.738  15.637  0.8224  1.2084  0.3829
  153DOPC  C21218346   1.202   1.559  15.548 -0.5197  0.4790 -0.1617
  153DOPC  H12R18347   1.147   1.488  15.613 -0.5728 -0.1420 -0.8759
  153DOPC  H12S18348   1.306   1.522  15.539 -0.4402 -0.0218  2.1215
  153DOPC  C21318349   1.144   1.558  15.410  0.8354 -0.5113  0.8354
  153DOPC  H13R18350   1.035   1.580  15.410  0.9191 -0.0675  0.2862
  153DOPC  H13S18351   1.154   1.451  15.382  1.8211 -0.2242  0.0207
  153DOPC  C21418352   1.213   1.645  15.305 -0.0863  0.1252 -0.0473
  153DOPC  H14R18353   1.313   1.680  15.339  1.6253 -2.3669 -2.1773
  153DOPC  H14S18354   1.150   1.735  15.287 -1.5121 -0.6796  0.7250
  153DOPC  C21518355   1.232   1.559  15.176 -0.2429  0.2941 -0.0731
  153DOPC  H15R18356   1.290   1.472  15.212 -0.9841 -0.3008 -0.2921
  153DOPC  H15S18357   1.306   1.607  15.108  1.2466 -1.2720  0.3576
  153DOPC  C21618358   1.107   1.510  15.101  0.0903 -0.0600 -0.6574
  153DOPC  H16R18359   1.072   1.598  15.043 -2.3932 -0.6233 -0.1265
  153DOPC  H16S18360   1.027   1.480  15.173 -0.3943  1.9393 -0.2928
  153DOPC  C21718361   1.133   1.409  14.991  0.2980  0.4323  0.0951
  153DOPC  H17R18362   1.205   1.456  14.921  0.4638 -1.1976 -0.8974
  153DOPC  H17S18363   1.044   1.399  14.924  1.2594 -1.4350 -0.9914
  153DOPC  C21818364   1.168   1.266  15.022  0.0617  0.0367 -0.1418
  153DOPC  H18R18365   1.250   1.252  15.096 -1.1413  0.2391  1.2898
  153DOPC  H18S18366   1.182   1.203  14.932 -2.1726 -3.5747  1.7776
  153DOPC  H18T18367   1.085   1.225  15.084 -0.5696  1.6075  0.0895
  153DOPC   C3318368   0.715   1.472  16.110 -0.2262  0.2637 -0.4136
  153DOPC   H3X18369   0.615   1.519  16.121 -0.8583 -1.1579  0.1775
  153DOPC   H3Y18370   0.707   1.362  16.123 -2.8659  0.3892 -0.5242
  153DOPC   C3418371   0.754   1.501  15.969 -0.5248 -0.4701  0.6136
  153DOPC   H4X18372   0.843   1.440  15.941 -1.3915 -0.9020 -1.3794
  153DOPC   H4Y18373   0.775   1.608  15.949 -0.0281 -1.0405 -2.5238
  153DOPC   C3518374   0.653   1.464  15.855  0.5413  0.0921 -0.2185
  153DOPC   H5X18375   0.571   1.537  15.871  2.0371  1.7396  0.2560
  153DOPC   H5Y18376   0.615   1.360  15.864  0.3464  0.1066 -0.8719
  153DOPC   C3618377   0.689   1.477  15.701  0.0807 -0.6835  0.2506
  153DOPC   H6X18378   0.757   1.562  15.678  0.0883 -0.9872 -0.8797
  153DOPC   H6Y18379   0.742   1.386  15.667  0.6692 -0.0694 -0.5238
  153DOPC   C3718380   0.569   1.487  15.613 -0.3585  0.8474 -0.9132
  153DOPC   H7X18381   0.504   1.401  15.642  2.9181 -1.6187 -0.3208
  153DOPC   H7Y18382   0.514   1.581  15.635 -2.0958  0.0906 -1.8137
  153DOPC   C3818383   0.604   1.473  15.459 -0.0330  0.2572  0.2145
  153DOPC   H8X18384   0.644   1.371  15.444 -1.5101 -0.4008  0.6702
  153DOPC   H8Y18385   0.680   1.552  15.438  0.4936 -0.6623 -1.5743
  153DOPC   C3918386   0.485   1.492  15.372 -0.0706 -0.2628 -0.9268
  153DOPC   H9X18387   0.419   1.576  15.399  0.2287  0.3182 -1.9416
  153DOPC  C31018388   0.466   1.438  15.255  0.1140  0.2846  0.1885
  153DOPC  H10X18389   0.380   1.468  15.193  0.7891  1.9320  0.0004
  153DOPC  C31118390   0.550   1.338  15.190  0.0792  0.8307 -0.2232
  153DOPC  H11X18391   0.487   1.275  15.124 -0.9033  1.0936  0.4424
  153DOPC  H11Y18392   0.606   1.271  15.259 -2.6803  1.1425  2.5588
  153DOPC  C31218393   0.644   1.408  15.090  0.4010  0.1032 -0.1032
  153DOPC  H12X18394   0.711   1.479  15.142  2.1513 -1.4083 -0.2072
  153DOPC  H12Y18395   0.583   1.476  15.025  1.3174  2.2111  1.1582
  153DOPC  C31318396   0.723   1.321  14.997 -0.3061 -0.5322 -0.4677
  153DOPC  H13X18397   0.825   1.308  15.040 -0.2851 -0.4949 -0.5050
  153DOPC  H13Y18398   0.685   1.217  14.997 -2.0060  0.0553  0.6821
  153DOPC  C31418399   0.737   1.378  14.859  0.0479 -0.0884  0.3065
  153DOPC  H14X18400   0.642   1.405  14.809  1.3028  3.2995 -0.5690
  153DOPC  H14Y18401   0.790   1.476  14.859 -0.6184  0.2902  1.4736
  153DOPC  C31518402   0.818   1.289  14.762  0.2441  0.0431  0.7118
  153DOPC  H15X18403   0.754   1.220  14.703 -0.1688 -0.3532  1.5989
  153DOPC  H15Y18404   0.887   1.219  14.814  1.0235  1.4667  1.6533
  153DOPC  C31618405   0.891   1.377  14.660  0.7303 -0.6930  0.2935
  153DOPC  H16X18406   0.820   1.447  14.610  1.2794 -0.7878 -0.6540
  153DOPC  H16Y18407   0.972   1.438  14.705  0.5275 -0.1354 -0.0800
  153DOPC  C31718408   0.950   1.288  14.554  0.3793 -0.5077 -0.2272
  153DOPC  H17X18409   0.872   1.228  14.501 -2.2518  1.0698  1.6105
  153DOPC  H17Y18410   0.987   1.354  14.473  1.1046 -1.5203 -0.7510
  153DOPC  C31818411   1.070   1.203  14.592 -0.0795 -0.6540  0.2719
  153DOPC  H18X18412   1.039   1.151  14.685 -0.8518 -0.2986  0.2255
  153DOPC  H18Y18413   1.083   1.122  14.517  1.1239 -0.4375  0.2260
  153DOPC  H18Z18414   1.171   1.249  14.603 -0.2353  0.1403 -1.2844
  154DOPC     N18415   1.572   4.260  18.062 -0.3695  0.1668 -0.1121
  154DOPC   C1218416   1.679   4.299  17.960  0.5868 -0.0365  0.1935
  154DOPC  H12A18417   1.773   4.248  17.976  1.1442  0.4293 -1.4682
  154DOPC  H12B18418   1.698   4.405  17.972  2.3182 -0.2517 -0.2708
  154DOPC   C1318419   1.557   4.117  18.071  0.0334 -0.5267  0.2199
  154DOPC  H13A18420   1.509   4.079  17.982  1.0610 -1.5418  0.0784
  154DOPC  H13B18421   1.654   4.071  18.079  0.0403 -0.3736  1.0279
  154DOPC  H13C18422   1.500   4.088  18.158 -0.3708 -0.6610 -0.0867
  154DOPC   C1418423   1.443   4.327  18.029 -1.0050  0.0569 -0.3054
  154DOPC  H14A18424   1.368   4.307  18.105 -2.7720 -0.6714 -2.1409
  154DOPC  H14B18425   1.443   4.434  18.035 -0.3490 -0.0029  1.0990
  154DOPC  H14C18426   1.403   4.299  17.932 -2.0096 -3.3012  0.9217
  154DOPC   C1518427   1.621   4.307  18.191 -0.1866 -0.3333 -0.8768
  154DOPC  H15A18428   1.638   4.414  18.190  0.5276 -0.3744  1.7094
  154DOPC  H15B18429   1.713   4.263  18.224 -1.0762 -1.4867  0.1229
  154DOPC  H15C18430   1.548   4.278  18.264  2.4870 -2.5934  1.1083
  154DOPC   C1118431   1.666   4.275  17.803 -0.1293 -0.6462 -0.2546
  154DOPC  H11A18432   1.566   4.303  17.765 -0.7798 -2.8364 -0.3166
  154DOPC  H11B18433   1.754   4.324  17.757  1.3896 -0.3283  2.7584
  154DOPC     P18434   1.581   4.029  17.730 -0.1846  0.2437  0.6237
  154DOPC   O1318435   1.440   4.083  17.721 -0.6636 -0.3953 -0.5497
  154DOPC   O1418436   1.604   3.917  17.821  0.1140  0.2655  0.0996
  154DOPC   O1218437   1.685   4.139  17.778  0.6225  0.0081 -0.1568
  154DOPC   O1118438   1.622   3.995  17.581 -0.3377 -0.2799 -0.3716
  154DOPC    C118439   1.757   3.967  17.538  0.3521 -0.0749 -0.6173
  154DOPC    HA18440   1.763   3.864  17.496 -1.4826 -0.2832 -0.4708
  154DOPC    HB18441   1.827   3.970  17.624 -0.8652  1.0346  0.3870
  154DOPC    C218442   1.799   4.069  17.434  0.0973  0.0343  0.1303
  154DOPC    HS18443   1.703   4.114  17.400 -1.1425 -1.8370  0.9469
  154DOPC   O2118444   1.879   4.019  17.328  0.0929 -0.1140  0.4402
  154DOPC   C2118445   1.816   3.968  17.221 -0.4079 -0.1906 -0.2689
  154DOPC   O2218446   1.698   3.937  17.214 -0.5356 -0.8911 -0.3424
  154DOPC   C2218447   1.913   3.991  17.101 -0.2919  0.0696  0.0462
  154DOPC   H2R18448   1.974   3.898  17.099  3.0804  2.0981  0.8428
  154DOPC   H2S18449   1.978   4.079  17.122  0.5195 -0.4836 -0.0675
  154DOPC    C318450   1.881   4.183  17.502 -0.0651  0.2224 -0.1279
  154DOPC    HX18451   1.979   4.151  17.544  0.0306 -0.0420 -0.5463
  154DOPC    HY18452   1.814   4.218  17.584 -1.5463  0.2649 -1.2994
  154DOPC   O3118453   1.895   4.290  17.402  0.4470  0.1540  0.8498
  154DOPC   C3118454   2.015   4.292  17.347  0.8900 -0.3239  0.3887
  154DOPC   O3218455   2.109   4.211  17.359 -0.0404 -0.6283 -0.2809
  154DOPC   C3218456   2.024   4.404  17.243  0.2160  0.2192  0.6238
  154DOPC   H2X18457   1.944   4.479  17.261  0.5310  0.4637  1.0265
  154DOPC   H2Y18458   2.117   4.463  17.260 -1.0101  2.3408  0.2617
  154DOPC   C2318459   1.841   4.018  16.960  0.1995  0.2463 -0.4266
  154DOPC   H3R18460   1.767   4.098  16.980 -0.4923 -0.7841  1.3584
  154DOPC   H3S18461   1.767   3.940  16.933  1.3030 -0.8061 -0.5039
  154DOPC   C2418462   1.926   4.063  16.839  0.8327  0.0114 -0.6932
  154DOPC   H4R18463   2.007   3.989  16.826 -0.7460 -1.9811  0.3072
  154DOPC   H4S18464   1.949   4.169  16.864  1.1518 -0.7877  2.9744
  154DOPC   C2518465   1.841   4.050  16.713  0.3610 -0.5684  0.2302
  154DOPC   H5R18466   1.739   4.084  16.740  1.2753  1.0996  1.8741
  154DOPC   H5S18467   1.812   3.944  16.696 -0.6197 -0.5333  1.5838
  154DOPC   C2618468   1.888   4.117  16.580  0.3809  0.8336 -0.6677
  154DOPC   H6R18469   1.986   4.071  16.552 -0.2933 -1.5352  0.6101
  154DOPC   H6S18470   1.912   4.223  16.602  0.0285  1.4967 -3.1172
  154DOPC   C2718471   1.785   4.104  16.471 -0.3520 -0.3154  0.2189
  154DOPC   H7R18472   1.689   4.152  16.500  0.2568  0.4034  1.0577
  154DOPC   H7S18473   1.761   3.997  16.452 -0.1707 -0.3775  0.3397
  154DOPC   C2818474   1.823   4.159  16.336  0.1770 -0.1801  0.9395
  154DOPC   H8R18475   1.894   4.242  16.357 -0.2352  0.8989 -1.5892
  154DOPC   H8S18476   1.732   4.191  16.280  1.9910  1.5253 -1.2055
  154DOPC   C2918477   1.886   4.066  16.234 -0.1646 -0.0547 -0.3672
  154DOPC   H9R18478   1.985   4.033  16.269 -0.4667  0.3734  0.9658
  154DOPC  C21018479   1.834   4.026  16.115 -0.4028 -0.4696 -0.0544
  154DOPC  H10R18480   1.895   3.958  16.054 -2.9318 -0.2202 -3.1727
  154DOPC  C21118481   1.706   4.065  16.043 -0.1057 -0.0960  0.4115
  154DOPC  H11R18482   1.640   4.120  16.114  1.7530 -0.2161  2.3479
  154DOPC  H11S18483   1.650   3.970  16.026  1.8091 -0.9962 -1.1999
  154DOPC  C21218484   1.727   4.151  15.910  0.2735 -0.5986  0.1174
  154DOPC  H12R18485   1.767   4.252  15.934 -0.7325 -0.4833  1.4625
  154DOPC  H12S18486   1.628   4.175  15.866 -0.7424 -0.5503  2.2972
  154DOPC  C21318487   1.826   4.082  15.813 -0.4666 -0.3755  0.3491
  154DOPC  H13R18488   1.800   3.974  15.803  0.7110 -0.6618  0.2545
  154DOPC  H13S18489   1.932   4.084  15.846 -0.1239  1.2550 -0.7548
  154DOPC  C21418490   1.819   4.147  15.675 -0.1135 -0.2303 -0.1368
  154DOPC  H14R18491   1.854   4.252  15.680  1.2134 -0.6805  0.5349
  154DOPC  H14S18492   1.716   4.158  15.634  0.1512 -1.4868 -1.2220
  154DOPC  C21518493   1.904   4.080  15.558 -0.4079 -0.2950 -0.1807
  154DOPC  H15R18494   1.857   3.979  15.550 -0.0999 -0.4463 -0.0725
  154DOPC  H15S18495   2.004   4.061  15.601 -0.2000 -0.2907 -0.6608
  154DOPC  C21618496   1.913   4.158  15.427  0.0114  0.0603 -0.1521
  154DOPC  H16R18497   1.938   4.262  15.459 -1.4831  0.4406 -0.1579
  154DOPC  H16S18498   1.816   4.155  15.373  0.2689 -2.0507 -0.5572
  154DOPC  C21718499   2.018   4.103  15.331  0.3744  0.5110 -0.3883
  154DOPC  H17R18500   1.987   4.011  15.277 -0.5917 -0.0721  1.0917
  154DOPC  H17S18501   2.101   4.053  15.385  0.2287 -0.6206 -1.1621
  154DOPC  C21818502   2.066   4.203  15.231  0.2485  0.1408 -0.2542
  154DOPC  H18R18503   2.145   4.158  15.166  1.6953  0.5410  1.1693
  154DOPC  H18S18504   2.106   4.293  15.282  0.5684 -0.2365  0.1696
  154DOPC  H18T18505   1.985   4.217  15.156  0.1798  1.3028  0.0252
  154DOPC   C3318506   2.011   4.359  17.096 -0.1636 -0.7967 -0.2791
  154DOPC   H3X18507   1.907   4.322  17.082  0.8033 -2.8732 -2.8980
  154DOPC   H3Y18508   2.071   4.270  17.070  0.1144 -0.1168 -2.1545
  154DOPC   C3418509   2.044   4.479  17.005  0.0503  0.0155  0.8422
  154DOPC   H4X18510   2.153   4.498  17.006  0.1086 -0.2368  0.0002
  154DOPC   H4Y18511   1.989   4.568  17.044 -0.1413  0.5240 -0.5313
  154DOPC   C3518512   1.998   4.447  16.860  0.2738 -0.1468 -0.3660
  154DOPC   H5X18513   1.894   4.407  16.861  0.7060 -1.4007  1.5830
  154DOPC   H5Y18514   2.067   4.375  16.811 -0.0814 -2.2833  2.0380
  154DOPC   C3618515   2.001   4.583  16.783 -0.2591 -0.4349  0.1379
  154DOPC   H6X18516   1.948   4.661  16.841  1.0206  0.0659  0.6655
  154DOPC   H6Y18517   2.108   4.613  16.783 -0.1108 -0.7778  2.3080
  154DOPC   C3718518   1.944   4.555  16.646  0.0300  0.1435 -0.7333
  154DOPC   H7X18519   1.987   4.463  16.601  0.0092 -0.4627  0.4407
  154DOPC   H7Y18520   1.838   4.531  16.668  0.5050 -0.8407  0.6385
  154DOPC   C3818521   1.963   4.674  16.554  0.4349 -0.3419  0.3396
  154DOPC   H8X18522   2.069   4.691  16.525  0.5712 -0.2294  0.8954
  154DOPC   H8Y18523   1.931   4.764  16.611  0.7059 -0.0275  0.0030
  154DOPC   C3918524   1.872   4.650  16.436 -0.3752  0.1459  0.3811
  154DOPC   H9X18525   1.765   4.645  16.459 -0.2796 -1.0288  0.6473
  154DOPC  C31018526   1.917   4.607  16.318 -0.6320 -0.3770  0.6532
  154DOPC  H10X18527   1.847   4.605  16.233  0.9498  0.3130 -0.7241
  154DOPC  C31118528   2.062   4.593  16.272 -0.7412  0.4814 -0.8213
  154DOPC  H11X18529   2.102   4.490  16.260  0.9372  1.3516 -3.3861
  154DOPC  H11Y18530   2.136   4.645  16.337  0.3331 -1.6815 -0.2345
  154DOPC  C31218531   2.090   4.663  16.134 -0.0979 -0.7821  0.0651
  154DOPC  H12X18532   2.200   4.673  16.123 -0.0493 -1.3969 -0.0470
  154DOPC  H12Y18533   2.047   4.765  16.138 -1.3173 -1.2735 -0.1645
  154DOPC  C31318534   2.032   4.584  16.018  0.9232 -0.0781  0.3471
  154DOPC  H13X18535   2.068   4.479  16.015 -1.0208 -0.7829  0.3523
  154DOPC  H13Y18536   1.923   4.570  16.032  0.7489  1.1143  0.2890
  154DOPC  C31418537   2.057   4.661  15.882 -0.5030 -0.2994 -0.2787
  154DOPC  H14X18538   2.002   4.757  15.878 -1.8624 -1.0781 -1.7639
  154DOPC  H14Y18539   2.166   4.674  15.865  0.0350 -2.8511  0.6651
  154DOPC  C31518540   2.010   4.596  15.755 -0.2407 -0.0927 -0.5776
  154DOPC  H15X18541   1.902   4.614  15.743 -0.5836  0.1867  2.2068
  154DOPC  H15Y18542   2.023   4.486  15.764  0.5353 -0.1766 -2.3043
  154DOPC  C31618543   2.086   4.660  15.633  0.2039  0.1710 -0.1298
  154DOPC  H16X18544   2.193   4.684  15.649  0.6505 -2.2171  0.9938
  154DOPC  H16Y18545   2.092   4.585  15.551  0.2572 -0.8392  0.7689
  154DOPC  C31718546   2.017   4.785  15.575  0.1626  0.0172 -0.0368
  154DOPC  H17X18547   1.977   4.838  15.664 -0.3501  1.2816 -0.9829
  154DOPC  H17Y18548   2.101   4.842  15.530 -0.1732 -0.6690 -1.6049
  154DOPC  C31818549   1.896   4.761  15.478 -0.0500 -0.3630 -0.3391
  154DOPC  H18X18550   1.817   4.692  15.515 -0.3634 -1.9931 -3.7029
  154DOPC  H18Y18551   1.848   4.859  15.455  0.8678  0.4764  1.1622
  154DOPC  H18Z18552   1.947   4.710  15.393  0.1437 -0.1949 -0.3266
  155DOPC     N18553   4.129   2.743  17.951 -0.0737 -0.2917 -0.8865
  155DOPC   C1218554   4.079   2.745  17.809  0.5497 -0.1014 -0.3538
  155DOPC  H12A18555   4.035   2.841  17.786  0.3733 -0.6540 -2.5452
  155DOPC  H12B18556   3.996   2.677  17.801 -0.1913  0.8858 -1.4120
  155DOPC   C1318557   4.232   2.847  17.990  0.6817  0.0504  1.6240
  155DOPC  H13A18558   4.184   2.939  18.019 -0.0860 -0.6772  2.7182
  155DOPC  H13B18559   4.275   2.822  18.086  0.5125 -0.8090  1.4875
  155DOPC  H13C18560   4.306   2.861  17.912 -0.0006 -1.1942  0.7126
  155DOPC   C1418561   4.211   2.616  17.976  0.4323 -0.1408  0.1863
  155DOPC  H14A18562   4.149   2.530  17.955  0.3474 -0.1248  0.3724
  155DOPC  H14B18563   4.299   2.632  17.916  2.0016 -1.6805  1.9535
  155DOPC  H14C18564   4.253   2.624  18.075  0.0639 -0.2630  0.3545
  155DOPC   C1518565   4.024   2.747  18.059 -0.5811  0.1335 -0.4255
  155DOPC  H15A18566   4.074   2.729  18.153  1.5260  2.2773 -1.0265
  155DOPC  H15B18567   3.952   2.668  18.044 -1.4291  1.0711 -1.5396
  155DOPC  H15C18568   3.976   2.844  18.058  0.6556  0.7928  0.5579
  155DOPC   C1118569   4.184   2.723  17.694  0.0578  0.3296 -0.3614
  155DOPC  H11A18570   4.233   2.626  17.716 -1.3864 -0.3997 -0.1870
  155DOPC  H11B18571   4.125   2.709  17.601  0.1991  1.2032 -0.5942
  155DOPC     P18572   4.431   2.793  17.645  0.4016  0.0416 -0.4197
  155DOPC   O1318573   4.479   2.666  17.698 -0.3922 -0.6584  0.4815
  155DOPC   O1418574   4.507   2.914  17.678 -0.5437 -0.0488 -0.0280
  155DOPC   O1218575   4.279   2.826  17.686 -0.7225 -0.0716 -0.2994
  155DOPC   O1118576   4.406   2.772  17.496 -0.0745 -0.2981 -0.2134
  155DOPC    C118577   4.308   2.833  17.412 -0.5261  0.2405 -0.0394
  155DOPC    HA18578   4.252   2.913  17.466 -0.1571 -0.1701  0.9876
  155DOPC    HB18579   4.237   2.765  17.361 -0.3323 -1.4361  1.7974
  155DOPC    C218580   4.374   2.912  17.292  0.2612 -0.5742  0.5102
  155DOPC    HS18581   4.452   2.979  17.332 -0.1091  1.4005 -1.8650
  155DOPC   O2118582   4.273   2.990  17.217 -0.6274  0.0207 -0.6575
  155DOPC   C2118583   4.320   3.076  17.128  0.2507  0.2097 -0.1462
  155DOPC   O2218584   4.441   3.098  17.105 -0.1225 -0.1559 -0.8415
  155DOPC   C2218585   4.209   3.149  17.065  0.1741 -0.2254 -0.7109
  155DOPC   H2R18586   4.202   3.246  17.118 -1.9238 -0.5612 -0.3128
  155DOPC   H2S18587   4.114   3.091  17.066 -0.9585  1.5266 -1.6325
  155DOPC    C318588   4.446   2.819  17.199 -0.2107 -0.1677 -0.1090
  155DOPC    HX18589   4.517   2.759  17.260  0.8545  0.6785 -0.4839
  155DOPC    HY18590   4.503   2.883  17.128 -1.5909  3.1765  1.5769
  155DOPC   O3118591   4.349   2.733  17.135  0.0212  0.0517 -0.2762
  155DOPC   C3118592   4.399   2.678  17.022  0.8598  0.1829 -0.5186
  155DOPC   O3218593   4.510   2.698  16.974  0.0543 -0.8948 -0.1179
  155DOPC   C3218594   4.292   2.579  16.966 -0.1611  0.1435  0.7526
  155DOPC   H2X18595   4.337   2.482  16.934 -0.9286 -0.2588  0.8648
  155DOPC   H2Y18596   4.227   2.560  17.054 -1.2428  1.5057  0.2732
  155DOPC   C2318597   4.243   3.187  16.920  0.3363  0.5084 -0.1318
  155DOPC   H3R18598   4.341   3.239  16.918  0.0623  1.0104 -1.4122
  155DOPC   H3S18599   4.162   3.256  16.887  0.7054  0.5202 -1.0522
  155DOPC   C2418600   4.236   3.067  16.820  0.2049  0.4469  0.2291
  155DOPC   H4R18601   4.183   3.108  16.731  1.4182  0.4819 -0.5007
  155DOPC   H4S18602   4.188   2.974  16.857  0.4192 -0.1610 -0.9695
  155DOPC   C2518603   4.370   3.034  16.761  0.4574 -0.3751  0.0480
  155DOPC   H5R18604   4.408   2.971  16.844  0.5718  1.1547  1.2066
  155DOPC   H5S18605   4.412   3.135  16.742  1.3909 -1.0399 -1.6515
  155DOPC   C2618606   4.366   2.951  16.626  0.2280 -0.3595  0.0651
  155DOPC   H6R18607   4.327   2.853  16.660  0.2316 -0.0134  1.1122
  155DOPC   H6S18608   4.471   2.940  16.592  0.1929  1.3720 -0.6927
  155DOPC   C2718609   4.277   3.024  16.517 -0.4650 -0.2747  0.0982
  155DOPC   H7R18610   4.302   3.132  16.514 -1.9207  0.0766 -1.2957
  155DOPC   H7S18611   4.170   3.009  16.544 -0.6942 -2.5170 -1.7053
  155DOPC   C2818612   4.302   2.979  16.376  0.7579 -0.8850 -0.1735
  155DOPC   H8R18613   4.400   3.009  16.334  0.3589 -1.1611 -1.3656
  155DOPC   H8S18614   4.225   3.030  16.315  1.0453 -1.4839 -1.0567
  155DOPC   C2918615   4.280   2.831  16.362  0.1374  0.0720  0.0530
  155DOPC   H9R18616   4.175   2.803  16.379 -0.1069  0.6988 -0.3565
  155DOPC  C21018617   4.370   2.734  16.343  0.9606  0.5550  0.3286
  155DOPC  H10R18618   4.329   2.633  16.331  0.6580  0.9074 -2.2642
  155DOPC  C21118619   4.520   2.748  16.337 -0.0281 -0.0752  0.8127
  155DOPC  H11R18620   4.558   2.678  16.413  1.4351 -0.5011 -0.2721
  155DOPC  H11S18621   4.554   2.849  16.369  2.2894 -0.8716  0.9920
  155DOPC  C21218622   4.576   2.723  16.198  0.0070 -0.1682  0.4232
  155DOPC  H12R18623   4.554   2.622  16.157  0.3064 -0.0556 -0.0206
  155DOPC  H12S18624   4.686   2.716  16.213  0.4279  1.5146 -1.3847
  155DOPC  C21318625   4.555   2.839  16.097 -0.2878 -0.0951 -0.3491
  155DOPC  H13R18626   4.604   2.929  16.140  0.8440 -2.0199  2.6905
  155DOPC  H13S18627   4.446   2.859  16.093 -0.7909 -2.2847  0.8662
  155DOPC  C21418628   4.605   2.800  15.962 -1.1655 -0.1063  0.3578
  155DOPC  H14R18629   4.593   2.690  15.953 -1.5768  0.0262 -0.9025
  155DOPC  H14S18630   4.713   2.826  15.972 -1.2812 -0.0800  1.8802
  155DOPC  C21518631   4.533   2.876  15.854 -0.2172  0.2561 -0.0698
  155DOPC  H15R18632   4.520   2.982  15.883 -1.0891  0.4302 -1.0598
  155DOPC  H15S18633   4.433   2.834  15.829  0.0167 -0.8930  0.8416
  155DOPC  C21618634   4.609   2.880  15.721 -0.2674  0.2226  0.1223
  155DOPC  H16R18635   4.618   2.774  15.690 -0.3402  0.3372 -0.2885
  155DOPC  H16S18636   4.711   2.922  15.736  0.5660 -1.5759 -0.3040
  155DOPC  C21718637   4.542   2.963  15.609  0.1640 -0.1128 -0.4522
  155DOPC  H17R18638   4.521   3.069  15.633 -0.3363 -0.4184  0.5255
  155DOPC  H17S18639   4.435   2.932  15.603  0.1773 -0.3562  0.4022
  155DOPC  C21818640   4.606   2.960  15.474 -0.3779 -0.5005  0.2824
  155DOPC  H18R18641   4.558   3.019  15.393 -1.8279 -2.7672 -0.6301
  155DOPC  H18S18642   4.603   2.856  15.434  0.8282 -1.2076  1.8914
  155DOPC  H18T18643   4.713   2.985  15.487 -0.4484 -1.3385  3.2282
  155DOPC   C3318644   4.211   2.630  16.846  0.0726 -0.3561 -0.4315
  155DOPC   H3X18645   4.280   2.648  16.762  1.6777  0.7673  1.0522
  155DOPC   H3Y18646   4.155   2.724  16.869  0.1017 -0.5282  0.3678
  155DOPC   C3418647   4.107   2.531  16.784 -0.2271  0.1264  0.9770
  155DOPC   H4X18648   4.025   2.598  16.750 -1.3856 -0.5661  2.2607
  155DOPC   H4Y18649   4.069   2.467  16.867  0.9565 -1.2211  0.5034
  155DOPC   C3518650   4.166   2.452  16.666 -0.0152 -0.2260 -0.1293
  155DOPC   H5X18651   4.251   2.388  16.699  1.2568  1.1033 -0.7282
  155DOPC   H5Y18652   4.208   2.532  16.602  3.8334 -0.6088  1.6598
  155DOPC   C3618653   4.065   2.356  16.601 -0.5271 -0.1571 -0.6286
  155DOPC   H6X18654   4.031   2.276  16.670 -0.6524 -0.5952 -1.1853
  155DOPC   H6Y18655   3.974   2.407  16.564 -0.3794  0.6234  0.0547
  155DOPC   C3718656   4.117   2.275  16.476 -0.2474 -0.3920 -0.3222
  155DOPC   H7X18657   4.155   2.354  16.408  1.4848  0.8573  1.9350
  155DOPC   H7Y18658   4.204   2.214  16.507 -0.4927 -2.0461 -2.6506
  155DOPC   C3818659   4.002   2.184  16.415 -0.5075 -0.5482  0.1974
  155DOPC   H8X18660   3.964   2.118  16.497 -4.7315  0.1710 -0.9561
  155DOPC   H8Y18661   4.044   2.119  16.335  2.8515  0.9774  0.5332
  155DOPC   C3918662   3.883   2.266  16.376  0.0051 -0.4719  0.2588
  155DOPC   H9X18663   3.812   2.279  16.459 -2.0057 -0.6024 -1.3786
  155DOPC  C31018664   3.867   2.321  16.251 -0.6532  0.6109  0.3325
  155DOPC  H10X18665   3.776   2.377  16.224 -1.2531 -0.0165  0.9804
  155DOPC  C31118666   3.972   2.302  16.138 -0.1077 -0.2583 -0.3340
  155DOPC  H11X18667   4.071   2.263  16.171  0.1733  1.6855  1.3412
  155DOPC  H11Y18668   4.003   2.405  16.108  1.4427 -0.0786  1.7083
  155DOPC  C31218669   3.913   2.234  16.013 -0.2911  0.6617 -0.6563
  155DOPC  H12X18670   3.802   2.238  16.012 -0.3370 -0.0074  0.1630
  155DOPC  H12Y18671   3.932   2.126  16.031 -1.2677  0.6678  0.6327
  155DOPC  C31318672   3.976   2.278  15.885  0.5393  0.3676  0.0844
  155DOPC  H13X18673   3.944   2.383  15.868 -1.9532  0.2499  3.1065
  155DOPC  H13Y18674   4.087   2.269  15.886  0.5280 -0.1746 -1.5766
  155DOPC  C31418675   3.924   2.205  15.760 -0.0892  0.1740 -0.8416
  155DOPC  H14X18676   3.947   2.097  15.755 -4.0073 -0.8919  0.1275
  155DOPC  H14Y18677   3.813   2.208  15.765 -0.0269  0.2615  1.2580
  155DOPC  C31518678   3.979   2.265  15.633  0.4079  0.1214 -0.3980
  155DOPC  H15X18679   4.089   2.267  15.647  0.7014 -2.3557 -1.8083
  155DOPC  H15Y18680   3.945   2.371  15.629  1.3998  0.5315  1.2304
  155DOPC  C31618681   3.932   2.194  15.508  0.1116  0.1161  0.2066
  155DOPC  H16X18682   3.954   2.085  15.513 -1.3257 -0.1332  2.1752
  155DOPC  H16Y18683   3.822   2.196  15.495  0.0786 -0.4296  0.3477
  155DOPC  C31718684   3.989   2.243  15.377 -0.4148  0.1018  0.2042
  155DOPC  H17X18685   3.941   2.341  15.361 -0.6103 -0.2424 -1.6083
  155DOPC  H17Y18686   4.098   2.262  15.387 -0.1686 -0.8621 -0.4282
  155DOPC  C31818687   3.960   2.160  15.250 -0.1335  0.5987 -0.3661
  155DOPC  H18X18688   4.022   2.214  15.175  0.1013  0.5668 -0.1987
  155DOPC  H18Y18689   4.000   2.057  15.263 -0.7312  0.1631 -1.7446
  155DOPC  H18Z18690   3.851   2.156  15.230 -0.5958 -0.7026  2.0742
  156DOPC     N18691   2.141   5.967  17.863  0.0430  0.0647 -0.2232
  156DOPC   C1218692   2.014   5.994  17.781 -0.3522  0.4822  0.1557
  156DOPC  H12A18693   1.963   6.079  17.825  0.9808  0.8403  1.0531
  156DOPC  H12B18694   1.957   5.902  17.780  0.7703 -0.2196 -0.0348
  156DOPC   C1318695   2.207   5.836  17.830 -0.0828  0.6421  0.4520
  156DOPC  H13A18696   2.149   5.749  17.858 -0.1857  0.4675 -0.2998
  156DOPC  H13B18697   2.224   5.832  17.724  0.9753  0.8594  0.5998
  156DOPC  H13C18698   2.298   5.831  17.888  1.5645  1.7893 -1.8837
  156DOPC   C1418699   2.106   5.952  17.999 -0.5729  0.0099 -0.9029
  156DOPC  H14A18700   2.056   6.038  18.042 -0.5301 -1.7429  3.1001
  156DOPC  H14B18701   2.038   5.869  18.012  0.8248 -0.9716  0.5502
  156DOPC  H14C18702   2.182   5.924  18.070 -0.4600 -2.5431 -1.9549
  156DOPC   C1518703   2.245   6.069  17.847 -0.1843 -0.7520  0.9171
  156DOPC  H15A18704   2.336   6.033  17.894  1.2972 -0.1806 -1.3563
  156DOPC  H15B18705   2.224   6.165  17.891 -0.6147  1.1980 -3.1468
  156DOPC  H15C18706   2.266   6.094  17.744 -1.5241  1.7858  1.1731
  156DOPC   C1118707   2.044   6.027  17.632 -0.0430 -0.2032 -0.5024
  156DOPC  H11A18708   1.952   6.045  17.573 -1.4417 -0.3637  1.5397
  156DOPC  H11B18709   2.106   6.119  17.628  1.1585 -0.8728  1.2257
  156DOPC     P18710   2.065   5.796  17.497  0.0449  0.0442 -0.3909
  156DOPC   O1318711   1.920   5.787  17.516  0.1200  0.5244 -0.0610
  156DOPC   O1418712   2.146   5.675  17.532  0.5558  0.4628 -0.3411
  156DOPC   O1218713   2.117   5.923  17.577 -0.2266  0.2141 -0.1420
  156DOPC   O1118714   2.095   5.837  17.347 -0.1143 -0.1975 -0.3453
  156DOPC    C118715   2.075   5.973  17.301 -0.0478 -0.2763  0.1599
  156DOPC    HA18716   2.143   6.049  17.344 -0.1105 -1.3679  2.3363
  156DOPC    HB18717   1.968   5.999  17.317  0.1519  0.8917 -0.3312
  156DOPC    C218718   2.094   5.987  17.150  0.0590  0.7849  0.5223
  156DOPC    HS18719   2.100   6.096  17.129  0.3022  0.7781  0.5474
  156DOPC   O2118720   1.985   5.914  17.083  0.3365  0.4908 -0.1092
  156DOPC   C2118721   1.893   5.991  17.037  0.8132  0.8107  0.4353
  156DOPC   O2218722   1.882   6.109  17.045 -0.3669 -0.7865  0.1029
  156DOPC   C2218723   1.806   5.899  16.938  0.9552 -0.5595 -0.8037
  156DOPC   H2R18724   1.736   5.839  17.000  1.0491 -0.0875 -0.2231
  156DOPC   H2S18725   1.870   5.827  16.882 -1.4105 -1.6141 -2.2956
  156DOPC    C318726   2.237   5.940  17.104  0.3561 -0.0150  0.4116
  156DOPC    HX18727   2.251   5.835  17.138 -0.7173 -0.0140  0.8835
  156DOPC    HY18728   2.322   6.005  17.134  2.1819 -2.1635  0.1717
  156DOPC   O3118729   2.242   5.943  16.951 -0.1301  0.2418 -0.3342
  156DOPC   C3118730   2.356   5.880  16.903 -0.0666 -0.3654 -0.1111
  156DOPC   O3218731   2.443   5.828  16.969  0.8284 -0.2911 -0.8080
  156DOPC   C3218732   2.371   5.904  16.754 -0.2828 -0.0453 -0.2119
  156DOPC   H2X18733   2.288   5.862  16.693 -2.4950  2.2842  0.9861
  156DOPC   H2Y18734   2.361   6.015  16.758  0.1731 -0.0522  2.3538
  156DOPC   C2318735   1.737   5.984  16.831  0.0889  0.5962  0.1786
  156DOPC   H3R18736   1.811   6.016  16.754 -0.8057  0.8266 -0.6090
  156DOPC   H3S18737   1.678   6.071  16.868 -3.7064 -0.7445 -2.0527
  156DOPC   C2418738   1.642   5.908  16.733 -0.1544  0.1264  0.3160
  156DOPC   H4R18739   1.592   5.976  16.661  2.3471  0.5349 -1.1231
  156DOPC   H4S18740   1.556   5.873  16.795 -1.5840  2.0279 -0.5264
  156DOPC   C2518741   1.704   5.789  16.652 -0.2464  0.6649 -0.5807
  156DOPC   H5R18742   1.708   5.708  16.727  0.1750  0.4520 -0.8289
  156DOPC   H5S18743   1.806   5.815  16.615 -1.2732  1.8273 -2.7819
  156DOPC   C2618744   1.624   5.745  16.518 -0.0001 -0.1409 -0.9971
  156DOPC   H6R18745   1.631   5.828  16.444 -1.0668 -0.3861 -1.3862
  156DOPC   H6S18746   1.520   5.730  16.554  0.9120  0.1884  2.0830
  156DOPC   C2718747   1.681   5.625  16.447 -0.4683 -0.1554 -0.2098
  156DOPC   H7R18748   1.674   5.529  16.503 -0.9964  1.4286  2.5803
  156DOPC   H7S18749   1.788   5.651  16.445 -0.9106  2.1376  2.0036
  156DOPC   C2818750   1.637   5.611  16.298  0.5096  0.0540  0.0370
  156DOPC   H8R18751   1.680   5.520  16.251  2.9595  1.8723 -1.5326
  156DOPC   H8S18752   1.695   5.687  16.241  3.2814 -2.1208 -0.3135
  156DOPC   C2918753   1.490   5.623  16.264 -0.2467 -0.0024  0.6459
  156DOPC   H9R18754   1.419   5.661  16.339  1.9194  0.6813  2.4399
  156DOPC  C21018755   1.435   5.600  16.141 -0.2502 -0.1772  0.0650
  156DOPC  H10R18756   1.331   5.631  16.126  0.1466  1.1566 -0.0241
  156DOPC  C21118757   1.507   5.562  16.010 -0.2384  0.3238  0.3806
  156DOPC  H11R18758   1.512   5.451  16.003 -0.3875  0.2946  0.7284
  156DOPC  H11S18759   1.607   5.608  15.995 -0.4845  0.1674 -2.3150
  156DOPC  C21218760   1.423   5.602  15.894  0.1168  0.2269 -0.0926
  156DOPC  H12R18761   1.409   5.712  15.892 -0.0716  0.2339  1.1253
  156DOPC  H12S18762   1.319   5.566  15.901 -0.3275  1.6927  1.3881
  156DOPC  C21318763   1.474   5.561  15.757 -0.1428  0.0742 -0.0137
  156DOPC  H13R18764   1.457   5.451  15.750 -1.5536  0.2946 -0.3085
  156DOPC  H13S18765   1.582   5.586  15.755 -0.0101 -0.2513  1.5759
  156DOPC  C21418766   1.403   5.616  15.639  0.2541  0.4212  0.4381
  156DOPC  H14R18767   1.402   5.727  15.644  0.2222  0.5247 -1.2634
  156DOPC  H14S18768   1.297   5.585  15.652  0.4496  0.3877  2.2070
  156DOPC  C21518769   1.458   5.576  15.508  0.0255 -0.2193 -0.3360
  156DOPC  H15R18770   1.454   5.466  15.493  1.7537 -0.2863 -0.5156
  156DOPC  H15S18771   1.559   5.620  15.498  0.1028 -0.1555  0.6505
  156DOPC  C21618772   1.379   5.636  15.390 -0.6585  0.4643 -0.8162
  156DOPC  H16R18773   1.400   5.744  15.378 -0.2682  0.6896  1.4115
  156DOPC  H16S18774   1.271   5.618  15.406 -0.4683  0.6646  0.9416
  156DOPC  C21718775   1.419   5.569  15.258  0.7074  0.0562 -0.0428
  156DOPC  H17R18776   1.342   5.595  15.182  1.7622 -1.9326 -1.9256
  156DOPC  H17S18777   1.424   5.458  15.258 -1.8527 -0.1210  0.1959
  156DOPC  C21818778   1.552   5.624  15.205  0.2591  0.4031  0.4467
  156DOPC  H18R18779   1.584   5.587  15.104  0.0239 -1.2937  0.9557
  156DOPC  H18S18780   1.636   5.600  15.274 -0.3704 -2.3220  0.3823
  156DOPC  H18T18781   1.550   5.734  15.213  2.0754  0.4207  1.1542
  156DOPC   C3318782   2.510   5.873  16.691 -0.9501  0.5752  0.3684
  156DOPC   H3X18783   2.517   5.763  16.681  1.6441  0.6730  0.5525
  156DOPC   H3Y18784   2.593   5.922  16.745  1.3840  0.0888 -2.5283
  156DOPC   C3418785   2.524   5.927  16.546  0.1515  0.0074 -1.0875
  156DOPC   H4X18786   2.621   5.902  16.497  0.2162 -1.0519 -0.4530
  156DOPC   H4Y18787   2.554   6.034  16.549  2.5334 -0.6257  0.0354
  156DOPC   C3518788   2.406   5.897  16.460 -0.4641 -0.8613 -0.2830
  156DOPC   H5X18789   2.322   5.960  16.495 -0.4268 -1.2026  0.4363
  156DOPC   H5Y18790   2.370   5.793  16.476  0.1398 -0.9383  0.6258
  156DOPC   C3618791   2.438   5.908  16.312 -0.0925  0.5163 -0.2356
  156DOPC   H6X18792   2.498   6.000  16.295  0.2144 -0.0710 -2.6837
  156DOPC   H6Y18793   2.500   5.821  16.282 -2.0861 -0.7066 -0.9538
  156DOPC   C3718794   2.302   5.916  16.240  0.4530 -0.0679 -0.4850
  156DOPC   H7X18795   2.224   5.852  16.286  0.2591  1.7668  1.9281
  156DOPC   H7Y18796   2.258   6.016  16.262 -0.2206 -0.7478  1.4385
  156DOPC   C3818797   2.311   5.906  16.090 -0.0356 -0.5491 -0.1476
  156DOPC   H8X18798   2.346   5.804  16.060 -2.0921 -1.4007  0.1597
  156DOPC   H8Y18799   2.386   5.977  16.050 -0.4731 -1.6586 -3.2231
  156DOPC   C3918800   2.184   5.937  16.032 -0.6265 -0.4201  0.1836
  156DOPC   H9X18801   2.103   5.913  16.103  1.1037 -3.2391  1.3882
  156DOPC  C31018802   2.150   5.972  15.911 -0.9742  0.5133  0.6894
  156DOPC  H10X18803   2.044   5.998  15.896 -0.9708  2.5955  3.4281
  156DOPC  C31118804   2.238   5.989  15.790  0.6738  0.3766  0.3019
  156DOPC  H11X18805   2.211   5.925  15.704  1.7835  0.1259  0.1245
  156DOPC  H11Y18806   2.343   5.972  15.823  2.1354  3.6796 -2.1628
  156DOPC  C31218807   2.254   6.130  15.736  0.0922 -0.5716 -0.6617
  156DOPC  H12X18808   2.251   6.203  15.819  1.2747 -1.6280  0.3704
  156DOPC  H12Y18809   2.162   6.157  15.681  0.6472 -1.4083 -2.0530
  156DOPC  C31318810   2.388   6.139  15.654 -0.1533 -0.2294  0.1751
  156DOPC  H13X18811   2.392   6.242  15.613 -1.6578 -0.6008 -0.9917
  156DOPC  H13Y18812   2.478   6.113  15.714  0.0703 -0.0452 -0.0752
  156DOPC  C31418813   2.388   6.035  15.546  0.6867 -0.1417  0.0255
  156DOPC  H14X18814   2.393   5.931  15.585 -2.2232 -1.3971 -2.5139
  156DOPC  H14Y18815   2.285   6.037  15.505  0.8391  0.1390 -0.3502
  156DOPC  C31518816   2.496   6.054  15.435  0.0629  0.2434 -0.0887
  156DOPC  H15X18817   2.593   6.054  15.490 -0.4019  0.1134  0.7439
  156DOPC  H15Y18818   2.484   6.152  15.383  1.3409  0.1047 -0.6826
  156DOPC  C31618819   2.483   5.950  15.318 -0.0969 -0.4315  0.1889
  156DOPC  H16X18820   2.380   5.964  15.279 -0.0025  0.3776  0.2303
  156DOPC  H16Y18821   2.555   5.980  15.239  0.3576  0.6028  0.9723
  156DOPC  C31718822   2.517   5.807  15.357 -0.0855 -0.5584  0.3801
  156DOPC  H17X18823   2.616   5.826  15.403 -0.6272  1.1070  0.9281
  156DOPC  H17Y18824   2.456   5.765  15.439  2.0750 -1.0109  1.8245
  156DOPC  C31818825   2.519   5.718  15.237 -0.8796 -0.1109  0.1244
  156DOPC  H18X18826   2.559   5.618  15.263  0.3730  0.3030 -0.1452
  156DOPC  H18Y18827   2.427   5.726  15.175  0.6821  1.0195 -2.1794
  156DOPC  H18Z18828   2.594   5.749  15.162 -2.0229 -0.1076 -1.0589
  157DOPC     N18829   0.335   3.694  17.628 -0.3307  0.1183  0.6167
  157DOPC   C1218830   0.319   3.783  17.501 -0.1308  0.6142 -0.1442
  157DOPC  H12A18831   0.366   3.737  17.416  1.3836  2.5240 -0.4194
  157DOPC  H12B18832   0.385   3.867  17.514  1.3206 -0.3135 -1.2465
  157DOPC   C1318833   0.480   3.660  17.640 -0.0996 -0.3300  0.0645
  157DOPC  H13A18834   0.521   3.614  17.551 -0.7660  2.0091 -1.5590
  157DOPC  H13B18835   0.534   3.752  17.661 -1.4227  0.0340  2.1046
  157DOPC  H13C18836   0.500   3.596  17.725 -0.7226 -0.8393 -0.1616
  157DOPC   C1418837   0.260   3.565  17.604  0.2320 -0.4220  0.3642
  157DOPC  H14A18838   0.251   3.511  17.697  0.2449  1.5810  1.5924
  157DOPC  H14B18839   0.160   3.590  17.570 -0.2174 -0.2442  1.7412
  157DOPC  H14C18840   0.319   3.506  17.537 -0.6973 -0.3899 -0.5124
  157DOPC   C1518841   0.283   3.763  17.750  0.1367 -0.0585 -0.2400
  157DOPC  H15A18842   0.326   3.718  17.839  0.8451  0.1531 -0.4677
  157DOPC  H15B18843   0.175   3.756  17.750  0.1942 -1.6321  0.6397
  157DOPC  H15C18844   0.311   3.867  17.752 -2.1659  0.6273 -0.7481
  157DOPC   C1118845   0.184   3.839  17.455  0.0281  0.0709  0.0319
  157DOPC  H11A18846   0.206   3.920  17.382 -0.1398 -0.0972 -0.2024
  157DOPC  H11B18847   0.142   3.751  17.402 -1.3068 -0.9713  2.6400
  157DOPC     P18848  -0.050   3.846  17.566 -0.2585 -0.3600 -0.1912
  157DOPC   O1318849  -0.136   3.946  17.631 -0.6361 -0.4243 -0.2398
  157DOPC   O1418850  -0.060   3.714  17.629 -0.3049  0.0652  0.1450
  157DOPC   O1218851   0.103   3.890  17.560 -0.1184  0.1275 -0.1092
  157DOPC   O1118852  -0.104   3.844  17.419 -0.4345  0.1717 -0.2592
  157DOPC    C118853  -0.109   3.955  17.332  0.2193 -1.0142  0.1999
  157DOPC    HA18854  -0.050   4.043  17.368 -0.2717 -1.1517  1.3873
  157DOPC    HB18855  -0.208   4.005  17.337 -0.0253 -1.5912  1.3386
  157DOPC    C218856  -0.091   3.912  17.190 -0.0398  0.2256 -0.4690
  157DOPC    HS18857  -0.180   3.852  17.161  0.1051  0.0301 -0.5110
  157DOPC   O2118858   0.030   3.839  17.179  0.5242  0.8149 -0.2563
  157DOPC   C2118859   0.025   3.711  17.131 -0.1244 -0.6620 -0.2800
  157DOPC   O2218860  -0.077   3.648  17.103 -0.3981  0.2080  0.1448
  157DOPC   C2218861   0.161   3.653  17.104 -0.3381  0.2259 -0.1933
  157DOPC   H2R18862   0.152   3.542  17.100  3.7202 -0.3903  1.8467
  157DOPC   H2S18863   0.223   3.671  17.194  2.1214 -0.0366 -1.7332
  157DOPC    C318864  -0.077   4.033  17.095  0.3864  0.0592  0.0245
  157DOPC    HX18865  -0.006   4.111  17.130  0.2857  0.6507 -1.0410
  157DOPC    HY18866  -0.175   4.086  17.092  0.5728  0.4316  0.4450
  157DOPC   O3118867  -0.039   3.979  16.964  0.0093  0.4784  0.4602
  157DOPC   C3118868  -0.051   4.075  16.879 -0.3706 -0.0011  0.5285
  157DOPC   O3218869  -0.084   4.193  16.901 -0.0780 -0.2356 -0.0241
  157DOPC   C3218870  -0.027   4.017  16.736  0.4074 -0.3246 -0.7780
  157DOPC   H2X18871   0.073   3.968  16.734  0.3311 -0.4564 -2.3211
  157DOPC   H2Y18872  -0.104   3.945  16.700 -3.6868  2.3680  1.7699
  157DOPC   C2318873   0.233   3.710  16.976 -0.5959  0.1259  0.6729
  157DOPC   H3R18874   0.341   3.703  16.997 -0.5154  0.9136  0.5702
  157DOPC   H3S18875   0.190   3.812  16.961 -0.0574  0.3270  0.4925
  157DOPC   C2418876   0.185   3.633  16.856  0.1266  0.1757  0.2751
  157DOPC   H4R18877   0.078   3.608  16.873 -0.4710  0.3313 -2.6330
  157DOPC   H4S18878   0.225   3.529  16.860  2.0289  0.6829 -2.6514
  157DOPC   C2518879   0.205   3.709  16.724 -0.3099 -0.1336 -0.3211
  157DOPC   H5R18880   0.134   3.792  16.701  0.8980  0.4631 -2.0963
  157DOPC   H5S18881   0.201   3.629  16.647  3.4418 -1.4980  0.7047
  157DOPC   C2618882   0.356   3.758  16.710  0.2463 -0.5805  0.5884
  157DOPC   H6R18883   0.423   3.677  16.745 -0.5064 -0.0031  3.5826
  157DOPC   H6S18884   0.371   3.844  16.778 -0.6345 -0.0142  0.0840
  157DOPC   C2718885   0.389   3.801  16.568  0.9196 -0.0503  0.3785
  157DOPC   H7R18886   0.295   3.850  16.533  0.5573 -0.4622  0.7601
  157DOPC   H7S18887   0.407   3.716  16.499  1.2741 -0.6468  1.1923
  157DOPC   C2818888   0.504   3.902  16.561  0.0918 -0.8398  0.0405
  157DOPC   H8R18889   0.485   3.974  16.643  0.6481 -0.1210 -0.4431
  157DOPC   H8S18890   0.486   3.959  16.467 -1.7997  0.6737  1.2335
  157DOPC   C2918891   0.636   3.842  16.571 -0.6268  0.0413  0.1068
  157DOPC   H9R18892   0.683   3.847  16.671  0.0923  0.8950 -0.2580
  157DOPC  C21018893   0.713   3.807  16.465  1.2101  0.0676 -0.5626
  157DOPC  H10R18894   0.816   3.773  16.483  0.8903 -0.3894  0.4884
  157DOPC  C21118895   0.671   3.802  16.323  0.2031 -0.0725  0.0702
  157DOPC  H11R18896   0.711   3.887  16.263 -0.7541  2.1723  2.4315
  157DOPC  H11S18897   0.563   3.793  16.303 -0.1608 -0.2365  1.9235
  157DOPC  C21218898   0.731   3.676  16.252  0.2222  0.2202  0.0714
  157DOPC  H12R18899   0.675   3.588  16.291 -0.4096 -0.1082 -1.5214
  157DOPC  H12S18900   0.837   3.661  16.279  0.2988 -1.8463 -1.1815
  157DOPC  C21318901   0.721   3.689  16.100  0.4374 -0.0613 -0.7534
  157DOPC  H13R18902   0.772   3.602  16.052  0.2935  0.8885 -2.7407
  157DOPC  H13S18903   0.784   3.769  16.056 -0.5709  0.7641 -0.7213
  157DOPC  C21418904   0.579   3.693  16.035  0.4172 -0.5533  0.0252
  157DOPC  H14R18905   0.529   3.786  16.068 -0.4598  0.7779 -4.5159
  157DOPC  H14S18906   0.517   3.610  16.075  0.5597 -0.1382  1.1633
  157DOPC  C21518907   0.579   3.686  15.881  0.2445  0.6411  0.7361
  157DOPC  H15R18908   0.611   3.582  15.859  0.8007  0.6468  1.4682
  157DOPC  H15S18909   0.663   3.747  15.843  1.8772  0.0736  3.1667
  157DOPC  C21618910   0.447   3.717  15.810 -0.5608  0.0486  0.1446
  157DOPC  H16R18911   0.460   3.814  15.758  0.1649  0.3883  0.9405
  157DOPC  H16S18912   0.365   3.717  15.885 -1.1876 -2.0357 -0.4564
  157DOPC  C21718913   0.405   3.615  15.709 -0.0610 -0.1268  0.6404
  157DOPC  H17R18914   0.412   3.522  15.770 -0.5572  0.9223  2.3735
  157DOPC  H17S18915   0.484   3.617  15.631 -0.2151 -0.3792  0.4776
  157DOPC  C21818916   0.269   3.640  15.645 -0.2169  0.2830  0.7192
  157DOPC  H18R18917   0.234   3.550  15.589 -0.9006  1.7036 -1.2445
  157DOPC  H18S18918   0.281   3.723  15.572  3.0972 -1.4241 -0.8989
  157DOPC  H18T18919   0.190   3.675  15.715 -0.2537 -0.0665  0.8534
  157DOPC   C3318920  -0.017   4.123  16.627 -0.1141  0.0577 -0.1191
  157DOPC   H3X18921   0.060   4.201  16.642 -1.0727  1.2566 -1.2138
  157DOPC   H3Y18922  -0.111   4.181  16.624  1.4609  2.8096  0.2299
  157DOPC   C3418923   0.006   4.058  16.494  0.4299 -0.5979 -0.2445
  157DOPC   H4X18924  -0.083   4.082  16.433 -0.6916 -1.1108  1.1329
  157DOPC   H4Y18925  -0.004   3.948  16.506  0.0623 -0.4407  1.0994
  157DOPC   C3518926   0.142   4.095  16.438  0.5627 -0.3716  0.6750
  157DOPC   H5X18927   0.219   4.072  16.515  0.5178 -1.3840  0.4370
  157DOPC   H5Y18928   0.142   4.205  16.420 -0.7093 -0.1872  1.6730
  157DOPC   C3618929   0.165   4.006  16.314 -0.2440 -0.3250  0.0340
  157DOPC   H6X18930   0.189   3.900  16.339 -2.9773 -1.1677 -0.5738
  157DOPC   H6Y18931   0.079   4.004  16.244  1.6983 -0.4076 -2.4789
  157DOPC   C3718932   0.272   4.062  16.220 -0.5885 -0.2984 -0.4494
  157DOPC   H7X18933   0.243   4.168  16.207 -0.5870 -0.4299 -1.5798
  157DOPC   H7Y18934   0.373   4.054  16.267 -0.1781 -0.8890 -1.4032
  157DOPC   C3818935   0.278   3.988  16.081  0.5429 -0.1260  0.5369
  157DOPC   H8X18936   0.178   3.984  16.033  1.3934 -1.0890 -1.2229
  157DOPC   H8Y18937   0.303   3.881  16.099 -2.3928 -0.9594  0.1492
  157DOPC   C3918938   0.384   4.058  16.005 -0.6769  0.7880 -0.4349
  157DOPC   H9X18939   0.489   4.028  16.021 -1.3547 -1.6101  0.0183
  157DOPC  C31018940   0.361   4.157  15.916 -0.4483 -0.4581 -0.3358
  157DOPC  H10X18941   0.450   4.203  15.870 -0.1915  0.0041  0.5974
  157DOPC  C31118942   0.227   4.217  15.872 -0.3169 -0.2754 -0.6618
  157DOPC  H11X18943   0.240   4.312  15.815 -0.4540  0.3145  0.2606
  157DOPC  H11Y18944   0.182   4.259  15.964 -1.0874 -0.1230 -1.0911
  157DOPC  C31218945   0.125   4.122  15.803 -0.4245 -0.0109  0.5628
  157DOPC  H12X18946   0.023   4.162  15.788 -1.1072 -1.0680  2.1662
  157DOPC  H12Y18947   0.110   4.021  15.848 -2.0748 -0.5319 -1.0597
  157DOPC  C31318948   0.163   4.107  15.649  0.1920 -0.1097  0.3190
  157DOPC  H13X18949   0.168   4.205  15.597 -2.3373 -0.9699 -1.7324
  157DOPC  H13Y18950   0.262   4.058  15.642 -0.1853 -0.9258  0.5931
  157DOPC  C31418951   0.049   4.028  15.573 -0.2305  0.0059  0.5322
  157DOPC  H14X18952   0.035   3.932  15.627 -1.1882  0.0279  0.3379
  157DOPC  H14Y18953  -0.046   4.084  15.585 -0.3586 -0.2133  0.5525
  157DOPC  C31518954   0.085   3.994  15.423  0.2417 -0.8911  0.5694
  157DOPC  H15X18955   0.022   3.914  15.381  1.4273 -2.1574  1.1168
  157DOPC  H15Y18956   0.194   3.971  15.421  0.5673  0.5668  0.2355
  157DOPC  C31618957   0.069   4.104  15.316 -0.3356  0.5090 -0.4805
  157DOPC  H16X18958  -0.024   4.164  15.323 -1.2418 -0.5333 -2.7423
  157DOPC  H16Y18959   0.156   4.172  15.318  0.2177 -0.1904 -0.3047
  157DOPC  C31718960   0.078   4.042  15.171  0.4377  0.0151 -0.9281
  157DOPC  H17X18961   0.178   3.993  15.165 -0.2971 -1.7678  0.6902
  157DOPC  H17Y18962   0.000   3.965  15.153  1.0570 -0.2367 -2.7746
  157DOPC  C31818963   0.074   4.152  15.066  0.2857 -0.1187  0.7056
  157DOPC  H18X18964  -0.019   4.213  15.069  0.7536  0.6433  0.1002
  157DOPC  H18Y18965   0.157   4.222  15.088 -0.3387  0.7750  0.2917
  157DOPC  H18Z18966   0.093   4.115  14.962  1.3346  1.4974  0.2806
  158DOPC     N18967   6.294   5.969  17.803 -0.4331  0.2338  0.2292
  158DOPC   C1218968   6.328   5.836  17.874  0.0776 -0.8522  0.2676
  158DOPC  H12A18969   6.247   5.785  17.925  0.1506 -0.2208  1.0316
  158DOPC  H12B18970   6.401   5.849  17.953  0.1048 -0.3384  0.1633
  158DOPC   C1318971   6.209   5.959  17.680 -0.1173 -0.0554 -0.0651
  158DOPC  H13A18972   6.263   5.900  17.607 -2.0108 -0.3313 -1.2853
  158DOPC  H13B18973   6.110   5.926  17.706  0.2985  0.1911  2.0767
  158DOPC  H13C18974   6.201   6.057  17.636 -0.8508  1.6173  3.4529
  158DOPC   C1418975   6.426   6.031  17.766 -0.6577 -0.1035  0.4219
  158DOPC  H14A18976   6.481   5.955  17.713 -0.6564 -0.2476  0.6270
  158DOPC  H14B18977   6.414   6.122  17.709  0.3578 -0.2409 -0.0420
  158DOPC  H14C18978   6.474   6.059  17.859 -1.3119  1.7920  0.2197
  158DOPC   C1518979   6.235   6.065  17.894  0.2954  0.3506 -0.5955
  158DOPC  H15A18980   6.296   6.088  17.980 -1.1572 -1.0206  0.8607
  158DOPC  H15B18981   6.146   6.021  17.936  0.9790 -0.3695  0.1306
  158DOPC  H15C18982   6.209   6.153  17.837  1.3593  0.1679 -1.3837
  158DOPC   C1118983   6.398   5.727  17.778  0.3530 -1.0732 -0.1598
  158DOPC  H11A18984   6.395   5.640  17.847  0.5453  0.1664  1.4841
  158DOPC  H11B18985   6.331   5.705  17.692 -0.9828  2.3174 -0.1432
  158DOPC     P18986   6.644   5.728  17.815  0.0367  0.2374 -0.1126
  158DOPC   O1318987   6.621   5.614  17.912 -0.1202  0.5348 -0.4425
  158DOPC   O1418988   6.704   5.849  17.871  0.4463 -0.2762 -0.2835
  158DOPC   O1218989   6.524   5.759  17.731 -0.0103 -0.3461  0.0931
  158DOPC   O1118990   6.749   5.679  17.711  0.4264 -0.1261 -0.0636
  158DOPC    C118991   6.705   5.616  17.587  0.2909  0.5741 -0.2037
  158DOPC    HA18992   6.605   5.568  17.595  0.7102 -0.1235  1.2583
  158DOPC    HB18993   6.779   5.537  17.561 -1.4532 -0.5460 -2.1161
  158DOPC    C218994   6.697   5.720  17.477  0.9474 -0.9279  0.5892
  158DOPC    HS18995   6.654   5.812  17.522  2.1264  0.3592 -0.8052
  158DOPC   O2118996   6.623   5.669  17.365  0.0277  0.3702  0.0956
  158DOPC   C2118997   6.550   5.760  17.299 -0.5736 -0.5441  0.7096
  158DOPC   O2218998   6.526   5.872  17.340  0.7087 -0.3316  0.2197
  158DOPC   C2218999   6.508   5.705  17.165  0.4090  0.1094  0.1851
  158DOPC   H2R19000   6.398   5.709  17.148  0.0961 -2.4951  1.1528
  158DOPC   H2S19001   6.526   5.596  17.162  2.9386  0.3246  2.9956
  158DOPC    C319002   6.841   5.757  17.450  0.3433 -0.1671  0.2436
  158DOPC    HX19003   6.888   5.664  17.414  2.4391  1.0158 -0.2287
  158DOPC    HY19004   6.905   5.783  17.538  1.2423  2.0383 -0.9722
  158DOPC   O3119005   6.857   5.869  17.358  0.5092 -0.4048  0.0117
  158DOPC   C3119006   6.885   5.844  17.233 -0.0515  0.2352  0.3675
  158DOPC   O3219007   6.913   5.734  17.184  0.1566 -0.8108  0.4796
  158DOPC   C3219008   6.884   5.973  17.155  0.4363 -0.1178  0.9804
  158DOPC   H2X19009   6.795   6.027  17.194  0.6788  0.3524  0.8947
  158DOPC   H2Y19010   6.969   6.040  17.182  0.2913 -0.0634  1.3015
  158DOPC   C2319011   6.580   5.777  17.047  0.0957 -0.4947  0.1129
  158DOPC   H3R19012   6.688   5.750  17.053  0.7183  0.9282 -2.9067
  158DOPC   H3S19013   6.583   5.887  17.056  1.1267 -0.6819  3.3664
  158DOPC   C2419014   6.534   5.730  16.906 -0.1070  0.4739 -0.1081
  158DOPC   H4R19015   6.475   5.810  16.857 -0.5877  0.2243  0.0565
  158DOPC   H4S19016   6.471   5.640  16.893 -1.6063  1.7607 -2.6976
  158DOPC   C2519017   6.645   5.694  16.808 -0.4656 -0.1299  0.5597
  158DOPC   H5R19018   6.734   5.643  16.850  1.0268  0.4144 -1.7755
  158DOPC   H5S19019   6.697   5.789  16.782  2.2619 -1.6936 -0.1042
  158DOPC   C2619020   6.607   5.616  16.683 -0.0015  0.3416 -0.5078
  158DOPC   H6R19021   6.530   5.677  16.632 -0.1421 -0.8770 -1.8215
  158DOPC   H6S19022   6.556   5.520  16.707  2.2423 -0.3969  1.6787
  158DOPC   C2719023   6.713   5.606  16.582  0.0823  0.2029 -0.6018
  158DOPC   H7R19024   6.787   5.530  16.613 -0.3118 -0.6097 -1.6193
  158DOPC   H7S19025   6.772   5.699  16.563  0.1861  0.5616  1.2503
  158DOPC   C2819026   6.660   5.552  16.438 -0.1339  0.5559  0.3275
  158DOPC   H8R19027   6.747   5.553  16.369 -0.8224 -0.3841 -0.5720
  158DOPC   H8S19028   6.582   5.619  16.397  0.6607  1.7194  0.6501
  158DOPC   C2919029   6.596   5.413  16.446  0.4137 -0.2989 -0.6169
  158DOPC   H9R19030   6.526   5.400  16.529  0.9772  0.3262 -0.0306
  158DOPC  C21019031   6.620   5.313  16.364 -0.1982  0.1776 -0.1540
  158DOPC  H10R19032   6.561   5.222  16.381  0.4896 -0.4036 -0.8229
  158DOPC  C21119033   6.698   5.317  16.236 -0.1253 -0.4421  0.2503
  158DOPC  H11R19034   6.776   5.238  16.237 -0.9968 -1.3633  2.7195
  158DOPC  H11S19035   6.761   5.407  16.221  0.8659 -1.3544 -1.2833
  158DOPC  C21219036   6.608   5.319  16.108 -0.1016 -0.2749  0.3949
  158DOPC  H12R19037   6.565   5.422  16.111 -1.5377 -0.8555  0.8379
  158DOPC  H12S19038   6.521   5.250  16.108 -0.3815  0.0249 -1.3536
  158DOPC  C21319039   6.700   5.310  15.984  0.0046 -0.0657 -0.0866
  158DOPC  H13R19040   6.772   5.225  15.991  1.8592  1.5319  1.6593
  158DOPC  H13S19041   6.756   5.405  15.992 -2.0814  1.2283 -0.2850
  158DOPC  C21419042   6.631   5.309  15.847 -0.2926 -0.3423  0.8002
  158DOPC  H14R19043   6.560   5.395  15.840  0.0538 -0.0414  0.9415
  158DOPC  H14S19044   6.567   5.219  15.836 -1.8947  0.8164  0.1798
  158DOPC  C21519045   6.734   5.336  15.732  0.2139  0.0387 -0.8643
  158DOPC  H15R19046   6.810   5.255  15.731 -0.5718 -0.8150  1.1465
  158DOPC  H15S19047   6.786   5.433  15.743 -0.7166  0.4168  0.5515
  158DOPC  C21619048   6.665   5.338  15.600 -0.5345 -0.4551  0.1557
  158DOPC  H16R19049   6.591   5.421  15.588  0.2261  0.4207  1.3312
  158DOPC  H16S19050   6.608   5.245  15.576  0.3866 -0.8982 -0.3784
  158DOPC  C21719051   6.767   5.345  15.489 -0.5594  0.4809  0.2334
  158DOPC  H17R19052   6.840   5.262  15.495 -2.3370 -1.3158 -1.3466
  158DOPC  H17S19053   6.814   5.445  15.496 -1.4125  0.8748  0.5418
  158DOPC  C21819054   6.712   5.341  15.347 -0.5322 -0.1435 -0.3444
  158DOPC  H18R19055   6.671   5.242  15.320  2.4108 -1.6660  0.3494
  158DOPC  H18S19056   6.802   5.349  15.282  1.6133  0.4363  2.4422
  158DOPC  H18T19057   6.640   5.424  15.334 -1.2919 -1.1935 -3.9163
  158DOPC   C3319058   6.878   5.962  16.999 -0.0505 -0.3985  0.1768
  158DOPC   H3X19059   6.776   5.932  16.965 -0.1800 -0.4180  0.5701
  158DOPC   H3Y19060   6.944   5.883  16.957  1.5390 -0.1476  2.0697
  158DOPC   C3419061   6.925   6.097  16.935  0.1603  0.4046 -0.2987
  158DOPC   H4X19062   7.027   6.115  16.974 -0.0641 -1.1840  1.1338
  158DOPC   H4Y19063   6.868   6.184  16.973  2.3019  1.4165  0.7880
  158DOPC   C3519064   6.909   6.085  16.789 -0.4540  0.1680  0.8757
  158DOPC   H5X19065   6.904   5.978  16.761  1.0938  0.5407 -1.0529
  158DOPC   H5Y19066   7.000   6.126  16.738  0.0696 -1.8176  0.1224
  158DOPC   C3619067   6.786   6.164  16.731  0.7671  0.1353 -0.1064
  158DOPC   H6X19068   6.700   6.138  16.796  0.4244  1.3331 -0.0635
  158DOPC   H6Y19069   6.811   6.271  16.745 -2.3725  0.8327  0.8063
  158DOPC   C3719070   6.762   6.140  16.582  0.1835 -0.4886  0.5597
  158DOPC   H7X19071   6.682   6.211  16.552 -2.4022 -3.3494  0.1664
  158DOPC   H7Y19072   6.852   6.153  16.519 -0.5277  0.2040 -0.3562
  158DOPC   C3819073   6.706   5.993  16.557 -0.3790  1.3981  0.4040
  158DOPC   H8X19074   6.627   5.964  16.630 -0.8655  0.2115 -0.5674
  158DOPC   H8Y19075   6.794   5.932  16.586 -1.4006  0.3347  1.3788
  158DOPC   C3919076   6.644   5.971  16.421  0.6812 -0.6334 -0.3660
  158DOPC   H9X19077   6.540   6.008  16.420  1.1108  0.6180 -0.8392
  158DOPC  C31019078   6.704   5.933  16.309  0.2295 -0.2887 -0.3300
  158DOPC  H10X19079   6.642   5.928  16.219  1.0200 -0.6192 -0.8611
  158DOPC  C31119080   6.846   5.905  16.296 -0.1455 -0.0522  0.4801
  158DOPC  H11X19081   6.895   5.825  16.356  4.2726  0.4097 -2.0348
  158DOPC  H11Y19082   6.904   6.000  16.307  1.6547 -1.0390 -0.0495
  158DOPC  C31219083   6.888   5.857  16.159  0.4449 -0.1057  0.9727
  158DOPC  H12X19084   6.833   5.762  16.141 -0.7899  0.6989  0.3383
  158DOPC  H12Y19085   6.996   5.833  16.158  0.0700 -2.0836 -0.7754
  158DOPC  C31319086   6.867   5.959  16.039 -0.5031  0.0262 -0.0644
  158DOPC  H13X19087   6.774   6.018  16.048  0.2758  1.3239 -0.2642
  158DOPC  H13Y19088   6.941   6.041  16.048  0.4465 -0.6086 -1.5557
  158DOPC  C31419089   6.870   5.890  15.900  0.1275  0.2345 -0.1590
  158DOPC  H14X19090   6.796   5.808  15.888 -2.9127  2.4677  1.7486
  158DOPC  H14Y19091   6.829   5.965  15.829 -2.9532  1.3292  2.5047
  158DOPC  C31519092   7.009   5.853  15.855 -0.2982  0.0740  0.2690
  158DOPC  H15X19093   7.057   5.797  15.937 -0.9653 -0.3388  0.3854
  158DOPC  H15Y19094   7.071   5.943  15.837 -1.2929  0.2628 -2.8973
  158DOPC  C31619095   7.006   5.767  15.726  0.6563  0.5065 -0.4193
  158DOPC  H16X19096   7.109   5.729  15.709  0.4444  0.2581 -1.2029
  158DOPC  H16Y19097   6.944   5.676  15.736  1.8425 -0.3279 -0.4904
  158DOPC  C31719098   6.954   5.850  15.609  0.6137 -0.1958 -0.2940
  158DOPC  H17X19099   6.854   5.898  15.621  0.2761 -0.7659 -0.7597
  158DOPC  H17Y19100   7.026   5.934  15.600 -1.8413  2.1214  0.1868
  158DOPC  C31819101   6.953   5.772  15.475  0.1220  0.3920 -0.2597
  158DOPC  H18X19102   6.948   5.839  15.387  0.5668 -0.2108 -0.7511
  158DOPC  H18Y19103   7.050   5.718  15.463  1.2170  2.4160 -0.9803
  158DOPC  H18Z19104   6.868   5.702  15.464 -0.2981  0.9799 -0.8516
  159DOPC     N19105   0.502   3.177  17.580 -0.7972 -0.1441 -0.1994
  159DOPC   C1219106   0.526   3.239  17.448 -0.6536 -0.5474  0.8807
  159DOPC  H12A19107   0.458   3.322  17.438 -0.3680 -0.4352 -0.3335
  159DOPC  H12B19108   0.488   3.173  17.371 -0.4718  1.6223 -1.2101
  159DOPC   C1319109   0.370   3.108  17.583 -0.1226  0.0531 -0.2492
  159DOPC  H13A19110   0.373   3.021  17.519 -0.7008 -1.7347  2.0107
  159DOPC  H13B19111   0.355   3.077  17.686  2.4867  1.4979  0.6453
  159DOPC  H13C19112   0.289   3.175  17.558  2.4509  2.2296 -3.5096
  159DOPC   C1419113   0.505   3.280  17.687  0.5763 -0.0265 -0.7925
  159DOPC  H14A19114   0.584   3.353  17.672  1.4466 -0.5367  1.0493
  159DOPC  H14B19115   0.408   3.327  17.688  2.5594  4.5645  0.5687
  159DOPC  H14C19116   0.529   3.227  17.778 -3.6250  0.8982  1.0919
  159DOPC   C1519117   0.608   3.071  17.612 -0.0260 -0.1358 -0.3339
  159DOPC  H15A19118   0.704   3.120  17.616  0.8024 -1.6159 -1.3481
  159DOPC  H15B19119   0.629   3.007  17.527  2.8040 -0.0842  0.2533
  159DOPC  H15C19120   0.585   3.009  17.698 -2.9278 -0.5965 -1.3218
  159DOPC   C1119121   0.662   3.290  17.392  0.4220  0.2184  0.3330
  159DOPC  H11A19122   0.725   3.200  17.375  1.8770  1.8072 -4.3107
  159DOPC  H11B19123   0.653   3.353  17.301  0.8828  1.6114  1.2167
  159DOPC     P19124   0.864   3.360  17.550 -0.4134 -0.6097 -0.1569
  159DOPC   O1319125   0.926   3.231  17.518 -0.2290 -0.3330  0.5130
  159DOPC   O1419126   0.857   3.391  17.692  0.2761  0.0654 -0.0781
  159DOPC   O1219127   0.716   3.371  17.496  0.5507  0.3238  0.4266
  159DOPC   O1119128   0.941   3.488  17.482 -0.4647  0.0225 -0.0889
  159DOPC    C119129   0.882   3.601  17.425 -0.0925 -0.4986  0.4355
  159DOPC    HA19130   0.955   3.684  17.436 -2.0324  1.5489 -1.1332
  159DOPC    HB19131   0.790   3.632  17.480 -0.0684 -0.7717  0.6291
  159DOPC    C219132   0.874   3.582  17.270  0.1086  0.0542 -0.6077
  159DOPC    HS19133   0.790   3.509  17.267  0.7023 -0.6394 -0.5822
  159DOPC   O2119134   0.992   3.525  17.216 -0.0962  0.0376  0.2079
  159DOPC   C2119135   0.992   3.394  17.191  0.8274  0.2103 -0.0075
  159DOPC   O2219136   0.891   3.328  17.166 -0.0215  0.1201 -1.1866
  159DOPC   C2219137   1.133   3.346  17.164 -0.5084  0.3273  0.4672
  159DOPC   H2R19138   1.164   3.330  17.269 -1.0777  0.9268  0.7358
  159DOPC   H2S19139   1.188   3.427  17.112  2.4334 -2.5182 -1.1936
  159DOPC    C319140   0.831   3.709  17.195 -0.2241  0.1008 -0.8217
  159DOPC    HX19141   0.915   3.780  17.210 -0.1921  0.2648 -1.7274
  159DOPC    HY19142   0.744   3.755  17.249 -1.0733 -0.8501 -1.3514
  159DOPC   O3119143   0.817   3.686  17.052 -0.7592 -0.0792  0.2832
  159DOPC   C3119144   0.710   3.620  17.021 -0.6915  0.1460  0.0542
  159DOPC   O3219145   0.616   3.576  17.088 -0.1679 -0.0842 -0.6946
  159DOPC   C3219146   0.718   3.604  16.868 -0.0509  0.3193 -0.1152
  159DOPC   H2X19147   0.689   3.698  16.816  1.4793  0.1954 -1.2725
  159DOPC   H2Y19148   0.826   3.593  16.846 -0.2129  2.9168 -2.9997
  159DOPC   C2319149   1.142   3.211  17.081 -0.0251  0.6919 -0.1433
  159DOPC   H3R19150   1.054   3.142  17.085  1.1410 -0.9363 -1.3124
  159DOPC   H3S19151   1.224   3.152  17.127  2.1167  2.9671 -0.8540
  159DOPC   C2419152   1.186   3.228  16.934 -0.2690  0.3432  0.3530
  159DOPC   H4R19153   1.197   3.125  16.895  2.7470 -0.1913  2.2367
  159DOPC   H4S19154   1.288   3.271  16.921  0.1985 -1.0923 -0.9515
  159DOPC   C2519155   1.087   3.312  16.843  0.0942 -0.1077  0.5301
  159DOPC   H5R19156   1.094   3.420  16.863  0.2092 -0.4835  2.6868
  159DOPC   H5S19157   0.981   3.301  16.877  0.4014 -0.5763  1.3575
  159DOPC   C2619158   1.110   3.290  16.690  0.4746 -0.2591  0.1760
  159DOPC   H6R19159   1.080   3.184  16.671 -3.0692  0.6785 -0.3053
  159DOPC   H6S19160   1.218   3.301  16.667  0.3690 -0.0625 -0.2418
  159DOPC   C2719161   1.021   3.383  16.603  0.0155 -0.0023 -0.3769
  159DOPC   H7R19162   1.068   3.481  16.582  0.1104  0.0239 -0.0563
  159DOPC   H7S19163   0.925   3.399  16.655 -1.0480 -3.4227 -1.0594
  159DOPC   C2819164   0.975   3.320  16.470  0.1389  0.5102  0.2213
  159DOPC   H8R19165   0.900   3.382  16.418 -0.8622 -0.1698  0.8139
  159DOPC   H8S19166   0.920   3.226  16.492 -1.7128  1.2954 -0.9269
  159DOPC   C2919167   1.100   3.298  16.388  0.2427  0.1301 -0.5069
  159DOPC   H9R19168   1.150   3.207  16.423  0.2364 -0.4462 -1.9361
  159DOPC  C21019169   1.143   3.352  16.278  0.0477  0.4522  0.0861
  159DOPC  H10R19170   1.243   3.332  16.236 -0.2772 -1.1639  0.0449
  159DOPC  C21119171   1.090   3.467  16.204 -0.6961 -0.0438 -0.9309
  159DOPC  H11R19172   1.161   3.551  16.223  0.3116 -0.5146 -2.4044
  159DOPC  H11S19173   0.987   3.491  16.239 -0.5498 -0.2946 -0.3147
  159DOPC  C21219174   1.080   3.467  16.049 -0.4439  0.6824  0.3555
  159DOPC  H12R19175   0.983   3.421  16.020  0.2897 -0.9951  0.4352
  159DOPC  H12S19176   1.163   3.413  15.998  0.5735 -0.8501  3.4147
  159DOPC  C21319177   1.069   3.616  16.007 -0.3361  0.2601  0.0884
  159DOPC  H13R19178   1.159   3.666  16.049  0.3903 -2.3078  1.8150
  159DOPC  H13S19179   0.983   3.671  16.050 -0.5045 -0.2774  0.4553
  159DOPC  C21419180   1.068   3.627  15.851  0.2675 -0.2078  0.1964
  159DOPC  H14R19181   1.165   3.600  15.803 -1.5574 -3.1460 -2.2668
  159DOPC  H14S19182   1.069   3.738  15.849  0.2319 -0.2152 -0.4498
  159DOPC  C21519183   0.944   3.572  15.770  0.5100 -0.1898 -0.0599
  159DOPC  H15R19184   0.847   3.615  15.803 -0.0669 -0.2185 -1.6279
  159DOPC  H15S19185   0.933   3.462  15.787 -2.1871 -0.0722 -0.5727
  159DOPC  C21619186   0.948   3.621  15.623 -0.4065 -0.0122  0.1422
  159DOPC  H16R19187   1.027   3.561  15.572  0.5893  1.9558 -0.7167
  159DOPC  H16S19188   0.982   3.726  15.626 -1.7971  0.4518  3.0513
  159DOPC  C21719189   0.818   3.594  15.552  0.2784  0.2150 -0.3811
  159DOPC  H17R19190   0.722   3.622  15.599  0.4012  0.9508 -0.5658
  159DOPC  H17S19191   0.804   3.484  15.540 -0.2068  0.1047  0.9834
  159DOPC  C21819192   0.814   3.661  15.415  0.3795  0.1051  0.5419
  159DOPC  H18R19193   0.802   3.769  15.438 -1.2675 -0.2913  1.7355
  159DOPC  H18S19194   0.723   3.627  15.360  0.2360  1.9259 -0.4280
  159DOPC  H18T19195   0.907   3.642  15.357 -1.1588 -0.0403 -2.0682
  159DOPC   C3319196   0.628   3.491  16.812  0.1881  0.6656 -0.3277
  159DOPC   H3X19197   0.623   3.505  16.702 -0.7739  1.4127 -0.2003
  159DOPC   H3Y19198   0.527   3.499  16.856 -0.2280 -0.4950 -1.0518
  159DOPC   C3419199   0.683   3.348  16.828  0.1621 -0.6721  0.6875
  159DOPC   H4X19200   0.650   3.310  16.927 -2.0323 -0.9342 -0.0910
  159DOPC   H4Y19201   0.793   3.351  16.816  0.4064 -1.2800  2.4198
  159DOPC   C3519202   0.611   3.248  16.743  0.0426 -0.0502 -0.1447
  159DOPC   H5X19203   0.620   3.275  16.636 -0.4030 -1.1258 -0.4713
  159DOPC   H5Y19204   0.502   3.262  16.758  0.2507  3.1287 -1.0179
  159DOPC   C3619205   0.645   3.100  16.769 -0.2125 -0.5327  0.7086
  159DOPC   H6X19206   0.750   3.083  16.736 -0.3556 -0.2413  0.0825
  159DOPC   H6Y19207   0.650   3.077  16.877  0.0611  0.0210  0.8141
  159DOPC   C3719208   0.545   3.002  16.703 -0.2351  0.0828  0.3641
  159DOPC   H7X19209   0.443   3.042  16.726 -0.3384 -0.9696  1.9027
  159DOPC   H7Y19210   0.565   3.000  16.594 -1.8032  3.4422 -0.1317
  159DOPC   C3819211   0.530   2.858  16.761  0.4802  0.3128 -0.2527
  159DOPC   H8X19212   0.439   2.817  16.713  1.9107 -1.0195 -1.9838
  159DOPC   H8Y19213   0.508   2.855  16.870  0.1146  0.0478 -0.3338
  159DOPC   C3919214   0.649   2.771  16.730  0.1199  0.1408  0.4938
  159DOPC   H9X19215   0.703   2.744  16.821  0.9064 -0.3346 -0.1005
  159DOPC  C31019216   0.681   2.726  16.608  0.2886 -0.4026 -0.8650
  159DOPC  H10X19217   0.776   2.676  16.588  0.2302  0.9754 -5.7308
  159DOPC  C31119218   0.607   2.755  16.479 -0.1952  0.2362  0.2149
  159DOPC  H11X19219   0.516   2.818  16.492 -0.2000  0.5777 -1.3027
  159DOPC  H11Y19220   0.580   2.661  16.427 -0.7615  0.1194  0.7115
  159DOPC  C31219221   0.698   2.837  16.394 -0.8692 -0.0863 -0.6641
  159DOPC  H12X19222   0.794   2.783  16.374  0.6464  2.0183  0.4693
  159DOPC  H12Y19223   0.729   2.927  16.451  0.9876 -1.4563  0.6230
  159DOPC  C31319224   0.644   2.886  16.265  0.6131 -0.4022 -0.3947
  159DOPC  H13X19225   0.534   2.876  16.259  0.3051  2.2858 -0.3001
  159DOPC  H13Y19226   0.668   2.994  16.254  0.3941 -0.5151 -2.3825
  159DOPC  C31419227   0.708   2.801  16.150  0.3301  0.1983  0.0369
  159DOPC  H14X19228   0.816   2.792  16.172 -0.1790 -0.0710  2.8568
  159DOPC  H14Y19229   0.671   2.696  16.153 -0.5716  0.5171  0.9002
  159DOPC  C31519230   0.681   2.870  16.011  0.5513 -0.3870 -0.9223
  159DOPC  H15X19231   0.714   2.976  16.023 -1.2922  0.0172  1.2715
  159DOPC  H15Y19232   0.572   2.874  15.989  0.7546 -0.2191 -1.9625
  159DOPC  C31619233   0.762   2.804  15.904 -0.1892  0.3087  0.7596
  159DOPC  H16X19234   0.793   2.876  15.826 -2.0002  1.3843  0.9721
  159DOPC  H16Y19235   0.858   2.773  15.950  0.4890  3.2783  1.5261
  159DOPC  C31719236   0.697   2.683  15.837  0.5235  0.3997  0.0952
  159DOPC  H17X19237   0.661   2.618  15.919  0.1364  1.6293  0.9294
  159DOPC  H17Y19238   0.603   2.699  15.779  0.8467 -1.3402 -1.0088
  159DOPC  C31819239   0.787   2.618  15.738 -0.1748  0.5424 -0.2933
  159DOPC  H18X19240   0.884   2.601  15.790 -0.7687  2.1050  1.4267
  159DOPC  H18Y19241   0.746   2.528  15.686  1.6157 -0.0695 -0.7207
  159DOPC  H18Z19242   0.811   2.690  15.657  1.9800 -0.7022 -0.8348
  160DOPC     N19243   1.116   0.956  16.819  0.3425  0.0463 -0.0635
  160DOPC   C1219244   1.095   0.862  16.942 -0.2366  0.1660  0.3781
  160DOPC  H12A19245   0.990   0.838  16.948  0.0700 -1.5290 -0.5299
  160DOPC  H12B19246   1.129   0.912  17.031  1.4126  1.0763 -0.6986
  160DOPC   C1319247   1.258   1.003  16.824 -0.1572  0.0248 -0.4588
  160DOPC  H13A19248   1.283   1.058  16.913 -2.5901  0.4460  0.0175
  160DOPC  H13B19249   1.309   0.908  16.815  0.1380 -0.2766  2.9917
  160DOPC  H13C19250   1.295   1.057  16.738  3.3159 -1.6405 -0.1931
  160DOPC   C1419251   1.019   1.066  16.823  0.5241 -0.0437 -0.4559
  160DOPC  H14A19252   0.919   1.027  16.810  0.2291  0.1698  1.0506
  160DOPC  H14B19253   1.026   1.126  16.912 -0.9387 -1.3832  0.6284
  160DOPC  H14C19254   1.029   1.136  16.741 -1.8900  0.9661  0.0143
  160DOPC   C1519255   1.095   0.886  16.687 -0.6153  0.7476 -0.0033
  160DOPC  H15A19256   1.169   0.810  16.666 -0.7752  0.8890 -1.1786
  160DOPC  H15B19257   1.090   0.953  16.602 -1.7131  1.1625  0.3664
  160DOPC  H15C19258   0.999   0.837  16.687 -0.6079  0.6896  1.8348
  160DOPC   C1119259   1.174   0.731  16.944  0.2266 -0.5048 -0.4263
  160DOPC  H11A19260   1.145   0.672  17.034 -0.5559  1.8018  0.9160
  160DOPC  H11B19261   1.140   0.664  16.862 -0.0722  0.2438 -0.9275
  160DOPC     P19262   1.409   0.665  16.846  0.8638  0.3545  0.7459
  160DOPC   O1319263   1.391   0.519  16.845  0.1206  0.4303 -0.7055
  160DOPC   O1419264   1.547   0.708  16.883  0.1014 -0.1593  0.6821
  160DOPC   O1219265   1.318   0.740  16.949  0.7205  0.2080  0.1947
  160DOPC   O1119266   1.365   0.719  16.710 -0.4718  0.1436  0.1757
  160DOPC    C119267   1.362   0.639  16.590  0.2650  0.4700  0.6373
  160DOPC    HA19268   1.265   0.658  16.541  0.8597 -0.6352 -1.0624
  160DOPC    HB19269   1.363   0.530  16.607 -2.4071  0.2725 -0.0101
  160DOPC    C219270   1.481   0.688  16.498  0.3738  0.5227  0.0207
  160DOPC    HS19271   1.464   0.798  16.496 -0.9981  0.5282  3.7605
  160DOPC   O2119272   1.461   0.619  16.371 -0.3034  0.6070  0.0044
  160DOPC   C2119273   1.367   0.671  16.292  0.1675  0.1869  0.3364
  160DOPC   O2219274   1.293   0.765  16.320 -1.1269  0.0259  0.1356
  160DOPC   C2219275   1.368   0.582  16.161  0.0147  0.5439  0.2070
  160DOPC   H2R19276   1.364   0.477  16.197 -1.5533  0.8206  0.9039
  160DOPC   H2S19277   1.467   0.590  16.110 -0.2919 -1.9159 -0.9063
  160DOPC    C319278   1.625   0.655  16.539  0.3076 -0.1876 -0.3096
  160DOPC    HX19279   1.638   0.550  16.573 -2.7686 -0.5592  0.0313
  160DOPC    HY19280   1.666   0.724  16.616  1.0645 -0.0034 -0.8674
  160DOPC   O3119281   1.714   0.648  16.419 -0.5011 -0.2045  0.3331
  160DOPC   C3119282   1.734   0.762  16.363 -0.6346 -0.1051  0.3276
  160DOPC   O3219283   1.683   0.865  16.391 -0.0394 -0.3920 -0.1601
  160DOPC   C3219284   1.836   0.743  16.240  0.6682 -0.1560 -0.5749
  160DOPC   H2X19285   1.919   0.815  16.253  0.0865  0.5120 -0.5411
  160DOPC   H2Y19286   1.867   0.636  16.248 -2.5044 -1.2495 -1.3479
  160DOPC   C2319287   1.263   0.620  16.048 -0.0988  0.3617  0.1808
  160DOPC   H3R19288   1.283   0.727  16.028  1.1012  0.6067  2.4220
  160DOPC   H3S19289   1.158   0.619  16.086  0.6488  1.9158  2.4824
  160DOPC   C2419290   1.290   0.541  15.917 -0.3694  0.0287 -0.5352
  160DOPC   H4R19291   1.291   0.432  15.937  0.0660 -0.3021 -2.2414
  160DOPC   H4S19292   1.389   0.568  15.876 -0.1501 -1.5572 -1.1015
  160DOPC   C2519293   1.185   0.574  15.811  0.1114 -0.0686 -0.5034
  160DOPC   H5R19294   1.183   0.679  15.774 -0.5071  0.1215  0.0611
  160DOPC   H5S19295   1.083   0.550  15.847  0.5841 -1.6193 -0.1569
  160DOPC   C2619296   1.200   0.494  15.683 -0.8198  0.3533  0.1109
  160DOPC   H6R19297   1.156   0.398  15.717  0.8447  0.4233  2.7295
  160DOPC   H6S19298   1.307   0.475  15.657 -0.5430  0.5754  1.0339
  160DOPC   C2719299   1.118   0.539  15.559 -0.1440  0.1629  0.2657
  160DOPC   H7R19300   1.120   0.644  15.525 -0.4002 -0.5123 -2.0042
  160DOPC   H7S19301   1.016   0.516  15.599 -0.1661  0.7434  0.5509
  160DOPC   C2819302   1.131   0.444  15.441 -0.8797 -0.4802  0.1223
  160DOPC   H8R19303   1.048   0.466  15.370 -0.2004  1.1846 -0.2082
  160DOPC   H8S19304   1.131   0.342  15.485 -1.0319 -0.3650  0.3931
  160DOPC   C2919305   1.262   0.464  15.362  0.0056  0.0878  0.2469
  160DOPC   H9R19306   1.350   0.430  15.418 -1.1618 -0.7999  1.6316
  160DOPC  C21019307   1.281   0.509  15.239  0.4683 -0.1869  0.9752
  160DOPC  H10R19308   1.377   0.512  15.186  1.0867  1.3324  2.1167
  160DOPC  C21119309   1.176   0.552  15.138 -0.4382  0.5397  0.1153
  160DOPC  H11R19310   1.195   0.659  15.112  2.7682  0.2764  0.9184
  160DOPC  H11S19311   1.074   0.556  15.181 -0.4769  3.3976 -0.0228
  160DOPC  C21219312   1.173   0.458  15.025 -0.1349  0.7939  0.5517
  160DOPC  H12R19313   1.137   0.365  15.073 -0.8797  0.0317 -1.3857
  160DOPC  H12S19314   1.273   0.443  14.978 -1.0009  0.1771 -1.1622
  160DOPC  C21319315   1.076   0.502  14.909 -0.5824  0.1436 -0.9416
  160DOPC  H13R19316   1.114   0.600  14.872 -2.3573  2.1635  2.1552
  160DOPC  H13S19317   0.976   0.533  14.947  0.3408  2.6561 -0.3581
  160DOPC  C21419318   1.054   0.400  14.798  0.4412 -0.2707 -0.9957
  160DOPC  H14R19319   1.006   0.313  14.849  1.4785 -0.3436 -0.1181
  160DOPC  H14S19320   1.151   0.366  14.756  0.2408 -1.9039 -0.2216
  160DOPC  C21519321   0.952   0.439  14.689  0.4036  0.3464 -0.1565
  160DOPC  H15R19322   0.853   0.477  14.723  1.3599  1.6410  1.3512
  160DOPC  H15S19323   0.932   0.344  14.636 -2.0062  1.0541 -0.6314
  160DOPC  C21619324   1.016   0.544  14.600 -0.0869  0.1621 -0.0428
  160DOPC  H16R19325   1.025   0.636  14.660 -1.9559 -0.4332  1.2440
  160DOPC  H16S19326   0.945   0.583  14.524  0.1096  2.1522  0.7534
  160DOPC  C21719327   1.148   0.503  14.532  0.1897  0.4359 -0.4567
  160DOPC  H17R19328   1.146   0.395  14.504  0.6218  0.1502  0.5639
  160DOPC  H17S19329   1.219   0.513  14.617  0.0064 -1.1668 -0.0893
  160DOPC  C21819330   1.183   0.594  14.412  0.0394 -0.9826  0.4027
  160DOPC  H18R19331   1.287   0.571  14.383  0.4588  0.8603  0.3473
  160DOPC  H18S19332   1.183   0.698  14.450 -0.6712 -1.0872  0.6984
  160DOPC  H18T19333   1.119   0.580  14.322  2.4719 -0.8668 -1.4598
  160DOPC   C3319334   1.761   0.780  16.110  0.2928 -0.1879  0.0879
  160DOPC   H3X19335   1.741   0.889  16.113 -1.1173 -0.3636 -1.5523
  160DOPC   H3Y19336   1.665   0.726  16.119  0.9748 -1.6533 -0.9940
  160DOPC   C3419337   1.835   0.730  15.987 -0.3824  0.7257  0.4411
  160DOPC   H4X19338   1.879   0.629  16.005  0.7214  1.2519  0.7772
  160DOPC   H4Y19339   1.920   0.798  15.971 -0.5495  0.9510  0.5061
  160DOPC   C3519340   1.746   0.728  15.861  0.1066 -0.0595 -0.2132
  160DOPC   H5X19341   1.733   0.829  15.817  2.3679 -0.5915 -2.3724
  160DOPC   H5Y19342   1.648   0.685  15.891 -0.6440  1.1019 -0.9408
  160DOPC   C3619343   1.813   0.638  15.744  0.3111  0.3619 -0.4944
  160DOPC   H6X19344   1.908   0.694  15.727 -0.2625  1.8680  0.9840
  160DOPC   H6Y19345   1.816   0.533  15.781 -0.9702  0.9453  1.4175
  160DOPC   C3719346   1.715   0.629  15.622  0.0543 -0.5531 -0.2050
  160DOPC   H7X19347   1.617   0.601  15.666  0.5554 -0.2814  1.1550
  160DOPC   H7Y19348   1.720   0.734  15.585  0.0941 -0.3941  0.2386
  160DOPC   C3819349   1.754   0.524  15.515  0.6366 -0.1197  0.1412
  160DOPC   H8X19350   1.670   0.506  15.445 -0.3613 -2.0649  1.7277
  160DOPC   H8Y19351   1.766   0.421  15.556  1.2400 -0.7392 -1.5380
  160DOPC   C3919352   1.883   0.560  15.442  0.2716 -0.4417  0.0187
  160DOPC   H9X19353   1.978   0.523  15.484  0.1041  0.3180  1.1217
  160DOPC  C31019354   1.891   0.631  15.328 -0.0326 -0.0717 -0.0225
  160DOPC  H10X19355   1.986   0.669  15.286 -1.5319  2.5683 -1.2345
  160DOPC  C31119356   1.774   0.688  15.260 -0.3341  0.0058  0.3262
  160DOPC  H11X19357   1.794   0.788  15.217  1.4177 -0.4051  0.1149
  160DOPC  H11Y19358   1.681   0.701  15.319 -0.1746  0.0487  0.5640
  160DOPC  C31219359   1.738   0.593  15.141  0.2447 -0.1221  0.1517
  160DOPC  H12X19360   1.826   0.589  15.073  0.8457 -0.1193  0.9151
  160DOPC  H12Y19361   1.666   0.653  15.081 -1.3257 -0.3776  1.6932
  160DOPC  C31319362   1.686   0.448  15.182  0.3984 -0.1225  0.5148
  160DOPC  H13X19363   1.756   0.404  15.256 -0.2497 -0.2850  1.0458
  160DOPC  H13Y19364   1.592   0.437  15.240 -0.2870 -0.2825 -0.5865
  160DOPC  C31419365   1.674   0.342  15.065 -0.4839  0.3394 -0.2741
  160DOPC  H14X19366   1.779   0.338  15.028 -1.0164 -1.1759 -1.7560
  160DOPC  H14Y19367   1.643   0.245  15.109  1.1954 -0.1844 -0.1764
  160DOPC  C31519368   1.573   0.378  14.956  0.5957 -0.3436  0.3003
  160DOPC  H15X19369   1.584   0.489  14.957  3.4404 -0.5226 -1.2622
  160DOPC  H15Y19370   1.469   0.355  14.989 -0.3703  1.6404 -1.0997
  160DOPC  C31619371   1.599   0.316  14.812  0.0563  0.4519  0.7071
  160DOPC  H16X19372   1.682   0.372  14.763 -0.3106 -0.1122 -0.6036
  160DOPC  H16Y19373   1.628   0.209  14.814 -0.1266  0.4159  1.6846
  160DOPC  C31719374   1.481   0.332  14.719 -0.2588 -0.5009  0.1862
  160DOPC  H17X19375   1.421   0.422  14.746 -1.1609 -1.2284  0.6877
  160DOPC  H17Y19376   1.529   0.362  14.624 -1.1735 -2.1482 -0.8311
  160DOPC  C31819377   1.393   0.207  14.695  0.4624 -0.3409  0.2808
  160DOPC  H18X19378   1.461   0.121  14.677  0.0760 -0.6764  0.4069
  160DOPC  H18Y19379   1.332   0.191  14.787 -0.5356  0.1125 -0.2999
  160DOPC  H18Z19380   1.325   0.222  14.609  0.9842  0.9095  0.0616
  161DOPC     N19381   6.313   0.088  16.839  0.8671 -0.0307  0.2938
  161DOPC   C1219382   6.420   0.113  16.743  0.0756 -0.1346  0.0277
  161DOPC  H12A19383   6.380   0.099  16.643 -0.6811 -0.2109  0.3366
  161DOPC  H12B19384   6.496   0.039  16.767  0.9563 -0.7428 -3.8972
  161DOPC   C1319385   6.364   0.094  16.982  0.2120  0.2015  1.1182
  161DOPC  H13A19386   6.423   0.184  16.990  2.0740 -0.5885 -2.0800
  161DOPC  H13B19387   6.278   0.103  17.047 -0.2075  0.5997  0.5114
  161DOPC  H13C19388   6.412   0.003  17.014 -1.2496 -2.1434 -2.6787
  161DOPC   C1419389   6.262  -0.051  16.821  0.2941 -0.1840  0.0420
  161DOPC  H14A19390   6.168  -0.058  16.874  0.7324 -1.3951  0.6955
  161DOPC  H14B19391   6.239  -0.092  16.724 -2.3525 -0.8943  0.8765
  161DOPC  H14C19392   6.335  -0.116  16.867  1.2649 -0.0854 -1.2867
  161DOPC   C1519393   6.197   0.180  16.827  0.7679 -0.3734  0.1331
  161DOPC  H15A19394   6.111   0.157  16.888  0.6172  0.9364  0.4235
  161DOPC  H15B19395   6.162   0.182  16.725  1.9289  0.1942 -0.2687
  161DOPC  H15C19396   6.216   0.281  16.857  1.2265 -1.1825  2.8026
  161DOPC   C1119397   6.481   0.250  16.734 -0.6455 -0.0555  0.3663
  161DOPC  H11A19398   6.542   0.264  16.642 -1.5363 -1.7309 -0.5276
  161DOPC  H11B19399   6.397   0.323  16.730 -1.1325 -0.6542 -1.2269
  161DOPC     P19400   6.585   0.432  16.893 -0.1629 -0.2375 -0.0620
  161DOPC   O1319401   6.720   0.448  16.953 -0.6252 -0.0214 -0.1500
  161DOPC   O1419402   6.468   0.482  16.966  0.2444 -0.1126  0.2654
  161DOPC   O1219403   6.553   0.279  16.857  0.7764 -0.7366  0.2081
  161DOPC   O1119404   6.589   0.505  16.756  0.2718 -0.2518  0.1576
  161DOPC    C119405   6.715   0.504  16.688  0.3877 -0.0630  0.1316
  161DOPC    HA19406   6.766   0.405  16.690 -2.1619 -1.5437 -1.9938
  161DOPC    HB19407   6.779   0.584  16.730  1.1247 -0.0704 -0.9187
  161DOPC    C219408   6.696   0.535  16.539  0.9274  0.6513  0.3635
  161DOPC    HS19409   6.632   0.625  16.532 -0.8268 -0.6143 -0.6402
  161DOPC   O2119410   6.642   0.413  16.475  0.0684  0.5261  0.0203
  161DOPC   C2119411   6.562   0.431  16.376 -0.2583 -0.5565 -0.0202
  161DOPC   O2219412   6.513   0.534  16.335  0.7150  0.1519 -0.0627
  161DOPC   C2219413   6.521   0.297  16.321  0.1346 -0.6729  0.2758
  161DOPC   H2R19414   6.483   0.228  16.399  1.6374 -0.6764  1.0299
  161DOPC   H2S19415   6.612   0.246  16.283  1.2226  1.5889 -0.3383
  161DOPC    C319416   6.825   0.567  16.468  0.0599  0.4117 -0.1860
  161DOPC    HX19417   6.891   0.479  16.486 -2.0308 -0.9937  1.0408
  161DOPC    HY19418   6.872   0.657  16.513 -1.5774  1.0445  0.3255
  161DOPC   O3119419   6.806   0.578  16.329  0.2706  0.5740 -0.4799
  161DOPC   C3119420   6.780   0.696  16.267  0.4691  0.1933 -0.0330
  161DOPC   O3219421   6.786   0.806  16.316 -0.6010  0.0300 -0.4291
  161DOPC   C3219422   6.735   0.655  16.130  0.3360 -0.4439  0.6099
  161DOPC   H2X19423   6.808   0.575  16.105  1.6188  0.9453 -0.2511
  161DOPC   H2Y19424   6.634   0.612  16.142  0.2252  0.1327  1.8974
  161DOPC   C2319425   6.419   0.304  16.203  0.4053 -0.1971  0.2057
  161DOPC   H3R19426   6.465   0.355  16.116 -0.8079  0.1189 -0.2746
  161DOPC   H3S19427   6.327   0.355  16.239 -0.6328 -1.0887 -1.0516
  161DOPC   C2419428   6.369   0.170  16.150 -0.5382  0.4010  0.2341
  161DOPC   H4R19429   6.339   0.109  16.237 -0.5184 -0.6584 -0.4820
  161DOPC   H4S19430   6.448   0.120  16.089 -0.6007 -0.6737  1.0274
  161DOPC   C2519431   6.232   0.186  16.067 -0.4316  0.4726  0.0314
  161DOPC   H5R19432   6.161   0.252  16.120 -2.2049  0.6527 -2.3905
  161DOPC   H5S19433   6.186   0.086  16.054  1.6100 -0.4199 -0.7755
  161DOPC   C2619434   6.250   0.241  15.929 -0.3524  0.3109 -0.2855
  161DOPC   H6R19435   6.300   0.340  15.926  1.0673 -0.3930 -0.6781
  161DOPC   H6S19436   6.146   0.261  15.894 -0.4616  1.5663  0.7072
  161DOPC   C2719437   6.336   0.166  15.825  0.3737  0.5560 -0.0994
  161DOPC   H7R19438   6.295   0.062  15.827 -0.5251  0.8979 -0.0388
  161DOPC   H7S19439   6.442   0.171  15.857  0.4690 -0.4769 -0.2019
  161DOPC   C2819440   6.320   0.221  15.682 -0.0050  0.3820  0.8237
  161DOPC   H8R19441   6.212   0.245  15.672 -0.0169  0.3229  0.8112
  161DOPC   H8S19442   6.342   0.131  15.622  3.1559 -0.1165  2.5570
  161DOPC   C2919443   6.406   0.345  15.657  0.1037 -0.3473 -0.2822
  161DOPC   H9R19444   6.402   0.418  15.738 -1.8978 -1.3027  0.5396
  161DOPC  C21019445   6.463   0.384  15.545  0.5762  0.3848  0.9974
  161DOPC  H10R19446   6.516   0.480  15.546  0.0165  0.7248  0.0391
  161DOPC  C21119447   6.440   0.309  15.415  0.7314  0.1029 -0.3500
  161DOPC  H11R19448   6.349   0.245  15.412 -0.8321  2.1561  0.9424
  161DOPC  H11S19449   6.529   0.245  15.396  0.2871  0.1467 -2.9062
  161DOPC  C21219450   6.433   0.406  15.295 -0.0688 -0.3852 -0.3494
  161DOPC  H12R19451   6.523   0.470  15.280 -2.1923  2.6745 -0.9540
  161DOPC  H12S19452   6.349   0.474  15.322  1.7918  2.4344 -1.1583
  161DOPC  C21319453   6.412   0.352  15.159  1.2439  0.0555  0.0408
  161DOPC  H13R19454   6.324   0.284  15.158  0.2911  1.2100  1.3921
  161DOPC  H13S19455   6.500   0.297  15.121  0.2781 -0.6281 -1.2704
  161DOPC  C21419456   6.385   0.457  15.054 -0.1616  0.4544 -0.5677
  161DOPC  H14R19457   6.473   0.523  15.036 -0.8117  1.0054 -1.8283
  161DOPC  H14S19458   6.296   0.522  15.067 -0.7905 -0.2161 -1.3872
  161DOPC  C21519459   6.362   0.395  14.914  0.4886  0.0006  1.0731
  161DOPC  H15R19460   6.357   0.479  14.841 -1.0955 -0.1029  1.0348
  161DOPC  H15S19461   6.268   0.337  14.910  0.0923  0.5623  1.9656
  161DOPC  C21619462   6.485   0.316  14.865 -0.0371  0.4480  0.0078
  161DOPC  H16R19463   6.494   0.225  14.929 -1.2171 -1.2610 -2.0972
  161DOPC  H16S19464   6.575   0.373  14.897  0.1526 -0.0835  0.4551
  161DOPC  C21719465   6.493   0.275  14.720 -0.7814 -0.3362 -0.0584
  161DOPC  H17R19466   6.584   0.216  14.697 -0.2045 -0.5083  2.3800
  161DOPC  H17S19467   6.507   0.369  14.663 -0.7470 -0.5954 -0.4780
  161DOPC  C21819468   6.368   0.193  14.676 -0.6348 -0.4938  0.3346
  161DOPC  H18R19469   6.374   0.088  14.711 -1.9394 -0.7115 -0.0599
  161DOPC  H18S19470   6.365   0.177  14.566 -0.1026 -1.5079  0.4486
  161DOPC  H18T19471   6.275   0.247  14.700  0.6404  1.3210  1.3937
  161DOPC   C3319472   6.737   0.768  16.021  0.0187 -1.2583  0.7180
  161DOPC   H3X19473   6.842   0.794  15.997 -0.4695  0.9143  0.7359
  161DOPC   H3Y19474   6.682   0.852  16.069  1.1614 -1.4017  2.3891
  161DOPC   C3419475   6.667   0.722  15.889 -0.2246  0.6936  0.6589
  161DOPC   H4X19476   6.560   0.703  15.908  0.4092 -1.1865  2.6791
  161DOPC   H4Y19477   6.703   0.625  15.849 -2.5473 -0.3506  0.9772
  161DOPC   C3519478   6.686   0.834  15.786  0.4048  0.4168  0.4772
  161DOPC   H5X19479   6.787   0.880  15.781  0.2953  0.5449 -1.6050
  161DOPC   H5Y19480   6.620   0.921  15.810 -0.3966 -0.1827  0.5010
  161DOPC   C3619481   6.642   0.772  15.653 -0.7581 -0.7748  0.7635
  161DOPC   H6X19482   6.706   0.683  15.640 -2.8903 -2.4017  0.7924
  161DOPC   H6Y19483   6.537   0.736  15.655 -0.4641 -1.6431  1.0653
  161DOPC   C3719484   6.671   0.864  15.536 -0.0785  0.1637  0.2154
  161DOPC   H7X19485   6.611   0.957  15.537 -1.9719 -0.9921 -0.5342
  161DOPC   H7Y19486   6.776   0.900  15.542 -0.6484  2.3039 -1.4729
  161DOPC   C3819487   6.650   0.793  15.394  0.1789  0.2074 -0.1152
  161DOPC   H8X19488   6.543   0.771  15.374  0.2452 -0.0766 -0.1673
  161DOPC   H8Y19489   6.706   0.698  15.413  1.2285  1.2625  2.5437
  161DOPC   C3919490   6.717   0.869  15.285  0.2369  0.2593 -0.5303
  161DOPC   H9X19491   6.819   0.900  15.311  0.1993 -0.5723  0.7043
  161DOPC  C31019492   6.667   0.901  15.161 -0.3355  0.0125 -0.7930
  161DOPC  H10X19493   6.735   0.946  15.087 -0.6898  0.4002 -0.8914
  161DOPC  C31119494   6.533   0.882  15.107  0.3377  0.1096 -0.0967
  161DOPC  H11X19495   6.463   0.941  15.170  0.0528  0.3650 -0.6390
  161DOPC  H11Y19496   6.500   0.778  15.129 -0.7716  0.7617  1.5132
  161DOPC  C31219497   6.508   0.926  14.961  0.1605  0.0637  0.1004
  161DOPC  H12X19498   6.517   1.036  14.956  0.6811 -0.0217 -1.2464
  161DOPC  H12Y19499   6.408   0.895  14.923  0.5353  0.7452 -1.5324
  161DOPC  C31319500   6.597   0.851  14.858 -0.5559 -0.1428  0.3962
  161DOPC  H13X19501   6.699   0.855  14.902 -0.6453  1.7616  0.5037
  161DOPC  H13Y19502   6.558   0.747  14.858 -0.9070 -0.0256 -0.4346
  161DOPC  C31419503   6.618   0.911  14.724 -0.1442  0.0019  0.3863
  161DOPC  H14X19504   6.641   1.020  14.733  1.7207 -0.3329  0.1805
  161DOPC  H14Y19505   6.706   0.866  14.673 -0.1924 -1.7212  1.7361
  161DOPC  C31519506   6.490   0.909  14.637 -0.4306 -1.1234 -0.0767
  161DOPC  H15X19507   6.398   0.934  14.693 -0.0825 -0.1555  0.0733
  161DOPC  H15Y19508   6.483   0.799  14.623 -2.6202 -0.8133 -2.0950
  161DOPC  C31619509   6.501   0.992  14.507  0.1233  1.4335  0.3225
  161DOPC  H16X19510   6.532   1.093  14.539  4.2936  0.4289  0.0170
  161DOPC  H16Y19511   6.587   0.953  14.449 -0.1988 -0.5370  1.0790
  161DOPC  C31719512   6.376   0.989  14.413 -0.9061  0.1417 -0.1588
  161DOPC  H17X19513   6.392   1.074  14.343  0.4848  0.2923  0.3107
  161DOPC  H17Y19514   6.384   0.897  14.351 -3.8039 -0.1746 -0.1873
  161DOPC  C31819515   6.240   1.004  14.484 -0.1104  0.3114  0.1244
  161DOPC  H18X19516   6.155   1.021  14.413 -0.1844 -0.0735  0.1197
  161DOPC  H18Y19517   6.226   0.918  14.553 -2.5110 -1.0553 -1.8822
  161DOPC  H18Z19518   6.230   1.094  14.548 -1.7054  0.1600  0.1457
  162DOPC     N19519   4.554   0.239  17.301  0.8619 -0.3431  0.0935
  162DOPC   C1219520   4.429   0.201  17.226  0.7624 -0.4976  0.3766
  162DOPC  H12A19521   4.448   0.203  17.119 -0.9496 -1.5559  0.0085
  162DOPC  H12B19522   4.350   0.265  17.262 -0.2443 -2.1831  1.3256
  162DOPC   C1319523   4.527   0.235  17.448  0.2009  0.2486  0.1645
  162DOPC  H13A19524   4.495   0.134  17.470 -0.5350 -0.0577 -2.0087
  162DOPC  H13B19525   4.607   0.267  17.513  0.9446 -1.8519  0.3556
  162DOPC  H13C19526   4.440   0.298  17.464 -0.0819  0.3642 -1.6229
  162DOPC   C1419527   4.581   0.382  17.270 -0.5520  0.2765 -0.2623
  162DOPC  H14A19528   4.503   0.446  17.309 -0.1438  0.5629  0.0958
  162DOPC  H14B19529   4.679   0.403  17.308 -0.0242 -1.3958 -0.6113
  162DOPC  H14C19530   4.584   0.396  17.163  1.2110  1.9949 -0.0532
  162DOPC   C1519531   4.668   0.151  17.267 -0.5499  0.1953  0.5501
  162DOPC  H15A19532   4.758   0.180  17.319  0.2438 -1.3112  0.0681
  162DOPC  H15B19533   4.703   0.165  17.166  0.1887  0.7130  0.8689
  162DOPC  H15C19534   4.650   0.046  17.284  2.3599 -0.6726 -1.0236
  162DOPC   C1119535   4.368   0.063  17.248 -0.6980 -0.0460 -0.5023
  162DOPC  H11A19536   4.291   0.031  17.175 -0.5093  0.3064 -0.8602
  162DOPC  H11B19537   4.447  -0.015  17.237 -0.4154  0.1695  0.0020
  162DOPC     P19538   4.170   0.092  17.425 -0.0047  0.3372 -0.0234
  162DOPC   O1319539   4.161   0.126  17.565 -0.1732  0.2195 -0.5012
  162DOPC   O1419540   4.088  -0.023  17.379  0.1078 -0.0242 -0.2368
  162DOPC   O1219541   4.321   0.061  17.389  0.3574  0.5705  0.5663
  162DOPC   O1119542   4.141   0.223  17.339 -0.1643 -0.2061 -0.0978
  162DOPC    C119543   4.021   0.252  17.271 -0.1900 -0.5350  0.5057
  162DOPC    HA19544   3.971   0.337  17.322 -0.9091 -0.1450 -0.7999
  162DOPC    HB19545   3.947   0.169  17.271 -0.5064 -0.3941 -2.7965
  162DOPC    C219546   4.038   0.291  17.116  0.4588  0.1490 -0.1469
  162DOPC    HS19547   3.946   0.325  17.065  0.7720  1.9983  0.4365
  162DOPC   O2119548   4.102   0.180  17.045 -0.1086  0.0796  0.1901
  162DOPC   C2119549   4.018   0.082  17.014  0.5989  0.2785  0.0673
  162DOPC   O2219550   3.896   0.076  17.029 -0.0861  0.1801 -0.3032
  162DOPC   C2219551   4.086  -0.018  16.920 -0.4142  0.0749  0.1544
  162DOPC   H2R19552   4.010  -0.022  16.838 -1.0440  0.0136  0.7339
  162DOPC   H2S19553   4.077  -0.118  16.967 -0.5120  0.3777  0.7942
  162DOPC    C319554   4.136   0.417  17.103  0.5234  0.0611  0.1288
  162DOPC    HX19555   4.217   0.402  17.176  1.1017  1.0921 -0.2781
  162DOPC    HY19556   4.086   0.511  17.136  0.9630  2.3224 -4.7290
  162DOPC   O3119557   4.165   0.451  16.970  0.1482  0.6906  0.0341
  162DOPC   C3119558   4.287   0.428  16.928 -0.0433 -0.1846 -0.4131
  162DOPC   O3219559   4.380   0.372  16.987  0.2628  0.3559  0.2679
  162DOPC   C3219560   4.299   0.496  16.788  0.6595 -0.1007 -0.0539
  162DOPC   H2X19561   4.257   0.599  16.795  0.9428  0.0332 -0.2924
  162DOPC   H2Y19562   4.408   0.510  16.768  0.5860  0.2302 -0.2325
  162DOPC   C2319563   4.223   0.009  16.855 -0.0929  0.0291 -0.7396
  162DOPC   H3R19564   4.301  -0.023  16.928 -1.0950 -2.8388 -0.8206
  162DOPC   H3S19565   4.245   0.115  16.827  1.8198 -0.1753 -0.1615
  162DOPC   C2419566   4.235  -0.075  16.732 -0.2746 -0.1980  0.7687
  162DOPC   H4R19567   4.153  -0.064  16.658 -0.4396 -3.1086  0.3902
  162DOPC   H4S19568   4.232  -0.178  16.775  0.5785  0.7236  3.1997
  162DOPC   C2519569   4.359  -0.051  16.645 -0.7892 -0.9251 -0.3730
  162DOPC   H5R19570   4.442  -0.100  16.700  0.2037  0.3975 -0.6510
  162DOPC   H5S19571   4.396   0.053  16.640 -0.4546 -0.7279  3.4952
  162DOPC   C2619572   4.356  -0.116  16.499  0.3917 -0.2065  0.5199
  162DOPC   H6R19573   4.310  -0.038  16.434  0.5918  0.0956  0.7383
  162DOPC   H6S19574   4.286  -0.202  16.504 -1.6834  1.3982  0.7529
  162DOPC   C2719575   4.495  -0.154  16.447 -0.5446  0.3960  0.0871
  162DOPC   H7R19576   4.540  -0.233  16.511 -1.1571  1.0833  1.3998
  162DOPC   H7S19577   4.555  -0.062  16.462  1.1631 -0.9068  1.8213
  162DOPC   C2819578   4.485  -0.198  16.306 -0.1525  0.2102 -0.0804
  162DOPC   H8R19579   4.406  -0.276  16.296  1.2068 -1.1522 -0.6484
  162DOPC   H8S19580   4.577  -0.253  16.277  0.5684  0.8559  0.9524
  162DOPC   C2919581   4.475  -0.084  16.206  0.2091 -0.6749 -0.6660
  162DOPC   H9R19582   4.424   0.003  16.250  1.2912 -0.4511  0.1826
  162DOPC  C21019583   4.517  -0.080  16.079  0.3882 -0.2532 -0.6068
  162DOPC  H10R19584   4.491   0.010  16.022 -1.8220 -0.2864  0.2523
  162DOPC  C21119585   4.582  -0.190  16.003  0.2023  0.0385 -0.3965
  162DOPC  H11R19586   4.613  -0.270  16.073  0.0845 -0.0968 -0.4980
  162DOPC  H11S19587   4.673  -0.151  15.951 -0.7740  0.1051 -2.1508
  162DOPC  C21219588   4.483  -0.256  15.903 -0.7212 -0.2801 -0.1489
  162DOPC  H12R19589   4.402  -0.305  15.963 -1.3010  0.8456  0.0087
  162DOPC  H12S19590   4.534  -0.333  15.842 -0.9384 -0.8707  0.4016
  162DOPC  C21319591   4.429  -0.160  15.796 -0.0257  0.6022 -0.5078
  162DOPC  H13R19592   4.504  -0.106  15.734  0.5267 -0.1309 -0.4854
  162DOPC  H13S19593   4.357  -0.086  15.838  0.9142  0.8723  0.6673
  162DOPC  C21419594   4.349  -0.239  15.694  0.6132  0.5468  0.4483
  162DOPC  H14R19595   4.266  -0.303  15.733 -0.3955 -0.8937 -3.6084
  162DOPC  H14S19596   4.426  -0.313  15.664 -0.5929 -0.3612 -0.5640
  162DOPC  C21519597   4.305  -0.147  15.582 -0.2300  0.0344  0.2330
  162DOPC  H15R19598   4.393  -0.082  15.563 -0.3319 -0.6150 -3.2614
  162DOPC  H15S19599   4.224  -0.083  15.623 -0.1357  0.9743 -1.0042
  162DOPC  C21619600   4.268  -0.221  15.444 -0.2415 -0.1038  0.0008
  162DOPC  H16R19601   4.239  -0.138  15.376 -0.2684  0.4082  0.6288
  162DOPC  H16S19602   4.172  -0.277  15.458 -0.7197  0.3086 -1.4913
  162DOPC  C21719603   4.379  -0.302  15.379  0.7115 -0.2699  0.3667
  162DOPC  H17R19604   4.412  -0.384  15.446  2.0927  1.0379  1.3569
  162DOPC  H17S19605   4.480  -0.255  15.386  0.5463  0.0359  0.7568
  162DOPC  C21819606   4.351  -0.356  15.240  0.2909 -0.5765  0.1887
  162DOPC  H18R19607   4.325  -0.269  15.176 -0.4711 -0.7992  0.1819
  162DOPC  H18S19608   4.269  -0.430  15.248 -0.2299 -0.2420 -1.5507
  162DOPC  H18T19609   4.442  -0.395  15.189  0.8558  1.0703 -0.1386
  162DOPC   C3319610   4.243   0.412  16.674  0.5410 -0.3805  0.4091
  162DOPC   H3X19611   4.289   0.311  16.679 -2.3552 -1.7545  1.2890
  162DOPC   H3Y19612   4.276   0.457  16.578  0.9577  0.0688  0.7552
  162DOPC   C3419613   4.090   0.404  16.661  0.3549 -0.4383  0.3782
  162DOPC   H4X19614   4.057   0.505  16.628  3.1255  1.0048  1.6871
  162DOPC   H4Y19615   4.035   0.385  16.756 -1.4244  2.9903  0.1916
  162DOPC   C3519616   4.038   0.291  16.562 -0.9191 -0.5713  0.3052
  162DOPC   H5X19617   3.936   0.319  16.530 -0.7580  2.8657  2.3023
  162DOPC   H5Y19618   4.053   0.193  16.611 -1.7884 -1.5020 -1.1954
  162DOPC   C3619619   4.120   0.296  16.427  0.2719 -0.0970 -0.0485
  162DOPC   H6X19620   4.134   0.402  16.400 -3.8150  0.4685 -0.6550
  162DOPC   H6Y19621   4.222   0.254  16.441  0.6673  0.6622 -0.5940
  162DOPC   C3719622   4.038   0.233  16.305  0.2892  0.3588 -0.4135
  162DOPC   H7X19623   3.977   0.149  16.346 -0.2381  0.7112 -0.4728
  162DOPC   H7Y19624   3.965   0.311  16.274  2.6302  3.2090  0.8211
  162DOPC   C3819625   4.118   0.182  16.192  0.1638  0.2578  0.6396
  162DOPC   H8X19626   4.048   0.155  16.110  0.7382 -0.8446  0.5046
  162DOPC   H8Y19627   4.180   0.098  16.228 -1.1108 -0.5957  0.9043
  162DOPC   C3919628   4.211   0.284  16.125 -0.1464  0.2836  0.0741
  162DOPC   H9X19629   4.260   0.359  16.189 -0.4823 -1.5167  2.5770
  162DOPC  C31019630   4.210   0.301  15.993  0.1650 -0.1869  0.6726
  162DOPC  H10X19631   4.276   0.377  15.948  0.2781 -0.0614  1.0553
  162DOPC  C31119632   4.140   0.222  15.883  0.1086  0.3467 -0.6474
  162DOPC  H11X19633   4.030   0.237  15.889  0.1793  1.9404 -2.3818
  162DOPC  H11Y19634   4.150   0.111  15.887  0.6742  0.2841 -2.6086
  162DOPC  C31219635   4.183   0.264  15.740  0.2114  0.0302 -0.6267
  162DOPC  H12X19636   4.285   0.234  15.710 -0.2169 -0.9985 -1.1255
  162DOPC  H12Y19637   4.169   0.374  15.740  1.2223  0.1842 -1.8867
  162DOPC  C31319638   4.094   0.204  15.634 -0.4073  0.3235  0.4834
  162DOPC  H13X19639   4.056   0.100  15.648 -3.6072  1.2293 -0.6506
  162DOPC  H13Y19640   3.998   0.257  15.617  0.1470  0.5559 -2.4924
  162DOPC  C31419641   4.167   0.198  15.496  0.9521  0.2165 -0.2351
  162DOPC  H14X19642   4.192   0.300  15.459  0.0933  0.6246  0.2789
  162DOPC  H14Y19643   4.265   0.147  15.506  0.7833 -0.6255 -2.4176
  162DOPC  C31519644   4.083   0.140  15.379  0.3027  0.2926 -0.1075
  162DOPC  H15X19645   4.001   0.215  15.370 -1.6850 -1.5976  1.2919
  162DOPC  H15Y19646   4.034   0.043  15.402  1.0745  0.1744  1.1600
  162DOPC  C31619647   4.160   0.134  15.247  0.6138  0.5528 -0.5226
  162DOPC  H16X19648   4.200   0.236  15.229 -2.3860  1.7980 -0.8428
  162DOPC  H16Y19649   4.240   0.058  15.253  0.6146  0.6355  0.6526
  162DOPC  C31719650   4.068   0.117  15.122  0.2750 -0.3421  0.6280
  162DOPC  H17X19651   3.987   0.041  15.131 -1.9008  1.9310  1.2918
  162DOPC  H17Y19652   4.012   0.212  15.108 -0.9026 -1.0663  0.3245
  162DOPC  C31819653   4.150   0.088  14.993 -0.2987  0.0764 -0.1859
  162DOPC  H18X19654   4.076   0.081  14.911 -0.7584 -0.4251  0.2602
  162DOPC  H18Y19655   4.223   0.170  14.975  0.6445 -0.7991 -0.3882
  162DOPC  H18Z19656   4.205  -0.008  15.002  2.8353  1.6783 -0.7485
  163DOPC     N19657   3.329   2.809  17.941  0.2538 -0.6208 -0.3783
  163DOPC   C1219658   3.215   2.904  17.897  1.0338 -0.0392  0.3403
  163DOPC  H12A19659   3.241   3.006  17.922  0.2398  0.3930 -0.5300
  163DOPC  H12B19660   3.137   2.879  17.968  1.1930  1.2900  1.0187
  163DOPC   C1319661   3.295   2.671  17.893 -0.4774  0.6726 -0.4880
  163DOPC  H13A19662   3.188   2.655  17.902 -0.4547 -1.2136 -2.5181
  163DOPC  H13B19663   3.319   2.653  17.789  1.0844 -0.3326  0.0195
  163DOPC  H13C19664   3.350   2.604  17.957  0.1806  1.0481 -0.6537
  163DOPC   C1419665   3.333   2.806  18.090  0.5000 -0.1015 -0.1966
  163DOPC  H14A19666   3.244   2.767  18.139  0.7232  1.4212  1.5020
  163DOPC  H14B19667   3.417   2.751  18.128  1.9614  1.1277 -1.5192
  163DOPC  H14C19668   3.337   2.905  18.131 -2.3720  1.1435 -2.5668
  163DOPC   C1519669   3.460   2.859  17.888  0.3699  0.3102  0.2779
  163DOPC  H15A19670   3.455   2.896  17.786  0.2415  0.9858  0.5227
  163DOPC  H15B19671   3.529   2.776  17.891  0.4888  0.1018 -3.4641
  163DOPC  H15C19672   3.487   2.944  17.948 -2.9392  0.5988  1.5592
  163DOPC   C1119673   3.181   2.923  17.749 -0.0442  0.1935 -0.0981
  163DOPC  H11A19674   3.277   2.923  17.692  1.3863 -0.0416  2.1709
  163DOPC  H11B19675   3.114   2.840  17.717 -2.2013  0.9730  2.1076
  163DOPC     P19676   3.138   3.165  17.641 -0.1989  0.2845 -0.1032
  163DOPC   O1319677   3.283   3.194  17.636 -0.0454  0.4524 -0.4207
  163DOPC   O1419678   3.050   3.277  17.676  0.5247  0.1305 -0.7638
  163DOPC   O1219679   3.104   3.045  17.741 -0.2335 -0.0808  0.3193
  163DOPC   O1119680   3.108   3.106  17.496  0.4840  0.0597 -0.4161
  163DOPC    C119681   2.977   3.110  17.440  0.3814  0.1884 -0.3873
  163DOPC    HA19682   2.904   3.182  17.482  0.0160 -0.5331  0.2381
  163DOPC    HB19683   2.935   3.009  17.463  1.8507 -0.0667  1.4477
  163DOPC    C219684   2.981   3.126  17.287 -0.3597  0.2086 -0.5695
  163DOPC    HS19685   3.056   3.062  17.236 -0.1727 -0.4493  0.4890
  163DOPC   O2119686   2.994   3.259  17.240 -0.2238 -0.2962 -0.3705
  163DOPC   C2119687   3.119   3.299  17.220  0.7883 -0.3436 -0.6958
  163DOPC   O2219688   3.223   3.231  17.242  0.7630 -0.0164  0.4338
  163DOPC   C2219689   3.116   3.436  17.151 -0.0089 -0.3875 -0.4400
  163DOPC   H2R19690   3.219   3.478  17.147  0.2607 -0.9634  0.2059
  163DOPC   H2S19691   3.063   3.506  17.219 -0.5178 -0.8940 -0.3117
  163DOPC    C319692   2.844   3.074  17.230  0.6110  0.4485 -0.7068
  163DOPC    HX19693   2.756   3.121  17.277  0.2349  0.8952 -1.8262
  163DOPC    HY19694   2.833   2.968  17.262 -0.4754  0.5877 -0.6056
  163DOPC   O3119695   2.845   3.089  17.089  0.3529 -0.3685 -0.0497
  163DOPC   C3119696   2.913   2.995  17.020 -0.7386  0.2425  0.2940
  163DOPC   O3219697   2.983   2.910  17.070  0.3870 -0.2952  0.4286
  163DOPC   C3219698   2.890   3.017  16.874  0.1135 -0.4427  0.4622
  163DOPC   H2X19699   2.784   2.986  16.860  0.7704 -2.3447 -0.6393
  163DOPC   H2Y19700   2.888   3.122  16.837  0.1047 -1.0350 -1.3063
  163DOPC   C2319701   3.030   3.443  17.017 -0.1603 -0.0028  0.7042
  163DOPC   H3R19702   3.024   3.552  16.992 -2.7124 -0.3703 -0.6402
  163DOPC   H3S19703   2.928   3.400  17.032 -0.5316  1.0696  1.3889
  163DOPC   C2419704   3.103   3.383  16.893  0.8377 -0.2886  0.1989
  163DOPC   H4R19705   3.133   3.279  16.917  2.1151  0.1611  0.6047
  163DOPC   H4S19706   3.201   3.429  16.866  1.1844 -1.7045 -1.1297
  163DOPC   C2519707   3.015   3.387  16.764  0.0757 -0.6029  0.2122
  163DOPC   H5R19708   2.970   3.488  16.758  1.3500 -0.0098  0.3946
  163DOPC   H5S19709   2.930   3.317  16.783 -0.5989  0.3827  0.8964
  163DOPC   C2619710   3.088   3.343  16.633  0.2358 -0.0810 -0.5237
  163DOPC   H6R19711   3.135   3.244  16.649  0.6300  0.3930  1.6356
  163DOPC   H6S19712   3.168   3.420  16.624  0.1618 -0.0580 -0.9651
  163DOPC   C2719713   3.012   3.343  16.501 -0.5850 -0.3742 -0.1003
  163DOPC   H7R19714   2.956   3.438  16.502  2.8760  1.8768 -1.2911
  163DOPC   H7S19715   2.930   3.269  16.505 -2.0140  1.1797  0.1925
  163DOPC   C2819716   3.100   3.340  16.375  0.1738  1.0630 -1.1818
  163DOPC   H8R19717   3.152   3.243  16.359 -0.6267  0.6494 -1.3288
  163DOPC   H8S19718   3.186   3.408  16.395  0.2842  0.7860 -0.6934
  163DOPC   C2919719   3.017   3.379  16.262  0.1153 -0.4944  0.7487
  163DOPC   H9R19720   2.920   3.423  16.289  0.2373 -0.4776  1.1597
  163DOPC  C21019721   3.028   3.345  16.132  0.2431 -0.1583 -0.6697
  163DOPC  H10R19722   2.935   3.358  16.075 -1.9082 -1.4320  2.3048
  163DOPC  C21119723   3.133   3.262  16.065 -0.2469  0.5003 -0.1753
  163DOPC  H11R19724   3.095   3.170  16.015 -1.2112  1.3494 -1.0647
  163DOPC  H11S19725   3.203   3.226  16.143  0.4534  3.1608  0.5265
  163DOPC  C21219726   3.210   3.347  15.968  0.3186 -0.1370 -0.1046
  163DOPC  H12R19727   3.308   3.296  15.955  0.2264 -0.5110  0.6286
  163DOPC  H12S19728   3.230   3.443  16.019 -1.1062 -1.4287  3.1273
  163DOPC  C21319729   3.142   3.357  15.833 -0.3917 -0.2474  0.2437
  163DOPC  H13R19730   3.037   3.388  15.852 -0.1252  0.2566  0.9517
  163DOPC  H13S19731   3.147   3.259  15.782  0.8742 -0.3378  0.5054
  163DOPC  C21419732   3.202   3.468  15.732 -0.4444 -0.6681 -0.6808
  163DOPC  H14R19733   3.309   3.443  15.718 -0.4188 -1.0600  0.1755
  163DOPC  H14S19734   3.197   3.571  15.775  0.2399 -0.7230 -0.4635
  163DOPC  C21519735   3.132   3.475  15.593 -0.2174 -0.6045 -0.1597
  163DOPC  H15R19736   3.119   3.376  15.546  0.1777 -1.0143  0.5808
  163DOPC  H15S19737   3.195   3.532  15.521 -0.4384  0.7708  0.6962
  163DOPC  C21619738   2.993   3.540  15.596  0.4558 -0.2309  0.1858
  163DOPC  H16R19739   3.005   3.641  15.642 -0.9997 -0.5221  1.3185
  163DOPC  H16S19740   2.934   3.483  15.671  0.3372  1.0888  1.1482
  163DOPC  C21719741   2.913   3.549  15.467  0.0745  0.4128  0.7246
  163DOPC  H17R19742   2.917   3.452  15.414  1.0372  0.3407  0.9097
  163DOPC  H17S19743   2.965   3.624  15.403  0.0001 -0.5016 -0.4428
  163DOPC  C21819744   2.769   3.596  15.487  0.4189  0.5325  0.0815
  163DOPC  H18R19745   2.765   3.706  15.500  0.1825  0.3674  1.6005
  163DOPC  H18S19746   2.712   3.548  15.569 -1.1692 -0.0047 -1.2804
  163DOPC  H18T19747   2.719   3.568  15.392  0.3789 -1.2360  0.5956
  163DOPC   C3319748   2.973   2.931  16.780 -0.2215  0.0139 -0.6660
  163DOPC   H3X19749   2.970   2.828  16.822  0.0258  0.9076  1.6710
  163DOPC   H3Y19750   3.079   2.963  16.783  0.0800 -0.9915  0.0777
  163DOPC   C3419751   2.928   2.956  16.634  0.0936 -0.7087 -0.0248
  163DOPC   H4X19752   2.985   3.043  16.595  1.2417 -0.2171  2.5568
  163DOPC   H4Y19753   2.821   2.985  16.627 -0.5325 -2.8399 -0.1310
  163DOPC   C3519754   2.950   2.824  16.565  0.2205 -0.0967 -0.2235
  163DOPC   H5X19755   2.899   2.740  16.616  0.9192 -1.5617 -1.8250
  163DOPC   H5Y19756   3.058   2.800  16.568  0.0241 -1.0628 -0.4182
  163DOPC   C3619757   2.901   2.834  16.418  0.2609 -0.3272  0.5287
  163DOPC   H6X19758   2.791   2.822  16.405  0.6141 -1.7465 -1.6050
  163DOPC   H6Y19759   2.923   2.939  16.390 -0.7530 -0.7118 -1.9884
  163DOPC   C3719760   2.978   2.737  16.325  0.6094  1.1243  0.0316
  163DOPC   H7X19761   3.085   2.740  16.356  1.5722 -1.3698 -2.6133
  163DOPC   H7Y19762   2.952   2.631  16.346  2.4506 -0.0932 -3.0317
  163DOPC   C3819763   2.974   2.770  16.176  0.5132 -0.1878  0.3259
  163DOPC   H8X19764   2.869   2.775  16.139  1.0027  2.2982 -0.9029
  163DOPC   H8Y19765   3.007   2.680  16.121  2.0955 -1.0455  2.5259
  163DOPC   C3919766   3.053   2.887  16.123  0.3507 -0.1295  0.3247
  163DOPC   H9X19767   3.045   2.971  16.194  2.9895  1.0501 -0.6257
  163DOPC  C31019768   3.122   2.896  16.005 -0.6089 -0.3006  0.3353
  163DOPC  H10X19769   3.173   2.992  15.992  1.7379 -1.1884  2.2163
  163DOPC  C31119770   3.145   2.794  15.899  0.0596  0.0258  0.0834
  163DOPC  H11X19771   3.101   2.699  15.937 -1.2938  0.2818 -0.7555
  163DOPC  H11Y19772   3.255   2.779  15.895 -0.0173 -1.0521  1.3411
  163DOPC  C31219773   3.098   2.819  15.752  0.0117 -0.6056  0.7348
  163DOPC  H12X19774   3.133   2.917  15.715 -0.5849 -1.1003 -1.2959
  163DOPC  H12Y19775   2.987   2.818  15.747  0.0169 -1.6628  0.6459
  163DOPC  C31319776   3.158   2.713  15.656  1.0102  0.0620  0.3976
  163DOPC  H13X19777   3.269   2.702  15.661  0.8494 -2.3067  0.0012
  163DOPC  H13Y19778   3.127   2.609  15.682  0.9215  0.0028  0.0657
  163DOPC  C31419779   3.127   2.745  15.501  0.3765  0.2440 -0.3160
  163DOPC  H14X19780   3.018   2.756  15.482  0.4309  1.7723  0.1521
  163DOPC  H14Y19781   3.172   2.845  15.479 -1.4117  1.1164 -0.1633
  163DOPC  C31519782   3.192   2.640  15.418  0.7065 -0.0240  0.7247
  163DOPC  H15X19783   3.146   2.542  15.442  0.9280 -0.2706  0.1639
  163DOPC  H15Y19784   3.301   2.630  15.430  0.7642  0.5608  0.7275
  163DOPC  C31619785   3.176   2.660  15.262  0.2297  0.2571 -0.2625
  163DOPC  H16X19786   3.214   2.569  15.211 -2.3803 -1.0056 -0.1138
  163DOPC  H16Y19787   3.075   2.690  15.226 -0.1908 -0.5929  0.1962
  163DOPC  C31719788   3.271   2.771  15.209 -0.0615 -0.6889  0.7860
  163DOPC  H17X19789   3.256   2.864  15.267  0.3210  0.8867 -1.4848
  163DOPC  H17Y19790   3.378   2.739  15.218 -0.1333 -0.9686  0.6689
  163DOPC  C31819791   3.259   2.807  15.058  0.0393 -0.4321 -0.0157
  163DOPC  H18X19792   3.166   2.860  15.028 -1.6722 -2.2308  1.8394
  163DOPC  H18Y19793   3.341   2.877  15.030 -1.6777  1.6957 -0.0188
  163DOPC  H18Z19794   3.257   2.717  14.993 -1.1584 -0.4826  0.0679
  164DOPC     N19795   2.049   0.394  17.243 -0.3450  0.0864 -0.1618
  164DOPC   C1219796   2.003   0.490  17.135 -0.2407  0.5123 -0.2927
  164DOPC  H12A19797   1.991   0.588  17.180 -0.9265 -0.4564  1.7441
  164DOPC  H12B19798   1.905   0.474  17.092 -1.1687  2.1308  1.0930
  164DOPC   C1319799   2.182   0.448  17.301 -0.5686 -0.4076  0.4517
  164DOPC  H13A19800   2.271   0.432  17.242 -0.0870  1.5632  0.5599
  164DOPC  H13B19801   2.169   0.554  17.320  0.3179  0.0577 -1.3154
  164DOPC  H13C19802   2.186   0.386  17.389 -2.8002 -0.8367  0.3252
  164DOPC   C1419803   2.053   0.254  17.200  0.5573 -0.3713 -0.1842
  164DOPC  H14A19804   2.107   0.243  17.107 -1.5574 -1.0815 -1.3851
  164DOPC  H14B19805   2.100   0.189  17.272 -1.0372 -2.7580 -1.1912
  164DOPC  H14C19806   1.955   0.211  17.190 -0.0767  0.3802  2.1839
  164DOPC   C1519807   1.956   0.397  17.364 -0.4116  0.2593 -0.3008
  164DOPC  H15A19808   1.942   0.489  17.418 -1.9691  0.2713 -0.6639
  164DOPC  H15B19809   1.971   0.316  17.434 -3.6916 -0.0263  0.2496
  164DOPC  H15C19810   1.859   0.361  17.332  0.0723 -1.6362  0.1960
  164DOPC   C1119811   2.094   0.517  17.016  0.1102 -0.8331  0.3516
  164DOPC  H11A19812   2.122   0.418  16.973 -1.3840  0.1753 -3.3313
  164DOPC  H11B19813   2.035   0.568  16.937  0.5071  0.5554  0.9186
  164DOPC     P19814   2.205   0.743  17.078  0.1922  0.4219  0.0114
  164DOPC   O1319815   2.316   0.777  17.172  0.1790  0.0470  0.0591
  164DOPC   O1419816   2.072   0.789  17.116  0.0163  0.2917  0.4893
  164DOPC   O1219817   2.214   0.589  17.054  0.0619  0.1455  0.7374
  164DOPC   O1119818   2.245   0.806  16.940  0.0544 -0.4791 -0.5458
  164DOPC    C119819   2.385   0.800  16.903  0.2091 -0.6076 -0.1379
  164DOPC    HA19820   2.437   0.709  16.941 -0.8586 -2.7520 -3.3769
  164DOPC    HB19821   2.442   0.887  16.939 -0.5136 -0.7634  1.4861
  164DOPC    C219822   2.393   0.793  16.748 -0.2569 -0.3029 -0.2120
  164DOPC    HS19823   2.494   0.759  16.715 -0.6932 -1.5837 -0.3097
  164DOPC   O2119824   2.370   0.920  16.692  0.9718 -0.4037 -0.1353
  164DOPC   C2119825   2.468   1.006  16.689 -0.4827  0.2301 -0.5714
  164DOPC   O2219826   2.576   0.984  16.742  0.5317  0.2802  0.4742
  164DOPC   C2219827   2.432   1.134  16.616 -0.1579 -0.1936  0.0432
  164DOPC   H2R19828   2.466   1.216  16.683  0.2713  1.7587 -2.3839
  164DOPC   H2S19829   2.325   1.158  16.596  0.4265  0.5547 -2.6864
  164DOPC    C319830   2.300   0.686  16.693  0.3292  0.2343  0.3175
  164DOPC    HX19831   2.195   0.723  16.701  0.8138  2.3698 -1.8843
  164DOPC    HY19832   2.302   0.594  16.755 -1.1214 -0.8257 -1.1196
  164DOPC   O3119833   2.331   0.658  16.552  0.4005  0.1640  0.2634
  164DOPC   C3119834   2.235   0.690  16.459 -0.6576  0.2472 -0.3271
  164DOPC   O3219835   2.125   0.743  16.477  0.1108  0.1320  0.4229
  164DOPC   C3219836   2.295   0.653  16.328  0.2583 -0.1207  0.1336
  164DOPC   H2X19837   2.391   0.708  16.321 -1.9414  3.7816 -2.7682
  164DOPC   H2Y19838   2.324   0.545  16.325  2.0998  0.2634  1.5435
  164DOPC   C2319839   2.491   1.154  16.478  0.5858  0.4538  0.8147
  164DOPC   H3R19840   2.601   1.157  16.495  0.4060  0.0848  2.0981
  164DOPC   H3S19841   2.462   1.255  16.443  0.6085  0.5323  1.0243
  164DOPC   C2419842   2.439   1.053  16.376  0.1429 -0.3425 -1.0595
  164DOPC   H4R19843   2.330   1.029  16.372 -0.0393 -0.2682  1.8419
  164DOPC   H4S19844   2.481   0.955  16.405 -0.1521 -0.0948  0.2448
  164DOPC   C2519845   2.478   1.082  16.240  0.0696 -0.5945  0.1205
  164DOPC   H5R19846   2.586   1.105  16.228  0.5873 -3.3151 -1.2327
  164DOPC   H5S19847   2.429   1.172  16.197  2.0284  1.0222  1.0942
  164DOPC   C2619848   2.442   0.964  16.141  0.2362 -0.0192 -0.0474
  164DOPC   H6R19849   2.332   0.946  16.144  0.4166 -1.0915  2.0165
  164DOPC   H6S19850   2.499   0.877  16.180  0.2220  0.0447  0.1157
  164DOPC   C2719851   2.465   1.001  15.996 -0.1182  0.6994  0.4711
  164DOPC   H7R19852   2.382   1.072  15.972 -0.3830  1.0748  2.3416
  164DOPC   H7S19853   2.457   0.914  15.928  2.2658 -0.1743  1.2145
  164DOPC   C2819854   2.608   1.069  15.980  0.1297  0.1702 -0.1432
  164DOPC   H8R19855   2.679   1.008  16.040 -0.2658 -3.0000 -2.6571
  164DOPC   H8S19856   2.604   1.169  16.030  1.7710 -0.1984  0.8195
  164DOPC   C2919857   2.652   1.098  15.843  0.5341  0.3530 -0.2617
  164DOPC   H9R19858   2.604   1.185  15.796  3.8404  2.2670 -0.4213
  164DOPC  C21019859   2.728   1.033  15.760 -0.4435  0.8614 -0.3068
  164DOPC  H10R19860   2.744   1.070  15.657 -0.2792 -1.3833 -1.1363
  164DOPC  C21119861   2.804   0.909  15.796 -0.3518  0.6109  0.2699
  164DOPC  H11R19862   2.779   0.869  15.896  1.2567  0.0725  0.4836
  164DOPC  H11S19863   2.912   0.937  15.793 -0.3640  0.6232 -1.8946
  164DOPC  C21219864   2.776   0.794  15.698  0.6205  0.3486  1.2503
  164DOPC  H12R19865   2.668   0.772  15.682  1.0570 -0.6648 -0.5463
  164DOPC  H12S19866   2.824   0.704  15.741 -0.2142 -0.7788 -0.0891
  164DOPC  C21319867   2.849   0.805  15.563 -0.0800 -0.4430 -0.4388
  164DOPC  H13R19868   2.953   0.821  15.598 -1.2657  0.2145  3.2357
  164DOPC  H13S19869   2.814   0.886  15.495  0.1155 -0.8958 -1.0922
  164DOPC  C21419870   2.846   0.682  15.474  0.1489  0.0700 -0.3919
  164DOPC  H14R19871   2.735   0.676  15.470  0.0507  1.1625  0.4017
  164DOPC  H14S19872   2.894   0.597  15.528  0.1818  0.1391 -0.3116
  164DOPC  C21519873   2.907   0.711  15.333  0.4901 -0.1876  0.3075
  164DOPC  H15R19874   3.009   0.753  15.344  0.3223  0.1543  0.5837
  164DOPC  H15S19875   2.842   0.783  15.279 -0.4696 -0.5427  0.9540
  164DOPC  C21619876   2.911   0.574  15.264 -0.0805 -0.1385 -0.3099
  164DOPC  H16R19877   2.825   0.506  15.279 -0.2567 -0.1805 -1.4330
  164DOPC  H16S19878   3.001   0.523  15.304 -0.7871 -1.0120  0.2084
  164DOPC  C21719879   2.940   0.592  15.112  0.3010  0.4382 -0.4702
  164DOPC  H17R19880   3.026   0.662  15.105  1.8634 -1.2649  0.8694
  164DOPC  H17S19881   2.853   0.634  15.057  0.3220  0.5335 -0.4307
  164DOPC  C21819882   2.974   0.457  15.043 -0.4185  0.1664  0.0303
  164DOPC  H18R19883   3.061   0.408  15.092 -0.3403  0.2639 -0.0097
  164DOPC  H18S19884   3.011   0.479  14.940  1.9242 -1.4920  0.4223
  164DOPC  H18T19885   2.888   0.388  15.053 -0.8535  0.8598  1.1720
  164DOPC   C3319886   2.211   0.669  16.204  0.1164 -0.0746 -0.2333
  164DOPC   H3X19887   2.165   0.770  16.198  1.5467  0.5881 -0.4289
  164DOPC   H3Y19888   2.125   0.599  16.201  0.6490 -0.6971 -1.1546
  164DOPC   C3419889   2.307   0.637  16.088  0.0467 -0.2561  0.0391
  164DOPC   H4X19890   2.319   0.528  16.074 -0.7597 -0.1959 -1.3313
  164DOPC   H4Y19891   2.406   0.675  16.122 -0.8520  2.3321 -0.0429
  164DOPC   C3519892   2.266   0.701  15.948 -0.4087 -0.7264 -0.8159
  164DOPC   H5X19893   2.266   0.811  15.963  1.6182 -0.7459 -0.4440
  164DOPC   H5Y19894   2.161   0.665  15.937 -0.3896 -1.2892  0.6142
  164DOPC   C3619895   2.355   0.652  15.835 -0.2387 -0.4265  0.5187
  164DOPC   H6X19896   2.463   0.674  15.849  0.0806 -0.9722 -0.8934
  164DOPC   H6Y19897   2.335   0.543  15.822  0.6983 -0.7042  1.2845
  164DOPC   C3719898   2.318   0.722  15.705  0.2253  0.8089  0.0771
  164DOPC   H7X19899   2.214   0.698  15.674  1.4236 -1.7615 -2.4587
  164DOPC   H7Y19900   2.335   0.831  15.716  2.6441  0.3182  1.9196
  164DOPC   C3819901   2.392   0.667  15.582  0.6025 -0.3165 -0.2043
  164DOPC   H8X19902   2.345   0.567  15.567 -1.1736  0.4986 -0.2693
  164DOPC   H8Y19903   2.498   0.647  15.608 -0.0323 -2.6854  0.9235
  164DOPC   C3919904   2.376   0.744  15.453 -0.4505 -0.3169 -1.3445
  164DOPC   H9X19905   2.385   0.853  15.462 -3.2388 -0.0937 -0.4247
  164DOPC  C31019906   2.326   0.694  15.338 -0.3826 -0.0825 -0.0295
  164DOPC  H10X19907   2.330   0.759  15.249 -0.0658 -0.1452 -0.0628
  164DOPC  C31119908   2.292   0.553  15.293  0.0833  0.2555  0.1170
  164DOPC  H11X19909   2.184   0.530  15.280 -0.4495  2.6930 -0.0982
  164DOPC  H11Y19910   2.321   0.489  15.380 -0.0265  0.2424  0.1443
  164DOPC  C31219911   2.357   0.510  15.161  0.0113 -0.2156 -0.1016
  164DOPC  H12X19912   2.463   0.544  15.164 -0.5355  1.9160 -1.8785
  164DOPC  H12Y19913   2.306   0.569  15.082  2.2524  0.0749 -1.4214
  164DOPC  C31319914   2.359   0.362  15.138  0.4697 -0.0835  0.4287
  164DOPC  H13X19915   2.384   0.310  15.233  0.9787 -0.4812  0.0858
  164DOPC  H13Y19916   2.261   0.330  15.097  0.8825 -0.5342 -0.2213
  164DOPC  C31419917   2.464   0.335  15.029  0.2134 -0.4817  0.2057
  164DOPC  H14X19918   2.567   0.361  15.062  0.5222 -0.3230 -0.8712
  164DOPC  H14Y19919   2.445   0.379  14.929 -4.0638 -1.6265  0.3276
  164DOPC  C31519920   2.461   0.177  14.998 -0.1164 -0.5280  0.3716
  164DOPC  H15X19921   2.522   0.160  14.907 -0.8123 -0.1226 -0.1881
  164DOPC  H15Y19922   2.354   0.150  14.981 -0.0324  0.0924 -1.3962
  164DOPC  C31619923   2.520   0.088  15.115  0.2406 -0.4975 -0.5873
  164DOPC  H16X19924   2.626   0.114  15.138 -0.3288  0.0980  1.6627
  164DOPC  H16Y19925   2.462   0.109  15.207 -1.4953  1.1297 -1.9767
  164DOPC  C31719926   2.505  -0.058  15.077 -0.4010  0.3645  1.0594
  164DOPC  H17X19927   2.538  -0.058  14.971 -1.1316  0.0516  0.8301
  164DOPC  H17Y19928   2.575  -0.115  15.142  5.5331  3.4785 -1.7580
  164DOPC  C31819929   2.366  -0.119  15.079  0.1478  0.1244 -0.0686
  164DOPC  H18X19930   2.308  -0.060  15.004  0.8775  2.3601  1.0560
  164DOPC  H18Y19931   2.365  -0.225  15.045 -2.0694  0.4344 -1.1725
  164DOPC  H18Z19932   2.310  -0.105  15.174  0.4890 -1.6073  0.4347
  165DOPC     N19933   6.295   1.997  17.496  0.3912 -1.0439  0.1155
  165DOPC   C1219934   6.209   2.085  17.415 -0.1728  0.2025 -1.0476
  165DOPC  H12A19935   6.137   2.025  17.361  0.6843 -2.2978  0.4050
  165DOPC  H12B19936   6.271   2.133  17.341 -0.1484 -0.3417 -1.3884
  165DOPC   C1319937   6.381   2.084  17.583  0.1442 -0.5736 -0.4372
  165DOPC  H13A19938   6.458   2.032  17.638 -2.6769 -2.6180  1.9253
  165DOPC  H13B19939   6.426   2.157  17.517  0.2960 -0.5213 -0.2762
  165DOPC  H13C19940   6.318   2.145  17.646  0.5375 -1.6215  1.0281
  165DOPC   C1419941   6.386   1.920  17.407  0.5955 -0.0400  0.2086
  165DOPC  H14A19942   6.342   1.879  17.318 -0.4142 -0.0517  0.6974
  165DOPC  H14B19943   6.470   1.977  17.372  0.6598  0.0383  0.4879
  165DOPC  H14C19944   6.420   1.832  17.460 -0.6115 -0.6703 -0.0199
  165DOPC   C1519945   6.223   1.896  17.578 -0.3719 -0.0304  0.0105
  165DOPC  H15A19946   6.169   1.823  17.519 -2.4236 -0.3872  2.1801
  165DOPC  H15B19947   6.154   1.945  17.645 -0.5997  0.3461 -0.4951
  165DOPC  H15C19948   6.290   1.845  17.645 -0.8145 -0.4544  0.1310
  165DOPC   C1119949   6.141   2.205  17.491 -0.0288 -0.1764 -0.1610
  165DOPC  H11A19950   6.049   2.239  17.437  0.6589  0.2644 -1.0766
  165DOPC  H11B19951   6.099   2.170  17.588 -1.7018  0.9586 -0.4338
  165DOPC     P19952   6.236   2.439  17.420 -0.3118 -0.2414 -0.0673
  165DOPC   O1319953   6.361   2.523  17.443  0.2787  0.5840 -0.0870
  165DOPC   O1419954   6.108   2.513  17.439 -0.8061  0.2600 -0.2075
  165DOPC   O1219955   6.244   2.308  17.511  0.5613  0.0314  0.5093
  165DOPC   O1119956   6.257   2.367  17.280 -0.1160  0.2191 -0.1023
  165DOPC    C119957   6.139   2.356  17.195  0.1045  0.0323  0.0633
  165DOPC    HA19958   6.075   2.446  17.190 -1.2894 -0.6802  2.9373
  165DOPC    HB19959   6.071   2.274  17.227 -1.5932  1.9523  1.7091
  165DOPC    C219960   6.183   2.312  17.055  0.3568  0.6027 -0.9309
  165DOPC    HS19961   6.260   2.233  17.067 -1.2812 -0.7911  1.1439
  165DOPC   O2119962   6.225   2.424  16.983 -0.3494  0.6170  0.8108
  165DOPC   C2119963   6.328   2.405  16.902 -0.2397 -0.4746 -0.1949
  165DOPC   O2219964   6.411   2.314  16.915  0.1153 -0.0099  0.0266
  165DOPC   C2219965   6.351   2.522  16.807  0.2785 -0.5530 -0.6745
  165DOPC   H2R19966   6.451   2.559  16.839 -0.7398  0.4045  1.5895
  165DOPC   H2S19967   6.275   2.601  16.822 -1.3394 -2.2069  0.1421
  165DOPC    C319968   6.058   2.244  16.990 -0.1608 -0.4579  0.4075
  165DOPC    HX19969   5.980   2.322  16.989  1.7347  1.5558 -0.9271
  165DOPC    HY19970   6.023   2.157  17.050 -2.0271 -0.0221 -0.0167
  165DOPC   O3119971   6.076   2.202  16.858  0.4169  0.3018  0.3989
  165DOPC   C3119972   6.151   2.096  16.846 -0.1764 -0.3859 -0.3077
  165DOPC   O3219973   6.206   2.040  16.938 -0.2863  0.1035  0.2347
  165DOPC   C3219974   6.172   2.078  16.694  0.1791  0.4800  0.1960
  165DOPC   H2X19975   6.104   2.003  16.647  1.5452  0.0909 -1.2657
  165DOPC   H2Y19976   6.149   2.181  16.658 -0.0577  0.8120  1.2780
  165DOPC   C2319977   6.350   2.471  16.663 -0.4219 -1.0400 -0.2070
  165DOPC   H3R19978   6.249   2.429  16.645  0.7360 -3.4667 -1.4380
  165DOPC   H3S19979   6.427   2.392  16.651  1.7021  0.7132  0.9598
  165DOPC   C2419980   6.379   2.594  16.572 -0.1862 -0.1467  0.1092
  165DOPC   H4R19981   6.481   2.630  16.598 -0.1909  1.6836 -2.1003
  165DOPC   H4S19982   6.309   2.677  16.596 -1.4088 -0.9502 -0.5426
  165DOPC   C2519983   6.380   2.545  16.430  0.2982  0.5588  0.2821
  165DOPC   H5R19984   6.281   2.507  16.398  0.6797  0.3732 -0.7123
  165DOPC   H5S19985   6.448   2.458  16.439  2.0532  1.8593  0.2128
  165DOPC   C2619986   6.433   2.652  16.333  0.6142  0.1971  0.4461
  165DOPC   H6R19987   6.540   2.666  16.360  0.8101  1.7148 -0.9851
  165DOPC   H6S19988   6.371   2.744  16.340 -1.1694 -0.8894 -0.3108
  165DOPC   C2719989   6.433   2.598  16.185 -0.6824  0.0066 -0.9627
  165DOPC   H7R19990   6.485   2.502  16.205 -1.2559 -0.1092  0.0557
  165DOPC   H7S19991   6.491   2.671  16.125 -1.6026  0.2290 -1.6038
  165DOPC   C2819992   6.302   2.574  16.116  0.4062 -0.1508  0.0650
  165DOPC   H8R19993   6.234   2.510  16.177  0.1187  0.1445  0.0571
  165DOPC   H8S19994   6.320   2.505  16.031 -0.4904  0.7081 -0.8499
  165DOPC   C2919995   6.228   2.696  16.068  0.1081 -0.0171 -0.0112
  165DOPC   H9R19996   6.178   2.757  16.145  1.6964 -3.7643  4.4257
  165DOPC  C21019997   6.205   2.737  15.942 -0.6696 -0.5235  0.1022
  165DOPC  H10R19998   6.151   2.832  15.938 -1.0301 -0.7588 -1.0200
  165DOPC  C21119999   6.254   2.675  15.813 -0.2992  0.0130  0.6543
  165DOPC  H11R20000   6.347   2.614  15.820  1.4382  2.0364 -2.1260
  165DOPC  H11S20001   6.284   2.771  15.765 -4.1374  3.0165  3.6384
  165DOPC  C21220002   6.158   2.586  15.737  0.0188 -0.1403  0.2519
  165DOPC  H12R20003   6.065   2.642  15.711 -0.2663  0.1011  1.6805
  165DOPC  H12S20004   6.127   2.503  15.805  2.7295 -0.0391  1.7482
  165DOPC  C21320005   6.207   2.530  15.606  0.0502  0.2410  0.1446
  165DOPC  H13R20006   6.130   2.461  15.564  1.4789 -1.2948 -0.0758
  165DOPC  H13S20007   6.289   2.458  15.624  0.3432  0.2902 -0.9164
  165DOPC  C21420008   6.258   2.633  15.510 -0.2645  0.3921 -0.2997
  165DOPC  H14R20009   6.344   2.680  15.561 -0.3704 -0.7718  1.0178
  165DOPC  H14S20010   6.186   2.717  15.496 -0.7387 -0.2805 -2.2737
  165DOPC  C21520011   6.301   2.577  15.370 -0.2379  0.2363 -0.4377
  165DOPC  H15R20012   6.209   2.535  15.325  0.6491 -2.1828 -0.1725
  165DOPC  H15S20013   6.369   2.490  15.382 -0.1229  0.2908 -0.6924
  165DOPC  C21620014   6.356   2.689  15.277  0.0559 -0.6097  0.3984
  165DOPC  H16R20015   6.382   2.649  15.177  0.2127 -1.3062  0.7124
  165DOPC  H16S20016   6.449   2.730  15.321 -0.0569  2.5718 -1.9485
  165DOPC  C21720017   6.275   2.811  15.248 -0.0243 -0.4980 -0.4558
  165DOPC  H17R20018   6.322   2.870  15.166 -1.8758 -0.9128 -1.8751
  165DOPC  H17S20019   6.282   2.878  15.337  0.6604  0.8318 -1.4677
  165DOPC  C21820020   6.121   2.787  15.229 -0.1558  0.1399 -0.0534
  165DOPC  H18R20021   6.089   2.742  15.325 -0.3817  1.2426  0.4053
  165DOPC  H18S20022   6.094   2.716  15.147 -0.4197 -0.3407  0.4435
  165DOPC  H18T20023   6.067   2.884  15.224 -1.4949 -0.4099  2.2146
  165DOPC   C3320024   6.318   2.052  16.665 -0.0565 -0.5998  0.3562
  165DOPC   H3X20025   6.342   1.951  16.705 -2.8545 -1.4971 -0.0219
  165DOPC   H3Y20026   6.363   2.141  16.714 -2.4811  0.5719  0.5911
  165DOPC   C3420027   6.362   2.045  16.515 -0.1284 -0.1983 -0.5556
  165DOPC   H4X20028   6.357   1.942  16.475  0.8713 -0.6086  0.3008
  165DOPC   H4Y20029   6.472   2.065  16.518 -0.5860  2.8594  2.2206
  165DOPC   C3520030   6.297   2.145  16.424  0.4110 -0.0575  0.1335
  165DOPC   H5X20031   6.302   2.245  16.470 -0.2057  0.2486 -0.4373
  165DOPC   H5Y20032   6.189   2.117  16.426  0.5461 -0.5782  1.8607
  165DOPC   C3620033   6.358   2.156  16.282  0.3520 -0.4344  0.0137
  165DOPC   H6X20034   6.329   2.249  16.228  0.2356 -0.2803  0.3382
  165DOPC   H6Y20035   6.469   2.155  16.295  0.4196  0.3876 -0.4171
  165DOPC   C3720036   6.325   2.031  16.191 -0.4319  0.1105  0.8988
  165DOPC   H7X20037   6.223   1.986  16.187  0.4629 -1.9714 -2.1440
  165DOPC   H7Y20038   6.386   1.947  16.231  3.6857  1.3214 -2.1334
  165DOPC   C3820039   6.368   2.061  16.047 -0.0652  0.1400 -0.0612
  165DOPC   H8X20040   6.323   2.158  16.019  2.0860  1.3705  0.5023
  165DOPC   H8Y20041   6.331   1.985  15.976  0.5289  0.7015 -0.9846
  165DOPC   C3920042   6.517   2.066  16.032  0.3711  0.1985 -0.0029
  165DOPC   H9X20043   6.575   1.981  16.071 -1.0990 -0.3786  1.0066
  165DOPC  C31020044   6.584   2.174  15.985  0.2089 -0.4538 -0.0489
  165DOPC  H10X20045   6.694   2.165  15.982  0.4051  0.1830  2.5773
  165DOPC  C31120046   6.537   2.309  15.933 -0.2739  0.0712 -0.3167
  165DOPC  H11X20047   6.616   2.385  15.954 -0.6957 -0.0154  1.8484
  165DOPC  H11Y20048   6.445   2.352  15.979  1.4828  2.6354  1.0925
  165DOPC  C31220049   6.520   2.323  15.779  0.0399  1.2850  0.0374
  165DOPC  H12X20050   6.529   2.432  15.759 -0.3701  0.8433 -2.9387
  165DOPC  H12Y20051   6.422   2.297  15.735  0.8567  1.9169 -2.2925
  165DOPC  C31320052   6.636   2.244  15.705  0.3192 -0.3652 -0.0952
  165DOPC  H13X20053   6.737   2.262  15.748 -0.5781  0.4214  1.7880
  165DOPC  H13Y20054   6.614   2.136  15.692 -0.6345 -0.1655 -0.2284
  165DOPC  C31420055   6.624   2.293  15.553 -0.1338 -0.0397 -0.0194
  165DOPC  H14X20056   6.670   2.220  15.483 -0.7499 -1.7056  1.2597
  165DOPC  H14Y20057   6.519   2.310  15.523  0.6809  2.8422 -1.6520
  165DOPC  C31520058   6.704   2.428  15.542 -0.4635  0.5542 -0.2140
  165DOPC  H15X20059   6.803   2.420  15.593 -0.8994  0.6066  0.6487
  165DOPC  H15Y20060   6.642   2.501  15.598  0.4497  0.6647  0.6951
  165DOPC  C31620061   6.719   2.489  15.402 -0.0473  0.0940  0.2797
  165DOPC  H16X20062   6.769   2.414  15.337 -0.6697 -0.2447  0.1835
  165DOPC  H16Y20063   6.621   2.508  15.353  0.7269  0.1533 -1.3175
  165DOPC  C31720064   6.814   2.605  15.371 -0.2360  0.1120  0.0520
  165DOPC  H17X20065   6.778   2.696  15.424 -0.7217  1.0318 -1.7911
  165DOPC  H17Y20066   6.922   2.589  15.392  0.3988  0.8146 -2.4513
  165DOPC  C31820067   6.812   2.648  15.225 -0.1109 -0.2259 -0.2209
  165DOPC  H18X20068   6.877   2.584  15.163  0.6435  2.7356 -2.7020
  165DOPC  H18Y20069   6.706   2.655  15.190  0.9086  2.3245 -3.2164
  165DOPC  H18Z20070   6.859   2.748  15.217 -0.2707 -0.3085 -3.9627
  166DOPC     N20071   2.359   3.098  18.211 -0.0450  0.0506 -0.1522
  166DOPC   C1220072   2.338   3.200  18.105 -0.2917 -0.7730 -0.3874
  166DOPC  H12A20073   2.400   3.284  18.133 -0.3050 -1.2295  1.1176
  166DOPC  H12B20074   2.238   3.241  18.102 -0.4229 -1.0718 -0.1697
  166DOPC   C1320075   2.512   3.078  18.223  0.4850 -0.2003  0.2831
  166DOPC  H13A20076   2.560   3.062  18.128 -1.9411 -1.5252 -0.8014
  166DOPC  H13B20077   2.561   3.167  18.261 -0.6997  0.3286  0.6329
  166DOPC  H13C20078   2.546   3.001  18.291  1.3622 -1.7114 -1.7842
  166DOPC   C1420079   2.286   2.970  18.189 -0.2701 -0.1103 -0.1779
  166DOPC  H14A20080   2.181   2.992  18.201  0.2280  1.0411  2.8694
  166DOPC  H14B20081   2.303   2.931  18.090  1.2352 -0.6900  0.2906
  166DOPC  H14C20082   2.318   2.895  18.260 -2.1641 -1.7921 -0.9886
  166DOPC   C1520083   2.311   3.144  18.348  0.7100 -0.1132 -0.0800
  166DOPC  H15A20084   2.335   3.075  18.427 -0.1670 -0.1734  0.1449
  166DOPC  H15B20085   2.204   3.154  18.350  0.8569  1.6044  0.8179
  166DOPC  H15C20086   2.357   3.238  18.375 -0.2071 -0.0155  1.2522
  166DOPC   C1120087   2.366   3.157  17.957 -0.2649  0.3952  0.2790
  166DOPC  H11A20088   2.382   3.255  17.908  0.9200 -0.2849 -0.7564
  166DOPC  H11B20089   2.458   3.095  17.948 -0.2461  0.4499  0.0939
  166DOPC     P20090   2.122   3.156  17.857 -0.2077 -0.1925  0.0989
  166DOPC   O1320091   2.075   3.236  17.972  0.1511 -0.2493 -0.2716
  166DOPC   O1420092   2.032   3.053  17.810  0.2011 -0.0581 -0.1973
  166DOPC   O1220093   2.251   3.083  17.896 -0.0004  0.7462 -0.3065
  166DOPC   O1120094   2.173   3.245  17.739  0.1791  0.6859 -0.0901
  166DOPC    C120095   2.289   3.217  17.660  0.1609 -0.2266 -1.0944
  166DOPC    HA20096   2.333   3.118  17.682 -2.8940 -1.4616  0.0618
  166DOPC    HB20097   2.361   3.301  17.669  1.1131 -1.0816 -0.5511
  166DOPC    C220098   2.239   3.195  17.515 -0.0661 -0.3279 -0.2012
  166DOPC    HS20099   2.319   3.154  17.449  0.7245 -1.5143  1.4055
  166DOPC   O2120100   2.182   3.312  17.462 -0.0112  0.0764  0.3802
  166DOPC   C2120101   2.254   3.374  17.372 -0.2703 -0.3953  0.4866
  166DOPC   O2220102   2.377   3.370  17.352  0.3544  0.2654 -0.2590
  166DOPC   C2220103   2.168   3.477  17.300  0.3540 -0.0158 -0.2495
  166DOPC   H2R20104   2.148   3.569  17.360 -0.4296 -1.1338  1.2712
  166DOPC   H2S20105   2.073   3.423  17.278 -0.0178  1.1329 -1.6466
  166DOPC    C320106   2.121   3.087  17.513 -0.1328 -0.4483 -0.4585
  166DOPC    HX20107   2.033   3.123  17.570  0.8510 -1.2814  1.6942
  166DOPC    HY20108   2.154   2.991  17.560  1.5862  0.8548  1.1671
  166DOPC   O3120109   2.091   3.056  17.371 -0.5992  0.2426 -0.3269
  166DOPC   C3120110   1.985   3.106  17.314  0.1914  0.1203 -0.4277
  166DOPC   O3220111   1.904   3.179  17.369  0.2854 -0.1549 -0.3124
  166DOPC   C3220112   1.985   3.073  17.167  0.1912  0.6691 -0.9255
  166DOPC   H2X20113   2.092   3.071  17.139  0.5220 -1.6715  0.2872
  166DOPC   H2Y20114   1.952   2.967  17.159  3.2039 -0.8894  3.4041
  166DOPC   C2320115   2.240   3.530  17.174 -0.0071 -0.0212  0.0930
  166DOPC   H3R20116   2.325   3.469  17.138 -0.0172  0.6306 -1.0775
  166DOPC   H3S20117   2.290   3.628  17.191  0.4455  0.2073 -2.3118
  166DOPC   C2420118   2.138   3.552  17.059 -0.2227  0.5071 -0.3422
  166DOPC   H4R20119   2.058   3.620  17.094 -0.2223 -0.2122  1.1114
  166DOPC   H4S20120   2.094   3.453  17.034  0.1677  0.6312 -1.6087
  166DOPC   C2520121   2.200   3.608  16.927 -0.4491  0.3155  0.0957
  166DOPC   H5R20122   2.271   3.534  16.884 -0.9440  0.4285 -0.9403
  166DOPC   H5S20123   2.248   3.706  16.944 -0.3907  0.1629  0.8505
  166DOPC   C2620124   2.085   3.632  16.823 -0.1666 -1.0189  0.2573
  166DOPC   H6R20125   2.090   3.726  16.764 -1.1920 -3.0030 -3.2890
  166DOPC   H6S20126   1.986   3.635  16.872 -0.4130  3.8583 -0.0468
  166DOPC   C2720127   2.082   3.528  16.712  0.4445 -0.2162 -0.2513
  166DOPC   H7R20128   2.082   3.425  16.754  2.9886  0.5035  1.7630
  166DOPC   H7S20129   2.173   3.539  16.649  0.3088  1.7330 -0.1546
  166DOPC   C2820130   1.958   3.541  16.627 -0.6636  0.0578  0.0083
  166DOPC   H8R20131   1.869   3.522  16.691 -0.0276  0.9771  1.2095
  166DOPC   H8S20132   1.961   3.465  16.546  0.2090  0.9933 -0.8749
  166DOPC   C2920133   1.938   3.681  16.567  0.0088  0.1635  0.4992
  166DOPC   H9R20134   1.904   3.749  16.647 -0.1736  0.8731 -0.1742
  166DOPC  C21020135   1.956   3.717  16.440  0.2341  0.2754  0.4362
  166DOPC  H10R20136   1.941   3.822  16.408 -1.7242 -0.5306 -1.5834
  166DOPC  C21120137   2.022   3.647  16.324 -0.3225 -0.1409 -0.0423
  166DOPC  H11R20138   2.055   3.546  16.356  0.6029  0.7070  1.8789
  166DOPC  H11S20139   2.115   3.701  16.294  0.2057 -1.3791 -0.6949
  166DOPC  C21220140   1.920   3.635  16.211  0.4644  0.0693 -0.4418
  166DOPC  H12R20141   1.864   3.730  16.203 -0.1380 -0.3403 -1.2791
  166DOPC  H12S20142   1.852   3.549  16.230  1.8846 -1.3816 -1.5932
  166DOPC  C21320143   1.989   3.617  16.074 -0.8345  0.2544 -0.3176
  166DOPC  H13R20144   2.075   3.554  16.106 -0.5920  0.2270 -1.0066
  166DOPC  H13S20145   2.016   3.718  16.037 -1.4444  0.3734 -0.4560
  166DOPC  C21420146   1.892   3.539  15.983 -0.0069  0.0424 -0.3491
  166DOPC  H14R20147   1.794   3.591  15.979 -0.7680 -1.3800 -0.9717
  166DOPC  H14S20148   1.884   3.438  16.029 -0.0228  0.0875 -0.2518
  166DOPC  C21520149   1.945   3.523  15.841  0.2340 -0.4046 -0.1256
  166DOPC  H15R20150   2.052   3.494  15.843  0.2055 -0.5084  1.2253
  166DOPC  H15S20151   1.925   3.615  15.782  1.2639 -0.4799 -0.5947
  166DOPC  C21620152   1.864   3.424  15.754  0.2286  0.3991 -0.5175
  166DOPC  H16R20153   1.761   3.464  15.747 -0.1987  0.0448  2.5416
  166DOPC  H16S20154   1.855   3.325  15.804  1.0729 -1.7911 -4.2980
  166DOPC  C21720155   1.915   3.392  15.609  0.7015 -0.5563  0.4047
  166DOPC  H17R20156   1.844   3.320  15.563 -0.4919  0.7125  0.1873
  166DOPC  H17S20157   2.016   3.352  15.633  0.3467 -0.0937  3.0453
  166DOPC  C21820158   1.916   3.514  15.517 -0.2292  0.0379 -0.2312
  166DOPC  H18R20159   1.816   3.559  15.502  0.0328  0.4030 -0.9526
  166DOPC  H18S20160   1.948   3.488  15.414 -0.3513  0.9472 -0.5091
  166DOPC  H18T20161   1.989   3.591  15.553  0.0275 -0.6453  0.7684
  166DOPC   C3320162   1.917   3.189  17.081  0.9369 -0.0104 -0.3258
  166DOPC   H3X20163   1.954   3.290  17.111 -0.3752  0.3536  0.1367
  166DOPC   H3Y20164   1.810   3.185  17.110  1.5777 -0.3964  2.2183
  166DOPC   C3420165   1.927   3.188  16.926 -0.3510 -0.6451  0.3843
  166DOPC   H4X20166   2.026   3.219  16.886  0.4834 -1.4547  1.7576
  166DOPC   H4Y20167   1.857   3.266  16.888  1.6894  0.5952 -1.0082
  166DOPC   C3520168   1.893   3.053  16.860  0.2990 -0.2717  0.1384
  166DOPC   H5X20169   1.782   3.061  16.853  0.3958  0.9965 -0.2591
  166DOPC   H5Y20170   1.920   2.962  16.918  1.8592 -0.7977 -1.3282
  166DOPC   C3620171   1.951   3.031  16.719  0.0346  0.0647 -0.1213
  166DOPC   H6X20172   2.058   3.056  16.734 -0.1536  0.7594  0.1170
  166DOPC   H6Y20173   1.933   2.922  16.708  1.6318 -0.2336 -0.0895
  166DOPC   C3720174   1.903   3.122  16.609 -0.4504 -0.1307  0.5368
  166DOPC   H7X20175   1.793   3.125  16.624 -0.5126 -1.2199  0.3190
  166DOPC   H7Y20176   1.940   3.224  16.636 -0.8049  0.7584 -2.0552
  166DOPC   C3820177   1.950   3.092  16.468 -0.6824  0.1029 -0.1545
  166DOPC   H8X20178   1.920   2.992  16.430  1.2302 -1.3138  1.8048
  166DOPC   H8Y20179   2.061   3.100  16.472 -0.7222  0.3774  0.5538
  166DOPC   C3920180   1.906   3.201  16.372  0.6641  0.4083  0.2808
  166DOPC   H9X20181   1.816   3.247  16.416  0.5176 -1.7105  2.3747
  166DOPC  C31020182   1.959   3.250  16.261  0.3942  0.0550 -0.4418
  166DOPC  H10X20183   1.913   3.336  16.209  0.6568 -0.2070 -1.1208
  166DOPC  C31120184   2.090   3.199  16.213  0.1983  0.3404  0.5372
  166DOPC  H11X20185   2.154   3.161  16.296  1.0554 -0.5785 -0.5114
  166DOPC  H11Y20186   2.153   3.283  16.175 -0.4418  0.6126  0.0668
  166DOPC  C31220187   2.086   3.103  16.097 -0.5099 -0.2108  0.2446
  166DOPC  H12X20188   2.062   3.002  16.136  1.8048 -0.2714  1.6965
  166DOPC  H12Y20189   2.190   3.105  16.055 -0.7962 -1.5200 -0.6214
  166DOPC  C31320190   1.988   3.145  15.983 -0.6891  0.3989 -0.3617
  166DOPC  H13X20191   1.884   3.133  16.021 -0.6065  1.6018  0.2913
  166DOPC  H13Y20192   2.004   3.253  15.962  1.2236  0.3551  0.6569
  166DOPC  C31420193   2.008   3.060  15.852 -0.1027 -0.4632 -0.6251
  166DOPC  H14X20194   2.018   2.959  15.896 -0.1782 -0.3277 -0.2965
  166DOPC  H14Y20195   1.919   3.072  15.787 -1.6133  4.2255  1.8008
  166DOPC  C31520196   2.128   3.095  15.776  0.1302  0.5650 -0.3840
  166DOPC  H15X20197   2.219   3.080  15.838  0.4576 -3.4454 -1.6022
  166DOPC  H15Y20198   2.117   3.201  15.743  1.5044  1.3517  1.5044
  166DOPC  C31620199   2.151   3.010  15.652 -0.1876  0.1142 -0.4665
  166DOPC  H16X20200   2.235   3.052  15.593  0.3249 -0.6601 -0.3071
  166DOPC  H16Y20201   2.195   2.913  15.684 -0.0446  0.6155  0.9324
  166DOPC  C31720202   2.043   2.989  15.553 -0.2277  0.0604  0.5243
  166DOPC  H17X20203   1.960   2.929  15.596  0.3836  0.1299  1.8301
  166DOPC  H17Y20204   1.985   3.083  15.540 -0.6598 -0.3351 -0.6075
  166DOPC  C31820205   2.093   2.944  15.414  0.3132 -0.2881 -0.0342
  166DOPC  H18X20206   2.144   3.031  15.368  0.7690  0.6898  2.1653
  166DOPC  H18Y20207   2.167   2.863  15.404  0.3752 -0.5451  2.0051
  166DOPC  H18Z20208   2.009   2.921  15.344 -0.2616  0.1040  0.5070
  167DOPC     N20209   1.097   2.154  17.451 -0.1972  0.0239  0.2974
  167DOPC   C1220210   1.128   2.172  17.302 -0.2051 -0.7162 -0.5825
  167DOPC  H12A20211   1.101   2.097  17.228  1.5131 -0.4954 -1.4753
  167DOPC  H12B20212   1.235   2.167  17.298 -0.1470 -2.5553  1.4439
  167DOPC   C1320213   1.178   2.034  17.498  0.3683 -0.5903 -0.6144
  167DOPC  H13A20214   1.284   2.052  17.494  0.2888  0.4135  0.7596
  167DOPC  H13B20215   1.154   2.005  17.599  2.4542 -0.2993  0.0036
  167DOPC  H13C20216   1.153   1.948  17.439  1.7832 -0.4901 -1.3983
  167DOPC   C1420217   0.953   2.123  17.460  0.3730 -1.1854  0.5966
  167DOPC  H14A20218   0.918   2.048  17.390  1.1593 -1.0943  0.0847
  167DOPC  H14B20219   0.924   2.086  17.557  1.1201 -1.8040  0.5903
  167DOPC  H14C20220   0.906   2.217  17.433 -0.7826 -1.5985  1.1542
  167DOPC   C1520221   1.131   2.279  17.527  0.0520  0.3625  0.6814
  167DOPC  H15A20222   1.238   2.293  17.528  0.0056  1.0904 -0.9532
  167DOPC  H15B20223   1.101   2.280  17.631  1.3115  0.9788  1.0594
  167DOPC  H15C20224   1.091   2.368  17.482 -0.5942 -1.2882 -2.2376
  167DOPC   C1120225   1.071   2.299  17.246  0.1460 -0.0048  0.1606
  167DOPC  H11A20226   1.104   2.387  17.304 -0.3619  0.9625 -0.9721
  167DOPC  H11B20227   1.127   2.318  17.152 -1.8262  0.7650 -0.9201
  167DOPC     P20228   0.867   2.210  17.109 -0.5937 -0.0086  0.4073
  167DOPC   O1320229   0.721   2.215  17.117 -0.5482  0.4235 -0.4082
  167DOPC   O1420230   0.937   2.077  17.109  0.8234  0.1257 -0.2969
  167DOPC   O1220231   0.925   2.301  17.221 -0.2719  0.1096 -0.4083
  167DOPC   O1120232   0.903   2.279  16.973  0.0817 -0.2668  0.0605
  167DOPC    C120233   0.907   2.421  16.956  0.5534  0.4257 -0.1886
  167DOPC    HA20234   1.010   2.460  16.974  1.1882 -1.2282 -0.0384
  167DOPC    HB20235   0.840   2.475  17.026 -0.8340  0.6410 -1.6414
  167DOPC    C220236   0.868   2.460  16.814  0.1028  0.6240  0.3060
  167DOPC    HS20237   0.843   2.568  16.810  0.8086  0.8274  1.1153
  167DOPC   O2120238   0.769   2.383  16.752 -0.3821 -0.0610  0.6363
  167DOPC   C2120239   0.651   2.388  16.811 -0.0236 -0.1705 -0.7158
  167DOPC   O2220240   0.623   2.451  16.911  0.1229  0.7548  0.0814
  167DOPC   C2220241   0.554   2.303  16.735  0.4132  0.5736  0.2016
  167DOPC   H2R20242   0.466   2.305  16.803  0.3853 -1.6211  0.2880
  167DOPC   H2S20243   0.586   2.197  16.734 -0.5703  0.1515 -3.5470
  167DOPC    C320244   0.989   2.457  16.723 -0.1852  0.2399  0.0864
  167DOPC    HX20245   1.033   2.355  16.728  0.5993  0.3795 -2.5017
  167DOPC    HY20246   1.063   2.527  16.768 -1.6065  2.5506 -0.9963
  167DOPC   O3120247   0.945   2.509  16.594  0.3294  0.0906 -0.3222
  167DOPC   C3120248   0.978   2.441  16.490  0.6629 -0.3830 -0.2130
  167DOPC   O3220249   1.047   2.340  16.497 -0.0171  0.0886  0.3385
  167DOPC   C3220250   0.889   2.481  16.368  0.0459 -0.3510 -0.3312
  167DOPC   H2X20251   0.787   2.483  16.412  0.4403  0.6189  0.5996
  167DOPC   H2Y20252   0.919   2.583  16.333 -3.1038  0.8865  0.2510
  167DOPC   C2320253   0.510   2.357  16.600 -0.7132 -0.0437  0.0980
  167DOPC   H3R20254   0.529   2.465  16.585 -0.2717  0.0139  1.0240
  167DOPC   H3S20255   0.401   2.338  16.583 -0.6684  0.1974 -0.4792
  167DOPC   C2420256   0.591   2.297  16.485 -0.1199 -0.0576 -0.3383
  167DOPC   H4R20257   0.692   2.275  16.528  0.3319  1.1431 -0.7458
  167DOPC   H4S20258   0.598   2.370  16.402  0.0733  1.6780  1.1267
  167DOPC   C2520259   0.524   2.173  16.434  0.6957 -0.2315 -0.8572
  167DOPC   H5R20260   0.422   2.200  16.397 -1.0149  0.2528  3.5303
  167DOPC   H5S20261   0.507   2.104  16.519 -1.3796  3.1258  1.7430
  167DOPC   C2620262   0.611   2.109  16.324 -0.0564 -0.0665  0.5134
  167DOPC   H6R20263   0.719   2.119  16.350  0.0303  0.2151  0.0447
  167DOPC   H6S20264   0.602   2.171  16.233  0.9852  2.2299  1.8798
  167DOPC   C2720265   0.561   1.968  16.285  0.4025 -0.6123  0.4256
  167DOPC   H7R20266   0.465   1.987  16.232  0.7277  1.7832  0.6001
  167DOPC   H7S20267   0.541   1.897  16.368  0.2809 -1.0864 -0.0039
  167DOPC   C2820268   0.666   1.909  16.184  0.4109 -0.2337 -0.9425
  167DOPC   H8R20269   0.732   1.845  16.247 -0.0114 -0.1296 -0.3842
  167DOPC   H8S20270   0.732   1.987  16.142  2.3481 -2.3910 -2.1190
  167DOPC   C2920271   0.595   1.828  16.082  0.7423  0.4334  0.4310
  167DOPC   H9R20272   0.560   1.731  16.120 -0.5702  0.5597 -0.3969
  167DOPC  C21020273   0.582   1.842  15.948 -0.4571 -0.2420 -0.3166
  167DOPC  H10R20274   0.518   1.771  15.893 -2.0813  0.0877  1.0692
  167DOPC  C21120275   0.651   1.950  15.858  0.6165 -0.1758 -0.3224
  167DOPC  H11R20276   0.701   2.025  15.923 -0.7284  0.2600  0.2313
  167DOPC  H11S20277   0.574   2.008  15.803  1.6270 -0.4763 -2.1632
  167DOPC  C21220278   0.754   1.895  15.754 -0.2063  0.1644 -0.2656
  167DOPC  H12R20279   0.840   1.852  15.810 -1.5285  2.6240  4.0425
  167DOPC  H12S20280   0.707   1.810  15.699  1.9310 -2.0628  1.1172
  167DOPC  C21320281   0.804   2.004  15.665  0.7065 -0.5219  0.3605
  167DOPC  H13R20282   0.859   2.085  15.718  1.8477 -2.0106  1.5746
  167DOPC  H13S20283   0.720   2.052  15.612  1.1845  0.3979  0.4080
  167DOPC  C21420284   0.892   1.959  15.554 -0.1104  0.0951  0.4454
  167DOPC  H14R20285   0.861   1.863  15.508 -1.1197  0.4069  0.4590
  167DOPC  H14S20286   0.995   1.946  15.594  0.0083 -0.9712 -0.1693
  167DOPC  C21520287   0.902   2.060  15.440 -0.8178  0.0241  0.3727
  167DOPC  H15R20288   0.951   2.148  15.486 -0.7125 -0.5276  1.3541
  167DOPC  H15S20289   0.808   2.089  15.388 -0.3468 -1.4394 -1.3858
  167DOPC  C21620290   0.994   1.995  15.327 -0.3816  0.9395  0.4714
  167DOPC  H16R20291   0.938   1.904  15.296 -1.3428  1.8170 -0.4168
  167DOPC  H16S20292   1.089   1.954  15.369 -1.2690 -1.6862  0.1251
  167DOPC  C21720293   1.021   2.089  15.211  0.5109 -0.0056 -0.7651
  167DOPC  H17R20294   1.083   2.174  15.245 -0.1272  0.7850 -1.5534
  167DOPC  H17S20295   0.922   2.123  15.172 -1.2037 -2.8683  0.6708
  167DOPC  C21820296   1.096   2.012  15.101 -0.1019 -0.1650  0.0046
  167DOPC  H18R20297   1.190   1.964  15.137 -0.0260  0.3750  0.5491
  167DOPC  H18S20298   1.129   2.085  15.024  0.5760  0.0663  0.5056
  167DOPC  H18T20299   1.034   1.935  15.051  0.6036 -1.1204  0.5651
  167DOPC   C3320300   0.918   2.375  16.258 -0.3605  0.1624 -0.0045
  167DOPC   H3X20301   0.882   2.275  16.290  1.3022 -0.1407  1.0605
  167DOPC   H3Y20302   1.026   2.356  16.238 -0.4546 -3.7094  2.0614
  167DOPC   C3420303   0.870   2.423  16.116 -0.2111  0.1660 -0.4610
  167DOPC   H4X20304   0.922   2.519  16.097  0.0298  0.4178  1.3390
  167DOPC   H4Y20305   0.760   2.436  16.129 -0.6016 -1.4194 -1.7648
  167DOPC   C3520306   0.894   2.320  16.008 -0.3152  0.3832  0.2039
  167DOPC   H5X20307   0.836   2.338  15.915 -1.1038 -1.2006  0.3586
  167DOPC   H5Y20308   0.868   2.219  16.046  0.6329  0.5731  1.4298
  167DOPC   C3620309   1.040   2.319  15.967 -0.1022  0.3429 -0.3117
  167DOPC   H6X20310   1.080   2.416  15.931  1.0702 -0.3525 -0.9576
  167DOPC   H6Y20311   1.102   2.304  16.058  0.4412  0.8524 -0.5906
  167DOPC   C3720312   1.070   2.214  15.855 -0.2297  0.5106  0.0210
  167DOPC   H7X20313   1.034   2.116  15.893 -2.0779  0.9457 -0.5008
  167DOPC   H7Y20314   1.007   2.233  15.765 -0.9529  2.2625  0.8521
  167DOPC   C3820315   1.217   2.205  15.818  0.4260  0.1719  0.0399
  167DOPC   H8X20316   1.278   2.201  15.911  0.1361  1.6668  0.3258
  167DOPC   H8Y20317   1.260   2.299  15.778 -1.1314  0.5482 -0.8338
  167DOPC   C3920318   1.257   2.094  15.722  0.7952  0.2034  0.0363
  167DOPC   H9X20319   1.214   1.998  15.755 -1.3955  1.3957  0.8481
  167DOPC  C31020320   1.333   2.112  15.612 -0.0762  0.7617  0.0400
  167DOPC  H10X20321   1.349   2.041  15.529  0.1704  1.6198 -0.6591
  167DOPC  C31120322   1.389   2.249  15.571  0.5431  0.2704  0.3186
  167DOPC  H11X20323   1.490   2.234  15.526  1.0372 -0.7111  1.7159
  167DOPC  H11Y20324   1.420   2.314  15.655  0.0890 -0.1865  0.8480
  167DOPC  C31220325   1.301   2.325  15.465 -0.7800  0.6281 -0.8136
  167DOPC  H12X20326   1.263   2.265  15.380 -3.2264  0.6255  0.1881
  167DOPC  H12Y20327   1.370   2.396  15.414  1.3540 -1.1389 -0.5097
  167DOPC  C31320328   1.191   2.406  15.539 -0.1873  0.5667  0.5005
  167DOPC  H13X20329   1.125   2.338  15.596  1.4479 -2.9378 -1.4818
  167DOPC  H13Y20330   1.230   2.485  15.607 -0.7002  0.1943  1.2382
  167DOPC  C31420331   1.105   2.476  15.429  0.2486  0.3607  0.3572
  167DOPC  H14X20332   1.169   2.561  15.398  1.1649 -0.5792 -0.3905
  167DOPC  H14Y20333   1.097   2.408  15.341  2.3290 -1.0727  1.1941
  167DOPC  C31520334   0.969   2.523  15.482 -0.0543 -0.6221  0.0858
  167DOPC  H15X20335   0.996   2.569  15.580  0.2214 -0.4061 -0.0924
  167DOPC  H15Y20336   0.909   2.432  15.506  0.6417 -0.7504  1.4405
  167DOPC  C31620337   0.891   2.621  15.387  0.6266 -0.2284  0.1523
  167DOPC  H16X20338   0.790   2.635  15.431  1.4037 -0.3614  2.0909
  167DOPC  H16Y20339   0.948   2.715  15.402 -1.1357  0.9745 -0.4435
  167DOPC  C31720340   0.889   2.577  15.241  0.2721  0.4814  0.1126
  167DOPC  H17X20341   0.870   2.659  15.167  3.6330  0.2144 -1.2027
  167DOPC  H17Y20342   0.993   2.544  15.220  1.1939  0.5174  3.9438
  167DOPC  C31820343   0.796   2.454  15.215  0.9525 -0.0903 -0.0289
  167DOPC  H18X20344   0.689   2.472  15.241  0.6545 -2.3172  0.4350
  167DOPC  H18Y20345   0.814   2.428  15.109  0.8755 -0.0382 -0.0551
  167DOPC  H18Z20346   0.831   2.373  15.283  0.9264  0.5840  0.8057
  168DOPC     N20347   3.873   0.870  17.739 -0.0720  0.2590 -0.0603
  168DOPC   C1220348   3.965   0.862  17.615 -0.5115 -0.2618  0.0097
  168DOPC  H12A20349   4.032   0.778  17.624  1.8134  1.5214  0.1825
  168DOPC  H12B20350   4.032   0.947  17.621  0.3141 -0.8194 -1.0163
  168DOPC   C1320351   3.812   0.736  17.749 -0.0661  0.0043 -0.5486
  168DOPC  H13A20352   3.751   0.732  17.660  0.8193  0.3433 -1.1875
  168DOPC  H13B20353   3.879   0.652  17.758 -1.8354 -1.4369 -0.3076
  168DOPC  H13C20354   3.742   0.725  17.831  1.4949 -2.1680  0.6207
  168DOPC   C1420355   3.767   0.978  17.728  0.2065 -0.2235 -0.3525
  168DOPC  H14A20356   3.699   0.956  17.647 -1.9214  5.6042 -0.5652
  168DOPC  H14B20357   3.703   0.996  17.813  0.8352 -1.2603  0.3762
  168DOPC  H14C20358   3.802   1.077  17.705 -0.4623  0.8779  2.9021
  168DOPC   C1520359   3.961   0.894  17.862 -0.2886  0.0184 -0.4742
  168DOPC  H15A20360   4.006   0.800  17.890  0.5425 -0.1531 -2.2744
  168DOPC  H15B20361   3.898   0.916  17.947  0.9962  0.8558  0.2921
  168DOPC  H15C20362   4.034   0.968  17.832  0.5053 -0.3645  0.4210
  168DOPC   C1120363   3.901   0.862  17.477  0.4326 -0.1874 -0.4120
  168DOPC  H11A20364   3.830   0.947  17.470 -1.2755 -1.5574 -0.3028
  168DOPC  H11B20365   3.977   0.866  17.396 -0.6457 -3.4766 -1.7643
  168DOPC     P20366   3.896   0.611  17.404  0.1930 -0.2996  0.2858
  168DOPC   O1320367   3.810   0.489  17.413 -0.0966  0.3875  0.7417
  168DOPC   O1420368   4.031   0.603  17.456 -0.2996  0.4408  0.5718
  168DOPC   O1220369   3.821   0.743  17.469  0.2028  0.7913 -0.2806
  168DOPC   O1120370   3.895   0.642  17.247 -0.5148 -0.3429  0.7230
  168DOPC    C120371   3.765   0.691  17.194 -1.0601  0.1409 -0.4737
  168DOPC    HA20372   3.726   0.788  17.230 -0.0782  0.0102  1.0688
  168DOPC    HB20373   3.688   0.613  17.216 -0.5587 -0.0486  0.7039
  168DOPC    C220374   3.770   0.709  17.043  0.2054 -0.6188  1.0500
  168DOPC    HS20375   3.698   0.788  17.016 -0.2083  0.4167  4.7393
  168DOPC   O2120376   3.757   0.583  16.977 -0.2421 -0.0100  0.2566
  168DOPC   C2120377   3.627   0.546  16.960  0.0294 -0.3402  0.1466
  168DOPC   O2220378   3.530   0.602  17.002  0.2422  0.1326 -0.4048
  168DOPC   C2220379   3.625   0.416  16.882 -0.2365  0.0157 -0.0570
  168DOPC   H2R20380   3.656   0.339  16.956 -0.7503  1.3801  1.6372
  168DOPC   H2S20381   3.700   0.415  16.799  0.6675  0.4006  0.7368
  168DOPC    C320382   3.906   0.765  16.998 -0.1463  0.8993  1.1037
  168DOPC    HX20383   3.974   0.682  17.025 -3.9229 -2.7798  0.3900
  168DOPC    HY20384   3.932   0.850  17.065  0.5505 -0.0949  2.1133
  168DOPC   O3120385   3.909   0.801  16.857 -0.3632 -0.2350 -0.2874
  168DOPC   C3120386   4.032   0.833  16.818  0.4749  0.1890 -0.0817
  168DOPC   O3220387   4.134   0.831  16.883  0.3490  0.2449  0.3659
  168DOPC   C3220388   4.024   0.854  16.668 -0.2279  0.2942 -0.1371
  168DOPC   H2X20389   3.958   0.772  16.631 -0.0275 -0.0050  0.1579
  168DOPC   H2Y20390   3.971   0.949  16.648 -1.0615 -0.2158 -0.3919
  168DOPC   C2320391   3.484   0.382  16.829 -0.3861 -0.1282 -0.3757
  168DOPC   H3R20392   3.463   0.464  16.757  0.6816  0.9444  0.4937
  168DOPC   H3S20393   3.410   0.385  16.912  0.2006 -0.3293  0.1631
  168DOPC   C2420394   3.492   0.244  16.762  0.6658  0.4077 -0.4006
  168DOPC   H4R20395   3.385   0.218  16.748  0.3447  0.4974  1.5682
  168DOPC   H4S20396   3.550   0.171  16.823  0.1345  0.5049  0.2355
  168DOPC   C2520397   3.564   0.244  16.630 -0.2940  0.0809 -0.3341
  168DOPC   H5R20398   3.669   0.280  16.639  0.0324 -0.8455 -0.3080
  168DOPC   H5S20399   3.511   0.319  16.567 -0.6345  1.5958  1.6840
  168DOPC   C2620400   3.557   0.105  16.561  0.1290 -0.1699  0.4243
  168DOPC   H6R20401   3.461   0.096  16.506  0.9742 -1.2960 -0.9331
  168DOPC   H6S20402   3.555   0.029  16.642 -0.1042  1.2621  1.8045
  168DOPC   C2720403   3.678   0.080  16.466  0.6196  0.0502 -0.2242
  168DOPC   H7R20404   3.768   0.060  16.528 -0.1725 -1.2838  0.5284
  168DOPC   H7S20405   3.679   0.172  16.403  0.7605  1.9893  2.4049
  168DOPC   C2820406   3.659  -0.038  16.371 -0.9135 -0.4531  0.1649
  168DOPC   H8R20407   3.564  -0.018  16.316  0.1031  1.1942 -1.1029
  168DOPC   H8S20408   3.635  -0.131  16.426 -0.3089 -0.1044  1.0410
  168DOPC   C2920409   3.775  -0.049  16.281 -0.0395  0.1367  0.3899
  168DOPC   H9R20410   3.842  -0.133  16.307 -2.5035 -2.5567 -1.4625
  168DOPC  C21020411   3.792   0.017  16.166 -0.1671  0.1689 -0.4444
  168DOPC  H10R20412   3.880  -0.016  16.110  0.4654 -2.5118  1.9015
  168DOPC  C21120413   3.720   0.138  16.111  0.3570  0.9280  0.0633
  168DOPC  H11R20414   3.772   0.235  16.127  0.9924  0.3348  1.8134
  168DOPC  H11S20415   3.617   0.142  16.154  0.4745  0.5273  0.3798
  168DOPC  C21220416   3.706   0.119  15.959  0.3167 -0.2828  0.1892
  168DOPC  H12R20417   3.807   0.095  15.920 -0.0711 -2.4154  0.4160
  168DOPC  H12S20418   3.672   0.212  15.908  0.6851 -0.4627 -0.4019
  168DOPC  C21320419   3.605   0.005  15.921 -0.2152 -0.0990  0.4319
  168DOPC  H13R20420   3.523   0.013  15.995  0.4564 -1.1427  1.3118
  168DOPC  H13S20421   3.643  -0.099  15.933  0.2158 -0.0202 -0.1749
  168DOPC  C21420422   3.544   0.027  15.783  0.3769  0.3689 -0.3548
  168DOPC  H14R20423   3.628   0.042  15.711 -0.6692 -0.7622 -1.8829
  168DOPC  H14S20424   3.477   0.116  15.787  0.5956  0.5340 -0.3328
  168DOPC  C21520425   3.457  -0.090  15.732 -0.0822  0.5312 -0.1711
  168DOPC  H15R20426   3.352  -0.091  15.768  0.0231 -1.9796  0.2413
  168DOPC  H15S20427   3.500  -0.186  15.767 -1.9066  0.1392  1.1351
  168DOPC  C21620428   3.456  -0.092  15.579  0.2161  0.2390 -0.4911
  168DOPC  H16R20429   3.560  -0.098  15.541  0.0843  0.2619 -0.8513
  168DOPC  H16S20430   3.424   0.011  15.554  1.2588  1.1514  1.6438
  168DOPC  C21720431   3.372  -0.199  15.511  0.2547  0.6911 -0.0546
  168DOPC  H17R20432   3.425  -0.297  15.506  1.0924  1.1140  0.2662
  168DOPC  H17S20433   3.366  -0.165  15.406  0.6903  0.3461 -0.1947
  168DOPC  C21820434   3.229  -0.231  15.560 -0.4323  0.3608 -0.5129
  168DOPC  H18R20435   3.220  -0.258  15.668 -0.9090  0.3548 -0.5500
  168DOPC  H18S20436   3.188  -0.309  15.492  2.9389 -0.5614 -1.6814
  168DOPC  H18T20437   3.173  -0.135  15.562  0.5742  0.9722  2.4786
  168DOPC   C3320438   4.169   0.862  16.607 -0.3157 -0.4046 -0.3661
  168DOPC   H3X20439   4.229   0.776  16.643  2.2511  1.3543 -0.1540
  168DOPC   H3Y20440   4.216   0.958  16.641  2.6070 -1.5562 -0.8217
  168DOPC   C3420441   4.172   0.865  16.450 -0.4017 -0.2644  0.0301
  168DOPC   H4X20442   4.276   0.894  16.424 -0.3393 -0.1667  0.3894
  168DOPC   H4Y20443   4.098   0.934  16.404 -0.3861 -0.0903  0.2685
  168DOPC   C3520444   4.152   0.718  16.401 -0.3494 -0.1444  0.8211
  168DOPC   H5X20445   4.066   0.668  16.452 -0.5795  0.0618  0.6395
  168DOPC   H5Y20446   4.244   0.661  16.427  0.1042  0.4737  0.5853
  168DOPC   C3620447   4.118   0.705  16.247  0.0019  0.4727  0.8925
  168DOPC   H6X20448   4.073   0.607  16.220  0.6050  0.0412  1.4160
  168DOPC   H6Y20449   4.038   0.782  16.239  0.1917  0.5303 -0.9678
  168DOPC   C3720450   4.225   0.729  16.148  0.0392 -0.3994  0.2176
  168DOPC   H7X20451   4.272   0.830  16.145  0.5765 -0.6209  0.8269
  168DOPC   H7Y20452   4.310   0.663  16.176  0.8971 -0.2194 -1.7938
  168DOPC   C3820453   4.200   0.683  16.004 -0.3296 -0.8925 -0.1491
  168DOPC   H8X20454   4.151   0.583  16.003 -1.0650 -0.5529  0.4708
  168DOPC   H8Y20455   4.295   0.674  15.948  0.9067 -0.0763  1.7103
  168DOPC   C3920456   4.101   0.777  15.932 -0.7621 -0.0684  0.5572
  168DOPC   H9X20457   4.027   0.830  15.994 -0.7424 -1.4494  1.8192
  168DOPC  C31020458   4.108   0.806  15.803 -0.6098 -0.2548  0.1742
  168DOPC  H10X20459   4.040   0.883  15.763  0.2794  0.0187 -0.8523
  168DOPC  C31120460   4.195   0.745  15.696 -0.2132  0.3707 -0.1932
  168DOPC  H11X20461   4.258   0.661  15.731 -0.8225 -0.1041 -0.2156
  168DOPC  H11Y20462   4.270   0.819  15.663  1.4238 -1.5512 -1.0028
  168DOPC  C31220463   4.125   0.683  15.570 -0.2119 -0.4786 -0.4399
  168DOPC  H12X20464   4.090   0.584  15.608  2.8128 -0.8230  1.9009
  168DOPC  H12Y20465   4.198   0.674  15.487  0.7436  0.1176  0.3121
  168DOPC  C31320466   4.009   0.768  15.522  0.1159  0.3992  0.2340
  168DOPC  H13X20467   3.938   0.790  15.605 -0.3276 -0.5163  0.1090
  168DOPC  H13Y20468   4.056   0.864  15.492  1.1997 -0.3461 -0.5271
  168DOPC  C31420469   3.940   0.697  15.397 -0.4299  0.0506  0.2266
  168DOPC  H14X20470   3.908   0.597  15.432 -0.0342  0.1571  0.9019
  168DOPC  H14Y20471   3.842   0.746  15.377 -0.3058  0.0972 -0.2669
  168DOPC  C31520472   4.034   0.700  15.273 -0.3769 -0.1585  0.0948
  168DOPC  H15X20473   4.123   0.636  15.285  1.8488  2.3385 -1.7352
  168DOPC  H15Y20474   4.078   0.802  15.265 -0.9562  0.2107  1.3464
  168DOPC  C31620475   3.957   0.661  15.145 -0.8721  0.5364  0.0924
  168DOPC  H16X20476   3.852   0.697  15.142 -0.9207  0.4678  0.8377
  168DOPC  H16Y20477   4.011   0.702  15.057  1.0050 -0.0742  0.9187
  168DOPC  C31720478   3.927   0.516  15.129 -0.0644  0.3270  0.7032
  168DOPC  H17X20479   4.020   0.456  15.120 -0.6647 -0.4124 -1.1877
  168DOPC  H17Y20480   3.868   0.483  15.217  1.0803 -0.5757  1.1576
  168DOPC  C31820481   3.842   0.493  15.006  0.0534 -0.7828 -0.2721
  168DOPC  H18X20482   3.903   0.517  14.917 -0.4272 -0.0920 -0.4202
  168DOPC  H18Y20483   3.809   0.387  15.010 -0.9008 -0.4671  0.8004
  168DOPC  H18Z20484   3.748   0.551  15.003 -0.7294 -2.0351 -1.2377
  169DOPC     N20485   1.968   1.008  16.758 -0.1772  0.3988  0.3831
  169DOPC   C1220486   2.031   0.989  16.894  0.5559 -0.4894 -0.1957
  169DOPC  H12A20487   2.119   0.931  16.872  0.1258 -0.8905 -0.8949
  169DOPC  H12B20488   1.962   0.938  16.960 -0.3511  0.6593 -0.2200
  169DOPC   C1320489   1.877   1.122  16.776 -0.3007 -0.0761  0.1536
  169DOPC  H13A20490   1.815   1.146  16.692  0.7730  1.4616 -0.2644
  169DOPC  H13B20491   1.808   1.098  16.856  1.6704  0.0366  2.0032
  169DOPC  H13C20492   1.932   1.211  16.806  0.1427 -0.0556 -0.7119
  169DOPC   C1420493   1.893   0.888  16.706 -0.4337 -0.1875 -0.3149
  169DOPC  H14A20494   1.819   0.901  16.629 -0.2895  0.7118 -0.3124
  169DOPC  H14B20495   1.966   0.814  16.675 -0.7604 -1.6442  2.0854
  169DOPC  H14C20496   1.841   0.841  16.789 -0.2521 -0.7276 -0.5021
  169DOPC   C1520497   2.073   1.033  16.655 -0.3180  0.4426 -0.1893
  169DOPC  H15A20498   2.036   1.028  16.554  0.8971  1.4970 -0.7286
  169DOPC  H15B20499   2.168   0.981  16.663  0.3992  1.9779  2.9202
  169DOPC  H15C20500   2.098   1.138  16.669 -1.0941  0.4008  1.6959
  169DOPC   C1120501   2.091   1.118  16.961  0.0234  1.2442  0.9676
  169DOPC  H11A20502   2.014   1.193  16.986  1.4503  3.0299  0.2474
  169DOPC  H11B20503   2.144   1.089  17.055 -1.5473 -2.4220  0.8947
  169DOPC     P20504   2.283   1.286  16.945  0.1707  0.3685  0.2314
  169DOPC   O1320505   2.409   1.229  16.995  0.6017 -0.4752 -0.0915
  169DOPC   O1420506   2.199   1.362  17.042 -0.0105  0.5382  0.5602
  169DOPC   O1220507   2.191   1.170  16.874 -0.0593  0.0420 -0.1907
  169DOPC   O1120508   2.321   1.387  16.828  0.5689  0.1945  0.1167
  169DOPC    C120509   2.232   1.417  16.717 -0.1373  0.3443  0.2918
  169DOPC    HA20510   2.124   1.402  16.741 -0.1994  2.6424  1.7056
  169DOPC    HB20511   2.270   1.350  16.637  0.7135  0.2142  0.7876
  169DOPC    C220512   2.254   1.566  16.685  0.1985 -0.0219  0.5424
  169DOPC    HS20513   2.178   1.613  16.619  1.5869 -1.2270 -2.0200
  169DOPC   O2120514   2.387   1.589  16.639 -0.4297 -0.3654 -0.2832
  169DOPC   C2120515   2.421   1.539  16.526 -0.1201  0.6167 -0.5951
  169DOPC   O2220516   2.350   1.491  16.442  0.2496  0.1916  0.1209
  169DOPC   C2220517   2.565   1.571  16.501  0.2881  0.0416 -0.4376
  169DOPC   H2R20518   2.627   1.558  16.592  1.9615 -0.4821 -1.6086
  169DOPC   H2S20519   2.580   1.676  16.470  0.5684 -0.0670 -0.6721
  169DOPC    C320520   2.247   1.652  16.809  0.3206  0.5035 -0.3790
  169DOPC    HX20521   2.317   1.617  16.888 -0.2393  1.0818  0.3826
  169DOPC    HY20522   2.147   1.640  16.855  0.2279  1.1721 -0.3871
  169DOPC   O3120523   2.262   1.789  16.783 -0.4472  0.2783  0.3860
  169DOPC   C3120524   2.297   1.868  16.889  0.1761  1.1153  0.1258
  169DOPC   O3220525   2.329   1.831  16.999 -0.4342 -0.1917  0.6965
  169DOPC   C3220526   2.289   2.014  16.850  0.1120 -0.0409  0.0197
  169DOPC   H2X20527   2.182   2.046  16.853 -0.3759 -1.5779  2.2784
  169DOPC   H2Y20528   2.348   2.078  16.920 -0.7262  1.6697 -0.7751
  169DOPC   C2320529   2.614   1.497  16.376 -0.6820 -0.3308  0.3750
  169DOPC   H3R20530   2.583   1.391  16.366 -2.4917  0.1794  0.1732
  169DOPC   H3S20531   2.725   1.496  16.379 -0.6196 -1.9265 -0.9785
  169DOPC   C2420532   2.574   1.580  16.247 -0.6693  0.1184  0.3698
  169DOPC   H4R20533   2.604   1.686  16.261 -1.3443  0.4778 -0.7600
  169DOPC   H4S20534   2.464   1.578  16.231 -0.4846  1.8758 -1.5064
  169DOPC   C2520535   2.653   1.537  16.115 -0.0095 -0.2138 -0.1790
  169DOPC   H5R20536   2.651   1.426  16.106 -0.2497 -0.0954 -1.8323
  169DOPC   H5S20537   2.757   1.572  16.128  0.6857 -2.9912  3.2923
  169DOPC   C2620538   2.603   1.593  15.978  0.1680  0.1676  0.6183
  169DOPC   H6R20539   2.606   1.704  15.972  1.4507  0.1095 -0.4049
  169DOPC   H6S20540   2.495   1.570  15.967 -0.0999  0.4621  2.3167
  169DOPC   C2720541   2.695   1.539  15.863  0.4790 -0.2360 -0.2862
  169DOPC   H7R20542   2.717   1.430  15.871 -0.0618 -0.3002  0.4276
  169DOPC   H7S20543   2.790   1.597  15.860 -0.3845  1.2255 -3.8706
  169DOPC   C2820544   2.629   1.562  15.722 -0.7471 -0.0552  0.4645
  169DOPC   H8R20545   2.717   1.571  15.653 -1.3637  0.7498 -0.2388
  169DOPC   H8S20546   2.586   1.664  15.723 -1.3535 -0.2854 -0.4173
  169DOPC   C2920547   2.523   1.469  15.672 -0.0068  0.4174 -0.2443
  169DOPC   H9R20548   2.436   1.464  15.739  0.3551 -1.0353  0.1575
  169DOPC  C21020549   2.531   1.399  15.556  0.0123  0.1831 -0.4345
  169DOPC  H10R20550   2.442   1.342  15.526  0.0078  0.9659 -2.0520
  169DOPC  C21120551   2.648   1.379  15.467 -0.1115 -0.3898 -0.0604
  169DOPC  H11R20552   2.653   1.274  15.432  0.9986 -0.0241 -1.0352
  169DOPC  H11S20553   2.744   1.398  15.518  0.0770  0.9293 -0.8684
  169DOPC  C21220554   2.634   1.463  15.336  0.0045 -0.0354  0.3159
  169DOPC  H12R20555   2.635   1.569  15.371 -0.5548 -0.0385  0.3501
  169DOPC  H12S20556   2.529   1.457  15.300 -0.0825 -0.2457  0.6035
  169DOPC  C21320557   2.744   1.445  15.240  0.2370  0.6207 -0.1227
  169DOPC  H13R20558   2.725   1.368  15.162  2.7772 -0.9547  0.6738
  169DOPC  H13S20559   2.844   1.419  15.282  0.0241 -2.3977 -1.2180
  169DOPC  C21420560   2.773   1.576  15.158 -0.1907 -0.1765 -0.4623
  169DOPC  H14R20561   2.862   1.553  15.095 -1.0317  1.8229 -2.5340
  169DOPC  H14S20562   2.793   1.657  15.231  2.4963 -1.6556  0.5906
  169DOPC  C21520563   2.668   1.595  15.053  0.0426 -0.2532  0.0559
  169DOPC  H15R20564   2.571   1.599  15.107 -0.9936 -1.2675 -1.6510
  169DOPC  H15S20565   2.664   1.499  14.997 -0.4320 -0.6929  0.8091
  169DOPC  C21620566   2.700   1.705  14.947  1.2065 -0.0047 -0.3260
  169DOPC  H16R20567   2.768   1.665  14.869  3.0174  4.6443 -1.4893
  169DOPC  H16S20568   2.753   1.789  14.997  2.2631 -0.3024 -0.9110
  169DOPC  C21720569   2.577   1.757  14.864 -0.3889 -0.0369 -0.4643
  169DOPC  H17R20570   2.617   1.835  14.796 -0.5852  1.2418  0.8340
  169DOPC  H17S20571   2.514   1.804  14.943 -0.8121 -0.7944 -0.3488
  169DOPC  C21820572   2.497   1.653  14.795 -0.8690 -0.2632  0.0875
  169DOPC  H18R20573   2.454   1.576  14.864 -1.0121 -1.4368 -1.2668
  169DOPC  H18S20574   2.552   1.605  14.712 -1.0054  0.9175 -0.7029
  169DOPC  H18T20575   2.416   1.703  14.738 -0.5635 -0.4494 -0.5193
  169DOPC   C3320576   2.355   2.049  16.708 -0.6519  0.8059 -0.1644
  169DOPC   H3X20577   2.450   1.995  16.696  0.6562  2.8163  0.5828
  169DOPC   H3Y20578   2.379   2.157  16.717 -1.4356  0.9573  0.2427
  169DOPC   C3420579   2.260   2.021  16.589 -0.3803  0.2615 -0.2301
  169DOPC   H4X20580   2.170   2.083  16.608 -0.8648 -0.4857 -0.0076
  169DOPC   H4Y20581   2.236   1.912  16.588  1.1625 -0.2885  3.9034
  169DOPC   C3520582   2.320   2.066  16.454 -0.2109  0.5015 -0.3460
  169DOPC   H5X20583   2.414   2.008  16.446 -1.2826 -1.5952  1.0721
  169DOPC   H5Y20584   2.354   2.170  16.438  0.8315  0.1231 -0.6765
  169DOPC   C3620585   2.221   2.045  16.335 -0.1983 -0.1897  0.4442
  169DOPC   H6X20586   2.205   1.936  16.340 -0.3311 -0.4767 -3.4749
  169DOPC   H6Y20587   2.130   2.104  16.360  0.1939  1.2397 -1.3230
  169DOPC   C3720588   2.258   2.104  16.204 -0.1715 -0.6799 -0.0107
  169DOPC   H7X20589   2.227   2.210  16.200 -2.4070 -1.3024 -0.5345
  169DOPC   H7Y20590   2.365   2.104  16.174 -0.2885  3.4840 -0.9730
  169DOPC   C3820591   2.165   2.038  16.091 -0.5053  0.3693 -0.2323
  169DOPC   H8X20592   2.167   2.099  15.999 -2.0185  0.6167 -0.1227
  169DOPC   H8Y20593   2.059   2.041  16.125 -0.1382 -0.2870  1.0460
  169DOPC   C3920594   2.205   1.894  16.064  0.2662 -0.8306 -0.5303
  169DOPC   H9X20595   2.191   1.829  16.151 -0.9606  1.3878  1.0406
  169DOPC  C31020596   2.260   1.849  15.946  0.0327  0.0088 -1.2603
  169DOPC  H10X20597   2.286   1.742  15.946 -1.7388 -0.4606 -0.6571
  169DOPC  C31120598   2.310   1.927  15.829  0.1947  0.1028  0.2012
  169DOPC  H11X20599   2.420   1.917  15.817  0.4123  0.3544  1.7753
  169DOPC  H11Y20600   2.299   2.037  15.836  1.4884  0.4264 -1.9803
  169DOPC  C31220601   2.245   1.881  15.696  0.2662  0.1246 -0.4094
  169DOPC  H12X20602   2.267   1.950  15.611  2.4631 -0.3721 -0.3144
  169DOPC  H12Y20603   2.135   1.877  15.709  0.1767  0.0275 -1.1467
  169DOPC  C31320604   2.294   1.736  15.656  0.0770  0.1901  0.0446
  169DOPC  H13X20605   2.399   1.745  15.620 -0.9012  0.2036 -3.0446
  169DOPC  H13Y20606   2.293   1.672  15.746 -0.7148  1.2670  0.8326
  169DOPC  C31420607   2.212   1.674  15.543  0.1293  0.3976  0.3008
  169DOPC  H14X20608   2.244   1.573  15.513 -1.5951 -0.3551  0.8813
  169DOPC  H14Y20609   2.111   1.656  15.585  0.1833 -2.0911 -0.5130
  169DOPC  C31520610   2.187   1.765  15.426  0.4064  0.5514  0.0408
  169DOPC  H15X20611   2.285   1.807  15.395 -0.6613  1.9998 -1.5905
  169DOPC  H15Y20612   2.130   1.860  15.438  0.0394  0.4579 -0.8816
  169DOPC  C31620613   2.123   1.686  15.311 -0.0140  0.2831 -0.3349
  169DOPC  H16X20614   2.191   1.603  15.282  0.3656  0.8001 -0.9620
  169DOPC  H16Y20615   2.021   1.651  15.337  0.3864  0.6307  1.8670
  169DOPC  C31720616   2.111   1.776  15.182 -0.0942 -0.1974 -0.3349
  169DOPC  H17X20617   2.078   1.698  15.110 -1.0924  0.8231 -1.0189
  169DOPC  H17Y20618   2.032   1.853  15.200  1.3599  2.4112 -3.9213
  169DOPC  C31820619   2.236   1.835  15.125  0.4562 -0.7338  0.1714
  169DOPC  H18X20620   2.226   1.882  15.025 -0.6353 -0.6827  0.2983
  169DOPC  H18Y20621   2.270   1.917  15.191  1.1082 -0.4605 -0.4805
  169DOPC  H18Z20622   2.316   1.759  15.141  1.0353  0.4523  3.7429
  170DOPC     N20623   1.332   0.313  17.152  0.0987 -0.3317 -0.9078
  170DOPC   C1220624   1.371   0.213  17.048 -0.3525 -0.4990 -0.5782
  170DOPC  H12A20625   1.391   0.260  16.953  1.0283 -1.1879 -0.6694
  170DOPC  H12B20626   1.293   0.144  17.020 -1.6732  0.1615  1.3072
  170DOPC   C1320627   1.201   0.367  17.113  0.6879  0.0098 -0.0278
  170DOPC  H13A20628   1.160   0.438  17.184 -0.5610 -0.9962  0.3024
  170DOPC  H13B20629   1.213   0.422  17.020 -2.0891  0.6789 -0.1039
  170DOPC  H13C20630   1.117   0.300  17.098  0.2783  0.6762 -0.8054
  170DOPC   C1420631   1.433   0.427  17.147  0.6138  0.2000 -0.0281
  170DOPC  H14A20632   1.421   0.507  17.217  1.4901 -0.4217  0.8561
  170DOPC  H14B20633   1.532   0.382  17.152  0.8550  0.4596 -1.7507
  170DOPC  H14C20634   1.439   0.482  17.054  0.2820  1.5863  0.7553
  170DOPC   C1520635   1.320   0.258  17.296 -0.2904  0.5894  0.4072
  170DOPC  H15A20636   1.248   0.178  17.298 -0.3240  0.5197 -1.3893
  170DOPC  H15B20637   1.293   0.326  17.376  0.8547 -0.0399  1.3501
  170DOPC  H15C20638   1.411   0.206  17.319 -0.0131  1.2932  0.9292
  170DOPC   C1120639   1.491   0.123  17.084 -0.4483  0.0663  0.2592
  170DOPC  H11A20640   1.476   0.077  17.184  0.4309  0.3314  0.5262
  170DOPC  H11B20641   1.492   0.041  17.010 -0.4394  0.4556 -0.1741
  170DOPC     P20642   1.698   0.238  16.964  0.2226 -0.1437 -0.0212
  170DOPC   O1320643   1.802   0.145  16.950 -0.3528 -0.5752 -0.0889
  170DOPC   O1420644   1.730   0.382  16.963  0.1052  0.1991 -0.5631
  170DOPC   O1220645   1.614   0.196  17.092 -0.5949  0.3501  0.1572
  170DOPC   O1120646   1.594   0.206  16.851  0.7415  0.3557  0.3774
  170DOPC    C120647   1.616   0.233  16.713 -0.8732  0.5993  0.4539
  170DOPC    HA20648   1.711   0.179  16.691 -0.8038 -0.3263  2.7375
  170DOPC    HB20649   1.632   0.340  16.688 -0.2207  0.1061 -1.4026
  170DOPC    C220650   1.504   0.159  16.622 -0.6138 -0.2909  0.3696
  170DOPC    HS20651   1.418   0.225  16.644 -1.4895 -1.5222  0.7169
  170DOPC   O2120652   1.480   0.023  16.666  0.9997 -0.2128 -0.2314
  170DOPC   C2120653   1.360   0.008  16.732 -0.6010  0.3488  0.7905
  170DOPC   O2220654   1.289   0.097  16.766  0.1488 -0.7649  0.0125
  170DOPC   C2220655   1.324  -0.143  16.749  0.4571  0.0231 -0.2137
  170DOPC   H2R20656   1.223  -0.139  16.796 -0.6287  0.9452 -2.4846
  170DOPC   H2S20657   1.400  -0.199  16.807 -0.2398  0.8474  1.5642
  170DOPC    C320658   1.549   0.173  16.477  0.0464 -0.3046  1.3712
  170DOPC    HX20659   1.645   0.117  16.480  1.2524  1.5803  0.2950
  170DOPC    HY20660   1.576   0.277  16.449 -1.8167  0.7027  3.1262
  170DOPC   O3120661   1.450   0.119  16.382 -0.0531  0.3111 -0.0151
  170DOPC   C3120662   1.360   0.198  16.340 -0.4943 -0.5682  0.3592
  170DOPC   O3220663   1.349   0.319  16.361 -0.1912  0.1562  0.1480
  170DOPC   C3220664   1.259   0.124  16.255 -0.2087  0.1060 -1.0351
  170DOPC   H2X20665   1.314   0.097  16.162 -0.7152 -0.6097 -1.1322
  170DOPC   H2Y20666   1.229   0.041  16.322  0.5424  1.2109  0.7410
  170DOPC   C2320667   1.296  -0.211  16.613  0.8122 -0.1325  0.2227
  170DOPC   H3R20668   1.221  -0.161  16.547  1.9584 -0.0101 -1.0434
  170DOPC   H3S20669   1.249  -0.308  16.641  0.0567 -0.1834 -1.1128
  170DOPC   C2420670   1.412  -0.257  16.528  0.2899 -0.3009  0.1633
  170DOPC   H4R20671   1.478  -0.316  16.594 -0.2814 -1.3487 -0.1830
  170DOPC   H4S20672   1.480  -0.173  16.499 -1.0317  1.2537  1.3905
  170DOPC   C2520673   1.363  -0.349  16.410  0.3168 -0.7360 -0.2952
  170DOPC   H5R20674   1.255  -0.321  16.403  0.7533  2.8951  3.4513
  170DOPC   H5S20675   1.379  -0.452  16.447  3.3115 -0.7396 -1.3674
  170DOPC   C2620676   1.445  -0.335  16.283 -0.2986  0.1129 -0.3823
  170DOPC   H6R20677   1.410  -0.416  16.215  0.8336  0.1818 -1.0732
  170DOPC   H6S20678   1.551  -0.354  16.310  0.0591  1.4499 -0.7444
  170DOPC   C2720679   1.431  -0.198  16.212 -0.0024 -0.2663  0.2549
  170DOPC   H7R20680   1.494  -0.129  16.272 -0.8369  0.6377  0.0989
  170DOPC   H7S20681   1.326  -0.170  16.233 -0.1440 -0.5539 -0.0613
  170DOPC   C2820682   1.473  -0.202  16.062 -0.0666 -1.2333  0.8825
  170DOPC   H8R20683   1.578  -0.167  16.055 -0.6654  0.4156 -0.5489
  170DOPC   H8S20684   1.413  -0.122  16.014 -0.3416 -0.7053  2.0880
  170DOPC   C2920685   1.472  -0.338  15.993 -0.1860 -0.4613  0.1296
  170DOPC   H9R20686   1.540  -0.412  16.039  0.1588  0.7979  1.7401
  170DOPC  C21020687   1.386  -0.372  15.891 -0.3034 -0.5306  0.5620
  170DOPC  H10R20688   1.388  -0.468  15.839  1.3607 -0.2006 -0.0568
  170DOPC  C21120689   1.286  -0.283  15.823 -0.4262 -0.1308 -0.1868
  170DOPC  H11R20690   1.319  -0.180  15.797 -1.1399  0.1747  0.0708
  170DOPC  H11S20691   1.204  -0.264  15.896 -0.6524  2.9642 -1.0748
  170DOPC  C21220692   1.213  -0.345  15.700  0.4891 -0.1727  0.0525
  170DOPC  H12R20693   1.118  -0.295  15.669 -0.7143 -2.3060  0.0881
  170DOPC  H12S20694   1.181  -0.451  15.711 -0.4698 -0.4183 -3.7322
  170DOPC  C21320695   1.312  -0.330  15.587  0.4512  0.2337  0.7441
  170DOPC  H13R20696   1.392  -0.405  15.607 -0.4291 -0.4874  1.6993
  170DOPC  H13S20697   1.348  -0.225  15.584 -3.0233  1.6035  1.0542
  170DOPC  C21420698   1.254  -0.355  15.444 -0.9123 -0.2741 -0.0790
  170DOPC  H14R20699   1.198  -0.263  15.418 -3.2695 -1.4005  0.7397
  170DOPC  H14S20700   1.198  -0.450  15.442  1.0208 -1.4692 -0.5955
  170DOPC  C21520701   1.376  -0.383  15.349  0.4744  0.3019 -0.9472
  170DOPC  H15R20702   1.409  -0.485  15.377 -1.5077 -0.1582 -0.1255
  170DOPC  H15S20703   1.465  -0.319  15.370  0.9700 -0.7826  0.3761
  170DOPC  C21620704   1.342  -0.398  15.203 -0.9423 -0.4530  0.3462
  170DOPC  H16R20705   1.324  -0.299  15.156  1.8788  0.2642  0.5990
  170DOPC  H16S20706   1.244  -0.451  15.202 -1.0215 -0.3081  0.1854
  170DOPC  C21720707   1.441  -0.491  15.133  0.2191  0.4222  0.2516
  170DOPC  H17R20708   1.490  -0.567  15.197  0.8812  0.7806  0.1907
  170DOPC  H17S20709   1.529  -0.437  15.090 -1.0821  2.3557 -0.0893
  170DOPC  C21820710   1.382  -0.556  15.010  0.0708  0.5020 -0.6570
  170DOPC  H18R20711   1.299  -0.620  15.048  0.9546 -0.9128 -1.0370
  170DOPC  H18S20712   1.460  -0.617  14.961  0.1888  0.3413 -0.2708
  170DOPC  H18T20713   1.333  -0.487  14.937 -0.4025  1.3552  0.4429
  170DOPC   C3320714   1.141   0.219  16.212 -0.3334 -0.2920 -0.5217
  170DOPC   H3X20715   1.185   0.305  16.157 -0.3956 -1.1488 -1.9672
  170DOPC   H3Y20716   1.087   0.242  16.306  0.7060 -4.4620  1.3667
  170DOPC   C3420717   1.036   0.154  16.114  0.1662 -0.1722  0.7452
  170DOPC   H4X20718   0.934   0.198  16.114 -0.2505 -0.9597 -2.0147
  170DOPC   H4Y20719   1.028   0.047  16.141  0.2905 -0.4972 -0.4589
  170DOPC   C3520720   1.095   0.166  15.972 -0.0175 -0.1846  0.6580
  170DOPC   H5X20721   1.198   0.126  15.965  0.2774  0.7855 -2.5163
  170DOPC   H5Y20722   1.113   0.272  15.944  1.0731 -0.5438 -0.0829
  170DOPC   C3620723   1.002   0.099  15.867 -0.1927  0.4268  0.4181
  170DOPC   H6X20724   0.965  -0.003  15.890  1.1931 -0.4536 -1.0667
  170DOPC   H6Y20725   0.915   0.164  15.843  1.1813  2.1032 -0.2871
  170DOPC   C3720726   1.091   0.083  15.744  0.8442  0.8321 -0.2452
  170DOPC   H7X20727   1.126   0.181  15.705  1.9645  0.0139 -1.3526
  170DOPC   H7Y20728   1.174   0.013  15.764  0.0193  0.3728  1.9542
  170DOPC   C3820729   1.020   0.011  15.623  0.3680  0.2569 -0.0997
  170DOPC   H8X20730   0.988  -0.087  15.664  1.4520  0.1094  0.4171
  170DOPC   H8Y20731   1.096   0.002  15.543  1.1429  4.3315 -0.0397
  170DOPC   C3920732   0.902   0.082  15.557  0.0737  0.5463 -0.4607
  170DOPC   H9X20733   0.829   0.129  15.624 -1.3858  1.1089 -2.3740
  170DOPC  C31020734   0.866   0.095  15.428  0.4210  0.1892  0.4006
  170DOPC  H10X20735   0.775   0.147  15.395  0.3776 -1.7083 -2.8591
  170DOPC  C31120736   0.938   0.039  15.310  0.8444  0.2948  0.2490
  170DOPC  H11X20737   1.044   0.015  15.328  1.1676  1.0377 -0.5708
  170DOPC  H11Y20738   0.935   0.118  15.231  0.8679 -1.1850 -1.2987
  170DOPC  C31220739   0.861  -0.075  15.244 -0.1970  0.7727  0.9529
  170DOPC  H12X20740   0.750  -0.064  15.247 -0.4673 -1.5840  1.3534
  170DOPC  H12Y20741   0.879  -0.172  15.295  1.5662  1.3733  1.5506
  170DOPC  C31320742   0.904  -0.092  15.090  0.2811 -1.0729 -0.0928
  170DOPC  H13X20743   1.010  -0.122  15.076  1.3436  1.9119  0.8849
  170DOPC  H13Y20744   0.838  -0.177  15.062 -0.0835 -1.4424  1.7990
  170DOPC  C31420745   0.877   0.023  14.989  0.8935  0.3128  0.2357
  170DOPC  H14X20746   0.785   0.076  15.022  1.7435  1.0924  1.4491
  170DOPC  H14Y20747   0.971   0.083  14.987  1.2586 -0.1905  1.4925
  170DOPC  C31520748   0.839  -0.038  14.853 -0.7596 -0.4009  0.4194
  170DOPC  H15X20749   0.753  -0.104  14.875 -1.7025 -0.5446 -3.0988
  170DOPC  H15Y20750   0.927  -0.097  14.819  1.3843  2.1138  1.2843
  170DOPC  C31620751   0.794   0.070  14.745  0.1357  0.1493 -0.6978
  170DOPC  H16X20752   0.721   0.146  14.781  1.7544  1.2133  0.4690
  170DOPC  H16Y20753   0.884   0.128  14.714  0.4477 -0.0003 -0.0801
  170DOPC  C31720754   0.734   0.015  14.617 -0.0821  0.3186 -0.2222
  170DOPC  H17X20755   0.822  -0.023  14.560  0.2578  2.6293 -1.3642
  170DOPC  H17Y20756   0.664  -0.069  14.635 -1.6480  1.6306 -0.0675
  170DOPC  C31820757   0.661   0.113  14.528  0.5665 -0.2035  0.1791
  170DOPC  H18X20758   0.727   0.181  14.470  1.3182 -0.9882  0.1012
  170DOPC  H18Y20759   0.586   0.063  14.463 -0.8959  1.2093  0.7110
  170DOPC  H18Z20760   0.602   0.178  14.597 -0.0459 -0.7041  0.1339
  171DOPC     N20761   5.520   3.487  12.664  0.0016 -0.4951  0.2395
  171DOPC   C1220762   5.492   3.585  12.777 -1.2675 -0.0168 -0.2916
  171DOPC  H12A20763   5.466   3.679  12.730  2.2168  0.8369 -0.7603
  171DOPC  H12B20764   5.585   3.609  12.826  0.5329  0.3478 -3.6081
  171DOPC   C1320765   5.533   3.351  12.722  0.0957  0.5839  0.2760
  171DOPC  H13A20766   5.597   3.342  12.809 -1.0443 -1.2618  0.9728
  171DOPC  H13B20767   5.441   3.307  12.756  0.7933  0.1988  1.7551
  171DOPC  H13C20768   5.577   3.278  12.656  2.4372  1.1211  1.1228
  171DOPC   C1420769   5.648   3.520  12.591 -0.2760 -0.4412 -0.1606
  171DOPC  H14A20770   5.672   3.445  12.516  0.8705 -0.1396 -0.1150
  171DOPC  H14B20771   5.644   3.621  12.553 -3.5089 -0.5757 -0.4578
  171DOPC  H14C20772   5.734   3.510  12.655 -0.4768  0.6946  0.3216
  171DOPC   C1520773   5.412   3.484  12.561  0.6543 -0.4870  0.5738
  171DOPC  H15A20774   5.436   3.410  12.486  0.3176 -1.3181  1.2586
  171DOPC  H15B20775   5.397   3.576  12.506  2.0861 -1.0059 -0.7444
  171DOPC  H15C20776   5.319   3.454  12.608  0.2877 -0.9217 -0.3984
  171DOPC   C1120777   5.396   3.546  12.891 -0.3042 -0.2970  0.2557
  171DOPC  H11A20778   5.441   3.473  12.961 -1.6344 -0.3784  1.0577
  171DOPC  H11B20779   5.376   3.639  12.948 -2.2987 -0.1314 -0.6063
  171DOPC     P20780   5.194   3.385  12.890  0.2757 -0.2317  0.3307
  171DOPC   O1320781   5.280   3.267  12.863 -0.3359 -0.2704  0.3240
  171DOPC   O1420782   5.052   3.378  12.843  0.0872 -0.4042  0.6205
  171DOPC   O1220783   5.271   3.509  12.837 -0.0812 -0.6353  0.2692
  171DOPC   O1120784   5.178   3.419  13.040  0.2691  0.2060 -0.0333
  171DOPC    C120785   5.080   3.505  13.098 -0.7804 -0.4865 -0.2654
  171DOPC    HA20786   4.983   3.451  13.103 -1.8513  1.2108 -1.8226
  171DOPC    HB20787   5.062   3.593  13.034 -0.2580  0.3268  0.6793
  171DOPC    C220788   5.111   3.548  13.239  0.0948 -0.5259 -0.0945
  171DOPC    HS20789   5.222   3.546  13.251  0.5638  0.6555 -3.2703
  171DOPC   O2120790   5.040   3.459  13.329  0.4307 -0.3982  0.2796
  171DOPC   C2120791   5.083   3.446  13.448 -0.1378 -0.2023  0.0224
  171DOPC   O2220792   5.190   3.482  13.484 -0.9772 -0.4517 -0.2301
  171DOPC   C2220793   4.974   3.362  13.521  0.4199  0.4195  0.2406
  171DOPC   H2R20794   5.040   3.276  13.545  0.2873 -0.2565 -1.6716
  171DOPC   H2S20795   4.897   3.332  13.448  0.1481  3.4303 -0.8732
  171DOPC    C320796   5.075   3.705  13.255 -0.2346  0.6395 -0.1031
  171DOPC    HX20797   4.965   3.713  13.237 -0.5127 -0.5313  0.9545
  171DOPC    HY20798   5.116   3.774  13.178 -1.9890  1.8953  0.0260
  171DOPC   O3120799   5.100   3.757  13.391  0.1007 -0.0877 -0.5426
  171DOPC   C3120800   5.233   3.797  13.416  0.4135 -0.1406  0.1120
  171DOPC   O3220801   5.316   3.804  13.336 -0.0138  0.7881  0.4633
  171DOPC   C3220802   5.247   3.798  13.572 -0.5790  0.4145  0.4776
  171DOPC   H2X20803   5.173   3.871  13.610  0.0499  0.9034  0.7726
  171DOPC   H2Y20804   5.223   3.698  13.615 -0.9742 -0.0026 -0.6651
  171DOPC   C2320805   4.916   3.427  13.651  0.0946  0.2866  0.7175
  171DOPC   H3R20806   4.842   3.362  13.702 -0.0265 -0.6512 -0.6211
  171DOPC   H3S20807   4.866   3.522  13.621  0.9720  0.0717 -1.6242
  171DOPC   C2420808   5.032   3.465  13.746  0.4522  0.0666 -0.3393
  171DOPC   H4R20809   5.081   3.558  13.711 -1.5091  0.6724 -1.5915
  171DOPC   H4S20810   5.105   3.381  13.741 -1.0204 -1.2114 -2.0376
  171DOPC   C2520811   4.982   3.476  13.894  0.2301  0.4896  0.1656
  171DOPC   H5R20812   4.926   3.387  13.930  1.6583 -0.1117  1.0005
  171DOPC   H5S20813   4.912   3.562  13.888  0.2515  0.3735 -2.6410
  171DOPC   C2620814   5.093   3.494  13.994 -0.6118  0.1908 -0.3389
  171DOPC   H6R20815   5.139   3.396  14.020 -0.2535  0.5262  0.3046
  171DOPC   H6S20816   5.037   3.530  14.083 -1.2782 -0.0178 -0.6663
  171DOPC   C2720817   5.206   3.592  13.954  0.8727 -0.4353 -0.0320
  171DOPC   H7R20818   5.166   3.681  13.902  0.8592  0.2390  1.0950
  171DOPC   H7S20819   5.282   3.549  13.886  2.4533  3.1721 -0.7534
  171DOPC   C2820820   5.274   3.639  14.078  0.2613 -0.7206  0.1697
  171DOPC   H8R20821   5.367   3.683  14.036 -0.1476  1.2991  1.2441
  171DOPC   H8S20822   5.295   3.554  14.145 -0.2122 -0.2678  0.9071
  171DOPC   C2920823   5.198   3.751  14.154  0.0215 -0.2315  0.2792
  171DOPC   H9R20824   5.160   3.834  14.094 -0.9928 -0.2268  0.9041
  171DOPC  C21020825   5.183   3.760  14.287  0.3694 -0.4419  0.4624
  171DOPC  H10R20826   5.126   3.841  14.336 -0.6122 -0.1875 -1.0442
  171DOPC  C21120827   5.249   3.677  14.397  0.0142  0.5307 -0.0925
  171DOPC  H11R20828   5.353   3.648  14.369 -0.6198 -1.0835 -0.9212
  171DOPC  H11S20829   5.187   3.588  14.420  1.0243  0.2190  1.6087
  171DOPC  C21220830   5.252   3.742  14.529 -0.2586  0.5306  0.2732
  171DOPC  H12R20831   5.312   3.835  14.534  2.2128 -0.9633  0.1863
  171DOPC  H12S20832   5.307   3.670  14.593 -1.5013  0.4525  1.2901
  171DOPC  C21320833   5.120   3.754  14.601 -0.0432  0.1167 -0.2402
  171DOPC  H13R20834   5.051   3.671  14.575 -0.3073  0.5752 -1.0662
  171DOPC  H13S20835   5.051   3.830  14.557 -0.9749 -0.6736 -0.1722
  171DOPC  C21420836   5.144   3.774  14.760  0.5978  0.7919  0.2207
  171DOPC  H14R20837   5.227   3.848  14.764  0.6331  0.7009  1.1850
  171DOPC  H14S20838   5.174   3.673  14.793 -0.2839  0.0963 -1.0376
  171DOPC  C21520839   5.014   3.795  14.839 -0.1226 -0.3484  0.1055
  171DOPC  H15R20840   4.940   3.725  14.794 -0.4816  0.8110 -1.1506
  171DOPC  H15S20841   4.970   3.894  14.819  2.8857  0.9990 -0.3446
  171DOPC  C21620842   5.019   3.753  14.986  0.7506 -0.2322  0.1802
  171DOPC  H16R20843   5.071   3.834  15.042 -0.0381  2.1854 -2.3628
  171DOPC  H16S20844   5.072   3.659  15.011  1.0650 -0.3602 -0.9166
  171DOPC  C21720845   4.874   3.742  15.054 -0.2670 -0.2061  0.5657
  171DOPC  H17R20846   4.821   3.663  14.997  0.0060  0.4400 -0.6200
  171DOPC  H17S20847   4.825   3.839  15.030  0.2913 -0.2705 -0.9791
  171DOPC  C21820848   4.889   3.709  15.201  0.2382 -0.0148  0.2548
  171DOPC  H18R20849   4.971   3.637  15.219  1.4068  1.0973 -0.4708
  171DOPC  H18S20850   4.798   3.659  15.241  1.1975 -2.0353 -0.0115
  171DOPC  H18T20851   4.912   3.801  15.260  1.2477 -1.1980  1.7923
  171DOPC   C3320852   5.387   3.850  13.625  0.2655  0.2196  0.4128
  171DOPC   H3X20853   5.398   3.950  13.576 -0.5981  0.4657  0.7015
  171DOPC   H3Y20854   5.470   3.780  13.600  0.6749  1.1560 -1.0042
  171DOPC   C3420855   5.394   3.870  13.779  0.2565 -0.1477  0.1463
  171DOPC   H4X20856   5.368   3.775  13.829 -1.8977  0.7041  0.7832
  171DOPC   H4Y20857   5.314   3.945  13.797  1.3473  1.1781 -0.3643
  171DOPC   C3520858   5.529   3.931  13.818 -0.0772 -0.5564 -0.3789
  171DOPC   H5X20859   5.541   4.026  13.762  0.4005  0.6311  1.6298
  171DOPC   H5Y20860   5.606   3.863  13.775  1.2858  0.1837  0.8247
  171DOPC   C3620861   5.556   3.955  13.966 -0.4001 -0.3736  0.1504
  171DOPC   H6X20862   5.482   4.028  14.005 -0.1992 -0.7570  1.3030
  171DOPC   H6Y20863   5.541   3.856  14.014  1.1965 -0.4787  0.4938
  171DOPC   C3720864   5.702   3.991  13.994  0.2761 -0.3110  0.2816
  171DOPC   H7X20865   5.781   3.920  13.959  1.7226  0.9105  0.9421
  171DOPC   H7Y20866   5.729   4.078  13.931  1.8905 -0.5055  0.6433
  171DOPC   C3820867   5.726   4.045  14.136 -0.8641 -0.1473  0.5764
  171DOPC   H8X20868   5.629   4.094  14.161 -1.3136  0.4145 -2.0093
  171DOPC   H8Y20869   5.809   4.119  14.133 -0.4990 -0.5528 -2.1476
  171DOPC   C3920870   5.770   3.932  14.229 -0.1466  0.0516 -0.2990
  171DOPC   H9X20871   5.863   3.886  14.192 -0.6502 -1.6214  0.4192
  171DOPC  C31020872   5.714   3.903  14.351  0.6719  0.2897 -0.3064
  171DOPC  H10X20873   5.763   3.819  14.402  2.8940  0.3447 -2.1662
  171DOPC  C31120874   5.599   3.967  14.418  0.2961 -1.0677 -0.3514
  171DOPC  H11X20875   5.504   3.918  14.386 -0.4716  0.8955 -1.2102
  171DOPC  H11Y20876   5.594   4.074  14.390  2.7021 -0.5749  0.8285
  171DOPC  C31220877   5.624   3.957  14.575  0.4315 -0.4569  0.2224
  171DOPC  H12X20878   5.553   4.022  14.629 -1.7874  0.0698 -3.0183
  171DOPC  H12Y20879   5.727   3.990  14.602  1.2728 -1.4644 -1.5400
  171DOPC  C31320880   5.605   3.815  14.641 -0.1064 -0.3510  0.3140
  171DOPC  H13X20881   5.499   3.784  14.625  0.6580 -1.5779 -3.4299
  171DOPC  H13Y20882   5.659   3.749  14.571  2.3984  1.0118  0.8391
  171DOPC  C31420883   5.657   3.822  14.786 -0.6549  0.7524  0.3341
  171DOPC  H14X20884   5.764   3.853  14.782 -0.0599 -1.0446  1.2403
  171DOPC  H14Y20885   5.593   3.894  14.841  1.0159  3.0760 -0.6369
  171DOPC  C31520886   5.654   3.682  14.861  0.4196 -0.1538  0.7607
  171DOPC  H15X20887   5.708   3.606  14.802 -1.0985 -0.0537 -0.8412
  171DOPC  H15Y20888   5.545   3.658  14.853  0.8800 -2.2538  0.0880
  171DOPC  C31620889   5.692   3.694  15.006  0.2349  0.7363  0.5651
  171DOPC  H16X20890   5.799   3.721  15.005  0.8777 -1.6347 -0.1396
  171DOPC  H16Y20891   5.637   3.785  15.038 -0.2788  1.5636 -2.4047
  171DOPC  C31720892   5.666   3.579  15.101  0.4437 -0.0075  0.1022
  171DOPC  H17X20893   5.722   3.487  15.073  2.0382  1.4582 -1.8276
  171DOPC  H17Y20894   5.697   3.602  15.206 -2.6201  1.4512  0.8084
  171DOPC  C31820895   5.518   3.539  15.116 -0.0234 -0.3068  0.1902
  171DOPC  H18X20896   5.473   3.492  15.027  0.8024 -1.6247  0.4412
  171DOPC  H18Y20897   5.500   3.447  15.176  0.3690  0.0048  0.8052
  171DOPC  H18Z20898   5.459   3.620  15.165 -0.1981 -0.0530 -0.4317
  172DOPC     N20899   5.417   4.269  12.393 -0.5360  0.7809  0.4180
  172DOPC   C1220900   5.438   4.243  12.537 -0.2988 -0.1426 -1.0603
  172DOPC  H12A20901   5.541   4.266  12.561 -0.5158 -0.1619 -0.0427
  172DOPC  H12B20902   5.424   4.137  12.556 -1.3983  0.0966 -0.4240
  172DOPC   C1320903   5.289   4.224  12.345  0.2706 -0.2640  0.2922
  172DOPC  H13A20904   5.273   4.119  12.361 -0.6817  0.1491  2.5420
  172DOPC  H13B20905   5.217   4.274  12.408 -0.7497  0.2616 -1.2324
  172DOPC  H13C20906   5.278   4.255  12.242  1.0147  2.1662  0.8631
  172DOPC   C1420907   5.521   4.194  12.321  0.7454 -0.4877  0.3247
  172DOPC  H14A20908   5.620   4.210  12.362  0.6579  0.2781  0.2487
  172DOPC  H14B20909   5.496   4.089  12.310  1.7506 -0.8189  1.0207
  172DOPC  H14C20910   5.523   4.228  12.219 -0.7170  0.0239  0.4523
  172DOPC   C1520911   5.437   4.413  12.357 -0.1728 -0.6734 -0.8587
  172DOPC  H15A20912   5.540   4.431  12.382 -0.5766  1.5056 -0.5591
  172DOPC  H15B20913   5.388   4.494  12.408 -0.8487 -1.2707 -0.5379
  172DOPC  H15C20914   5.431   4.434  12.251  0.3005  0.2087 -0.7143
  172DOPC   C1120915   5.343   4.313  12.644  0.4173 -0.0463  0.7604
  172DOPC  H11A20916   5.380   4.301  12.748  0.0560 -4.2142  0.5946
  172DOPC  H11B20917   5.351   4.416  12.603  2.1385 -0.7057 -0.7216
  172DOPC     P20918   5.169   4.126  12.664 -0.1196 -0.4695 -0.0981
  172DOPC   O1320919   5.291   4.046  12.684 -0.4147  0.1703  0.2847
  172DOPC   O1420920   5.064   4.076  12.573 -0.2626  0.3999  0.4349
  172DOPC   O1220921   5.208   4.274  12.625  0.3447  0.2210 -0.4212
  172DOPC   O1120922   5.108   4.144  12.804  0.3670 -0.3515  0.3637
  172DOPC    C120923   5.040   4.265  12.836 -0.5549  0.1747  0.3163
  172DOPC    HA20924   4.943   4.235  12.883  0.3482 -4.3324 -0.2352
  172DOPC    HB20925   5.028   4.338  12.753 -0.4190  0.0910  0.2231
  172DOPC    C220926   5.115   4.343  12.941 -0.5927 -0.1978 -0.5114
  172DOPC    HS20927   5.206   4.386  12.894  0.7992  1.2971  3.1686
  172DOPC   O2120928   5.144   4.257  13.054  0.1276 -0.1129 -0.3157
  172DOPC   C2120929   5.266   4.201  13.050 -0.5349  0.3217  0.3734
  172DOPC   O2220930   5.353   4.221  12.968  0.1227  0.7470  0.1844
  172DOPC   C2220931   5.267   4.105  13.165  0.0076  0.3542 -0.1356
  172DOPC   H2R20932   5.353   4.037  13.144  1.0286  1.7579 -0.6470
  172DOPC   H2S20933   5.178   4.038  13.171  0.6819 -0.4339  2.4831
  172DOPC    C320934   5.030   4.472  12.982  0.1383  0.2766 -0.3291
  172DOPC    HX20935   4.936   4.422  13.013 -0.6183  0.9938 -1.4344
  172DOPC    HY20936   5.018   4.541  12.896 -1.0269 -0.2599 -0.6103
  172DOPC   O3120937   5.083   4.542  13.102  0.6750  0.0492 -0.3294
  172DOPC   C3120938   5.207   4.587  13.091  0.1022  0.1644  1.1627
  172DOPC   O3220939   5.280   4.585  12.991  0.4207 -0.2553  0.0057
  172DOPC   C3220940   5.250   4.654  13.225  0.2962 -0.5073  0.1150
  172DOPC   H2X20941   5.351   4.610  13.240  0.5248 -0.2764 -0.6783
  172DOPC   H2Y20942   5.255   4.764  13.211  1.6730 -0.6281 -0.5018
  172DOPC   C2320943   5.274   4.172  13.299  0.3803 -0.3069 -0.9179
  172DOPC   H3R20944   5.307   4.278  13.293 -1.9408  0.6153  0.9423
  172DOPC   H3S20945   5.351   4.118  13.359 -0.8352 -2.0340 -0.8371
  172DOPC   C2420946   5.141   4.186  13.366  1.0759  0.1144 -0.1356
  172DOPC   H4R20947   5.099   4.092  13.408  0.8890  0.5141  0.5922
  172DOPC   H4S20948   5.061   4.226  13.300 -1.9687 -3.1855  1.2010
  172DOPC   C2520949   5.141   4.273  13.497  0.4353  0.4501 -0.1751
  172DOPC   H5R20950   5.037   4.300  13.524 -0.0641 -0.4755 -1.0837
  172DOPC   H5S20951   5.220   4.350  13.483  0.2334  0.9026  1.0729
  172DOPC   C2620952   5.196   4.191  13.622  0.3600  0.3076 -0.2063
  172DOPC   H6R20953   5.301   4.167  13.598  0.8300  0.0586  1.9223
  172DOPC   H6S20954   5.136   4.100  13.645 -0.8476  1.1584  0.1277
  172DOPC   C2720955   5.199   4.280  13.750  0.2253 -0.4951 -0.5712
  172DOPC   H7R20956   5.096   4.311  13.777  0.6114 -1.4410  2.3868
  172DOPC   H7S20957   5.253   4.375  13.728 -2.5664  1.4981  0.6998
  172DOPC   C2820958   5.265   4.220  13.874 -0.6649 -0.4564  0.4735
  172DOPC   H8R20959   5.366   4.178  13.852 -0.6483  0.5564 -1.6684
  172DOPC   H8S20960   5.212   4.126  13.896  0.4759 -1.1254  0.4627
  172DOPC   C2920961   5.260   4.306  13.996 -0.4109  0.1939 -0.0363
  172DOPC   H9R20962   5.235   4.413  13.982 -1.1331  0.0124 -0.1716
  172DOPC  C21020963   5.279   4.271  14.127  0.6259 -0.4257  0.1637
  172DOPC  H10R20964   5.294   4.354  14.197  0.7265  1.0665 -1.5511
  172DOPC  C21120965   5.304   4.130  14.186 -0.4075 -0.2930  0.3576
  172DOPC  H11R20966   5.411   4.103  14.200 -0.4373 -0.6593 -0.0909
  172DOPC  H11S20967   5.253   4.054  14.122 -2.6226  1.2473  0.2051
  172DOPC  C21220968   5.238   4.117  14.327  0.5022  0.1533  0.7853
  172DOPC  H12R20969   5.233   4.011  14.361 -1.1975  0.1039  0.4683
  172DOPC  H12S20970   5.132   4.140  14.304  0.7194 -0.2490 -0.7716
  172DOPC  C21320971   5.303   4.212  14.435  0.2191 -0.0704 -0.1277
  172DOPC  H13R20972   5.266   4.315  14.416 -0.2923 -0.3666 -0.7802
  172DOPC  H13S20973   5.414   4.206  14.427  0.4721  2.6851  0.3951
  172DOPC  C21420974   5.264   4.175  14.572  0.2209  0.3358 -0.2756
  172DOPC  H14R20975   5.274   4.066  14.593  0.2488  0.4553  0.3252
  172DOPC  H14S20976   5.155   4.191  14.587  0.5980  1.2615  1.6940
  172DOPC  C21520977   5.341   4.247  14.682 -0.1964 -0.4839  0.3947
  172DOPC  H15R20978   5.321   4.356  14.687  2.3916  0.0155  1.3087
  172DOPC  H15S20979   5.451   4.233  14.673 -0.5290 -2.9949 -0.9150
  172DOPC  C21620980   5.299   4.187  14.812  0.4258 -0.2461  0.1568
  172DOPC  H16R20981   5.323   4.079  14.815  0.5366 -0.2235  0.0934
  172DOPC  H16S20982   5.192   4.192  14.840  0.6993  1.0417  1.0547
  172DOPC  C21720983   5.386   4.238  14.926 -0.3471  0.0767  0.0862
  172DOPC  H17R20984   5.375   4.349  14.925  1.7911  0.3247 -0.6188
  172DOPC  H17S20985   5.490   4.210  14.899 -0.4357 -0.7325  0.5630
  172DOPC  C21820986   5.370   4.175  15.068 -0.3962  0.4941 -0.4001
  172DOPC  H18R20987   5.261   4.172  15.090 -0.1661  2.0485  1.1863
  172DOPC  H18S20988   5.417   4.248  15.137  3.1307  0.5184 -2.5706
  172DOPC  H18T20989   5.419   4.076  15.082 -0.5074  0.5603  0.5538
  172DOPC   C3320990   5.162   4.615  13.344 -0.3471 -0.1975  0.2889
  172DOPC   H3X20991   5.162   4.504  13.348  0.2824 -0.1997  0.3045
  172DOPC   H3Y20992   5.060   4.656  13.331 -1.0378 -1.8795  0.0928
  172DOPC   C3420993   5.222   4.671  13.475 -0.1896 -0.1248 -0.8584
  172DOPC   H4X20994   5.251   4.777  13.461 -1.6468  0.6824  1.5622
  172DOPC   H4Y20995   5.318   4.619  13.495 -1.4830 -2.8105 -1.2782
  172DOPC   C3520996   5.124   4.672  13.597 -0.7565  0.2168 -0.5756
  172DOPC   H5X20997   5.107   4.574  13.646 -1.5575  0.8355  0.4110
  172DOPC   H5Y20998   5.021   4.707  13.573 -0.5998  2.0594  1.2442
  172DOPC   C3620999   5.154   4.778  13.708  0.0805  0.5956  0.3206
  172DOPC   H6X21000   5.169   4.878  13.661 -0.2699  0.2587 -0.5107
  172DOPC   H6Y21001   5.072   4.799  13.780  1.0046  0.9031  1.3307
  172DOPC   C3721002   5.277   4.754  13.794 -0.4184  0.2562 -0.2768
  172DOPC   H7X21003   5.277   4.644  13.814 -0.3793  0.3778  0.4091
  172DOPC   H7Y21004   5.368   4.767  13.732 -0.1615 -0.1537  0.0083
  172DOPC   C3821005   5.283   4.831  13.925 -0.5923  0.5988  0.1928
  172DOPC   H8X21006   5.185   4.800  13.967 -0.4228 -0.3934 -0.1139
  172DOPC   H8Y21007   5.279   4.942  13.925  0.3439  0.6866  2.1829
  172DOPC   C3921008   5.411   4.794  13.995 -0.9641  0.1342  0.1151
  172DOPC   H9X21009   5.491   4.826  13.926 -2.1306 -0.5783 -1.6310
  172DOPC  C31021010   5.449   4.725  14.102  0.0478 -0.5148  0.5746
  172DOPC  H10X21011   5.556   4.709  14.120 -0.2655 -2.0331  1.2341
  172DOPC  C31121012   5.353   4.667  14.198  0.5755 -0.3780  0.7467
  172DOPC  H11X21013   5.398   4.581  14.251  0.5332 -1.1515 -0.4364
  172DOPC  H11Y21014   5.265   4.644  14.135  1.3987  0.0336 -0.6189
  172DOPC  C31221015   5.295   4.770  14.296 -0.4532  0.5112 -0.0201
  172DOPC  H12X21016   5.196   4.725  14.320 -0.1081 -0.4843 -0.4044
  172DOPC  H12Y21017   5.283   4.872  14.254 -0.9358 -0.7066 -3.1785
  172DOPC  C31321018   5.374   4.782  14.427 -0.5110 -0.0439  0.4247
  172DOPC  H13X21019   5.378   4.683  14.476 -1.4906  0.2968  1.2266
  172DOPC  H13Y21020   5.481   4.812  14.421 -0.9698  2.1593  1.7881
  172DOPC  C31421021   5.318   4.882  14.524  0.9834 -0.3005  0.0662
  172DOPC  H14X21022   5.327   4.981  14.475  1.4259 -0.3421  0.0601
  172DOPC  H14Y21023   5.211   4.850  14.520  0.3505  1.4770  1.3210
  172DOPC  C31521024   5.375   4.879  14.665  0.0694  0.1469 -0.2245
  172DOPC  H15X21025   5.473   4.929  14.649  0.6108 -1.0869 -0.8563
  172DOPC  H15Y21026   5.373   4.778  14.711 -0.1884  0.8272  1.3381
  172DOPC  C31621027   5.279   4.961  14.766 -0.1171  0.7946  0.4330
  172DOPC  H16X21028   5.309   5.067  14.748  0.2286  0.5998 -0.1632
  172DOPC  H16Y21029   5.174   4.959  14.730  0.2436 -0.7185 -0.6373
  172DOPC  C31721030   5.294   4.944  14.916  0.4274 -0.7694  0.3454
  172DOPC  H17X21031   5.248   5.037  14.956  0.5985 -0.1847 -0.7688
  172DOPC  H17Y21032   5.239   4.848  14.927  3.2810 -2.5389  0.1157
  172DOPC  C31821033   5.437   4.925  14.968  0.7232  0.2876 -0.3993
  172DOPC  H18X21034   5.426   4.876  15.067 -1.9961  4.2150  1.5432
  172DOPC  H18Y21035   5.489   4.855  14.899 -0.6785  1.3710 -2.6781
  172DOPC  H18Z21036   5.494   5.021  14.972  0.3888  0.5266 -1.1395
  173DOPC     N21037   2.617   3.755  12.523  0.0107 -0.4589 -0.2579
  173DOPC   C1221038   2.538   3.877  12.495  0.5082  0.0707 -0.0361
  173DOPC  H12A21039   2.438   3.873  12.536  0.7601  0.0847  0.5829
  173DOPC  H12B21040   2.522   3.890  12.389  1.9656  2.3352 -0.0630
  173DOPC   C1321041   2.609   3.734  12.673 -0.0297  0.0414  1.0916
  173DOPC  H13A21042   2.506   3.737  12.704 -0.7460 -2.5206 -0.7606
  173DOPC  H13B21043   2.648   3.641  12.711 -3.0052 -1.2589  1.2656
  173DOPC  H13C21044   2.659   3.821  12.713  0.7033  0.4075 -0.5347
  173DOPC   C1421045   2.759   3.764  12.473 -0.0457 -0.1007 -0.6099
  173DOPC  H14A21046   2.818   3.680  12.507 -1.1236 -0.2220  1.1010
  173DOPC  H14B21047   2.760   3.764  12.365  1.6806 -1.5418 -0.6403
  173DOPC  H14C21048   2.812   3.855  12.496  2.2492 -0.7583 -2.8250
  173DOPC   C1521049   2.559   3.642  12.460  0.0036  0.1641  0.0846
  173DOPC  H15A21050   2.467   3.619  12.511  0.5252  1.9188  1.8930
  173DOPC  H15B21051   2.621   3.554  12.453 -0.3346 -0.1767  1.1621
  173DOPC  H15C21052   2.519   3.666  12.362 -0.6285 -2.0793 -0.2810
  173DOPC   C1121053   2.590   4.024  12.543 -0.3267  0.9025 -0.2101
  173DOPC  H11A21054   2.683   4.031  12.483  0.6179  0.9050  1.2318
  173DOPC  H11B21055   2.517   4.097  12.501 -0.0605  2.0705  1.2685
  173DOPC     P21056   2.526   4.106  12.776  0.3926 -0.1416 -0.3006
  173DOPC   O1321057   2.420   4.010  12.811  0.3132  0.6979  0.7342
  173DOPC   O1421058   2.486   4.235  12.715  0.2732  0.8131 -0.0239
  173DOPC   O1221059   2.625   4.038  12.679  0.1071  0.4793  0.5191
  173DOPC   O1121060   2.625   4.148  12.897  0.1705  0.4068 -0.0594
  173DOPC    C121061   2.679   4.038  12.969  0.6109 -0.1461 -0.4093
  173DOPC    HA21062   2.764   3.996  12.912 -0.7725 -1.8339 -1.3321
  173DOPC    HB21063   2.606   3.958  12.995  1.1784 -0.2108  1.0890
  173DOPC    C221064   2.734   4.092  13.103  0.4842  0.4128 -0.8399
  173DOPC    HS21065   2.718   4.022  13.187  0.8613  1.0170 -0.2600
  173DOPC   O2121066   2.683   4.223  13.131  0.2646 -0.1284  0.0460
  173DOPC   C2121067   2.568   4.218  13.197  0.7285  0.2311 -0.0389
  173DOPC   O2221068   2.500   4.116  13.217 -0.4370 -0.2252 -0.2839
  173DOPC   C2221069   2.526   4.363  13.236  0.1768 -0.0582 -0.2054
  173DOPC   H2R21070   2.416   4.357  13.221  0.2952 -2.4356 -0.4607
  173DOPC   H2S21071   2.560   4.437  13.160 -2.0131  0.0728 -1.1300
  173DOPC    C321072   2.893   4.100  13.096  1.0987 -0.3023  0.3073
  173DOPC    HX21073   2.922   4.115  12.990 -2.2605  0.0639 -0.6923
  173DOPC    HY21074   2.928   4.001  13.131 -0.4359 -1.3167 -0.8800
  173DOPC   O3121075   2.941   4.219  13.165  0.3342  0.0839 -0.4259
  173DOPC   C3121076   2.958   4.203  13.297 -0.1301  0.2931  0.2755
  173DOPC   O3221077   2.945   4.097  13.365 -0.0571 -0.5005  0.1085
  173DOPC   C3221078   2.991   4.336  13.358  0.2745 -0.0969 -0.1562
  173DOPC   H2X21079   3.098   4.362  13.343 -0.0429  1.2977 -0.0726
  173DOPC   H2Y21080   2.928   4.422  13.326 -0.4102 -0.6519 -0.3228
  173DOPC   C2321081   2.563   4.411  13.384  0.1938  0.1444 -0.4376
  173DOPC   H3R21082   2.566   4.521  13.396 -2.3373  0.4103 -1.6298
  173DOPC   H3S21083   2.666   4.379  13.410 -0.5481 -1.2809  0.9172
  173DOPC   C2421084   2.459   4.367  13.477  0.0740 -0.2424  0.4925
  173DOPC   H4R21085   2.449   4.256  13.477 -0.3448 -0.2168  1.8986
  173DOPC   H4S21086   2.353   4.400  13.477  0.1839  0.1314  1.2485
  173DOPC   C2521087   2.498   4.400  13.626  0.4818 -0.5895 -0.8015
  173DOPC   H5R21088   2.508   4.510  13.639  0.1703 -0.6403 -0.0749
  173DOPC   H5S21089   2.601   4.372  13.655  1.0247  0.6673 -1.4243
  173DOPC   C2621090   2.382   4.357  13.717 -0.3495  0.0970  0.0482
  173DOPC   H6R21091   2.365   4.247  13.713  1.4891 -0.2310  0.5291
  173DOPC   H6S21092   2.290   4.410  13.685 -1.4755  0.6168  3.6733
  173DOPC   C2721093   2.397   4.404  13.862 -0.4079  0.3206 -0.0117
  173DOPC   H7R21094   2.394   4.514  13.852  1.9690  0.4807  0.4286
  173DOPC   H7S21095   2.498   4.376  13.899  0.6658  1.0313 -2.2653
  173DOPC   C2821096   2.283   4.364  13.964 -0.7461  0.6162 -0.6486
  173DOPC   H8R21097   2.184   4.392  13.923  0.7218  2.1678 -3.4487
  173DOPC   H8S21098   2.293   4.421  14.058 -1.3843  0.3118 -0.3909
  173DOPC   C2921099   2.280   4.215  13.993  0.3832  0.5694 -0.6008
  173DOPC   H9R21100   2.286   4.158  13.900  0.7543  1.3374 -1.0603
  173DOPC  C21021101   2.289   4.150  14.108  0.1955  0.5322  0.3457
  173DOPC  H10R21102   2.287   4.040  14.115  1.2757  0.5824  1.7597
  173DOPC  C21121103   2.281   4.202  14.251  0.2789 -0.2391 -0.6567
  173DOPC  H11R21104   2.276   4.312  14.256 -0.4144 -0.3298  2.0030
  173DOPC  H11S21105   2.370   4.176  14.312  0.2144 -0.7717 -0.7779
  173DOPC  C21221106   2.138   4.159  14.302 -0.4976  0.1612  0.0489
  173DOPC  H12R21107   2.103   4.056  14.284 -1.1371  0.3015  0.4712
  173DOPC  H12S21108   2.058   4.231  14.276  0.9639  2.1357  0.6634
  173DOPC  C21321109   2.138   4.152  14.458  0.4285 -0.3634  0.6542
  173DOPC  H13R21110   2.142   4.257  14.493 -0.5904 -0.2835  0.5700
  173DOPC  H13S21111   2.231   4.100  14.491  1.0391  0.4941  0.3189
  173DOPC  C21421112   2.015   4.082  14.511  0.3924  0.6403  0.7903
  173DOPC  H14R21113   2.017   3.980  14.468 -0.4550  0.2096  1.7414
  173DOPC  H14S21114   1.924   4.137  14.480 -0.5013  0.0552  2.2932
  173DOPC  C21521115   2.027   4.062  14.662  0.2856 -0.2405  0.1027
  173DOPC  H15R21116   2.052   4.158  14.712 -3.3464  0.3394  1.0592
  173DOPC  H15S21117   2.119   4.001  14.678  0.9688  0.9796  0.9394
  173DOPC  C21621118   1.910   3.998  14.736  0.1852  0.0162 -0.3227
  173DOPC  H16R21119   1.911   3.892  14.703  1.4655 -0.6099  1.5711
  173DOPC  H16S21120   1.810   4.032  14.704  0.0903 -1.4843 -1.8150
  173DOPC  C21721121   1.914   4.014  14.885  0.0132  0.4564  0.2044
  173DOPC  H17R21122   1.909   4.119  14.920  2.4272  0.2424  1.3953
  173DOPC  H17S21123   2.011   3.983  14.929  0.8636  0.8197 -1.3644
  173DOPC  C21821124   1.815   3.928  14.960  0.7991  0.1016 -0.2143
  173DOPC  H18R21125   1.832   3.819  14.944  2.4271  0.2494  0.3919
  173DOPC  H18S21126   1.712   3.960  14.933  0.2270  0.3139  2.0136
  173DOPC  H18T21127   1.819   3.961  15.066 -3.5557 -1.4364  0.6663
  173DOPC   C3321128   2.960   4.336  13.517  0.3880  1.0083  0.0584
  173DOPC   H3X21129   2.993   4.237  13.554 -3.4207 -1.0725 -1.6132
  173DOPC   H3Y21130   2.851   4.322  13.532  0.8615 -1.5636  1.6247
  173DOPC   C3421131   3.021   4.452  13.604  0.3107  0.3607 -0.3135
  173DOPC   H4X21132   2.947   4.535  13.602 -1.8118 -1.4240  0.3414
  173DOPC   H4Y21133   3.116   4.491  13.561  0.6070  0.8086  0.7127
  173DOPC   C3521134   3.031   4.403  13.753  0.4846 -0.4710  0.7262
  173DOPC   H5X21135   3.097   4.314  13.758  0.2647 -0.7185 -0.4518
  173DOPC   H5Y21136   2.928   4.377  13.785 -0.2955  0.4910 -0.8569
  173DOPC   C3621137   3.086   4.515  13.840 -0.4817 -0.3650  0.4885
  173DOPC   H6X21138   3.170   4.556  13.779 -0.8037 -0.8990 -0.3345
  173DOPC   H6Y21139   3.004   4.588  13.860 -0.2597 -0.0667  0.3277
  173DOPC   C3721140   3.144   4.465  13.976  0.1722 -0.3050 -0.3935
  173DOPC   H7X21141   3.207   4.376  13.955  0.8139 -0.4380  1.8485
  173DOPC   H7Y21142   3.202   4.546  14.026  0.3086 -0.5195 -0.2064
  173DOPC   C3821143   3.047   4.408  14.076  0.0840  0.4495 -0.1335
  173DOPC   H8X21144   3.104   4.340  14.144 -0.6965  0.1929  0.2815
  173DOPC   H8Y21145   2.975   4.338  14.028 -1.3130  1.3832  0.5464
  173DOPC   C3921146   2.972   4.525  14.147  0.1058  0.2624 -0.1985
  173DOPC   H9X21147   2.913   4.587  14.078 -0.0421 -0.6667 -0.9339
  173DOPC  C31021148   2.999   4.566  14.270  0.4803  0.0138 -0.2652
  173DOPC  H10X21149   2.930   4.643  14.308 -0.2184 -0.9767  0.5263
  173DOPC  C31121150   3.076   4.503  14.390  0.1983 -0.6675 -0.0544
  173DOPC  H11X21151   3.174   4.554  14.385  0.5350 -0.9990  2.1570
  173DOPC  H11Y21152   3.095   4.396  14.364 -0.7969 -1.1559  1.1281
  173DOPC  C31221153   3.007   4.500  14.525  0.3699 -0.8865 -0.5566
  173DOPC  H12X21154   2.911   4.443  14.523  0.7763 -1.6078 -0.0251
  173DOPC  H12Y21155   2.983   4.606  14.549  4.1292  0.2484 -1.2631
  173DOPC  C31321156   3.095   4.438  14.630  1.0418  0.1771 -0.3026
  173DOPC  H13X21157   3.128   4.334  14.611  2.1587  0.2307  1.1908
  173DOPC  H13Y21158   3.191   4.492  14.643  0.1852  2.7835 -3.3443
  173DOPC  C31421159   3.038   4.441  14.775  0.5637  0.0773 -0.2876
  173DOPC  H14X21160   3.043   4.546  14.813 -1.2919 -0.4982  1.7699
  173DOPC  H14Y21161   2.932   4.410  14.770  0.7414 -0.3415 -2.5720
  173DOPC  C31521162   3.101   4.333  14.865  0.1135  0.8634  0.0997
  173DOPC  H15X21163   3.211   4.350  14.859  0.2376  0.0301 -0.1099
  173DOPC  H15Y21164   3.074   4.228  14.845 -0.8981  0.6134  2.4132
  173DOPC  C31621165   3.063   4.339  15.011 -0.3379  0.0310  0.3587
  173DOPC  H16X21166   3.074   4.444  15.047 -0.0175  0.6559 -1.4750
  173DOPC  H16Y21167   2.960   4.308  15.040  0.6056 -2.2856  1.4993
  173DOPC  C31721168   3.144   4.250  15.105 -0.0364 -0.6203  0.8385
  173DOPC  H17X21169   3.122   4.145  15.076 -2.8814  0.3735 -0.9256
  173DOPC  H17Y21170   3.253   4.266  15.088 -0.1818 -1.2954 -0.9044
  173DOPC  C31821171   3.125   4.281  15.253  0.7561  0.3234  0.2579
  173DOPC  H18X21172   3.034   4.227  15.288 -0.1539 -0.0519 -2.4286
  173DOPC  H18Y21173   3.210   4.253  15.318  1.1500 -1.5160 -0.9699
  173DOPC  H18Z21174   3.099   4.389  15.261 -1.1988 -0.1023  0.1213
  174DOPC     N21175   6.016   4.624  12.834  0.3133  0.0645  0.0527
  174DOPC   C1221176   5.988   4.565  12.973  0.2788  0.3061 -0.0622
  174DOPC  H12A21177   5.885   4.589  12.993  0.0599  0.4980 -1.2913
  174DOPC  H12B21178   6.031   4.620  13.055 -0.0537 -0.7227  0.8190
  174DOPC   C1321179   6.000   4.774  12.842 -0.1347  0.3726 -0.0639
  174DOPC  H13A21180   5.900   4.810  12.861  0.1014  0.3764  1.2470
  174DOPC  H13B21181   6.060   4.812  12.923  0.4323 -0.3698 -0.1274
  174DOPC  H13C21182   6.020   4.818  12.745  1.9015 -0.8274 -0.2294
  174DOPC   C1421183   5.917   4.577  12.733  0.3575 -0.0029 -0.2756
  174DOPC  H14A21184   5.918   4.469  12.730 -0.8540 -0.0159 -1.1648
  174DOPC  H14B21185   5.816   4.610  12.754  0.1854  0.5623 -1.8282
  174DOPC  H14C21186   5.933   4.600  12.628 -1.6772 -0.1628 -0.6554
  174DOPC   C1521187   6.149   4.585  12.783 -0.1128 -0.8109 -0.4519
  174DOPC  H15A21188   6.168   4.479  12.791 -2.0810 -1.0910  1.3319
  174DOPC  H15B21189   6.222   4.635  12.844  0.6807 -0.8355 -1.3576
  174DOPC  H15C21190   6.169   4.612  12.681  0.4604  1.5828  0.2363
  174DOPC   C1121191   6.018   4.418  12.986 -0.8911 -0.0402 -0.1515
  174DOPC  H11A21192   6.129   4.420  12.985 -0.7912 -1.5452 -2.7561
  174DOPC  H11B21193   5.984   4.379  13.084 -0.0071 -1.2282 -0.2942
  174DOPC     P21194   6.049   4.217  12.817 -0.0535 -0.1502  0.1275
  174DOPC   O1321195   6.182   4.269  12.779  0.3910  0.3186 -0.3911
  174DOPC   O1421196   5.970   4.153  12.712 -0.2083 -0.4015  0.1376
  174DOPC   O1221197   5.962   4.331  12.888 -0.2583 -0.0754  0.1308
  174DOPC   O1121198   6.075   4.111  12.929  0.1682 -0.0366 -0.3842
  174DOPC    C121199   6.165   4.006  12.918  0.6166  0.1431 -0.5636
  174DOPC    HA21200   6.253   4.018  12.985  0.3641 -0.8953 -0.0334
  174DOPC    HB21201   6.206   3.996  12.815  0.4522  1.2292 -0.7531
  174DOPC    C221202   6.096   3.877  12.962 -0.4983 -0.1605 -0.6808
  174DOPC    HS21203   6.010   3.861  12.893 -1.0349 -0.9294  0.1424
  174DOPC   O2121204   6.030   3.906  13.094 -0.2829 -0.2145 -0.1407
  174DOPC   C2121205   5.962   3.814  13.150  0.4794 -0.3027 -0.0206
  174DOPC   O2221206   5.925   3.712  13.102  0.5069  0.0105  0.2500
  174DOPC   C2221207   5.911   3.861  13.291  0.3777  0.4555 -0.3016
  174DOPC   H2R21208   5.827   3.794  13.323  0.1534  1.2243  0.7886
  174DOPC   H2S21209   5.875   3.965  13.277  2.5874  1.3254  0.1292
  174DOPC    C321210   6.193   3.763  12.962 -0.4082 -0.2353 -0.6221
  174DOPC    HX21211   6.229   3.743  12.859  1.4555 -2.5690  0.3785
  174DOPC    HY21212   6.145   3.667  12.994 -1.5565  0.2443 -0.8556
  174DOPC   O3121213   6.306   3.798  13.040 -1.0344  0.3273  0.5098
  174DOPC   C3121214   6.325   3.754  13.160  0.7354 -0.5302 -0.1933
  174DOPC   O3221215   6.242   3.693  13.221  0.6201  0.0822  0.1040
  174DOPC   C3221216   6.453   3.816  13.207  0.0633  0.1937 -0.6916
  174DOPC   H2X21217   6.532   3.794  13.132 -1.4946  0.4928 -2.4921
  174DOPC   H2Y21218   6.442   3.926  13.213 -0.5375  0.2282 -1.9279
  174DOPC   C2321219   6.022   3.874  13.405  0.1652  1.0543  0.4131
  174DOPC   H3R21220   6.097   3.950  13.374  0.4098  0.4409 -0.5519
  174DOPC   H3S21221   6.082   3.782  13.419  0.0568  0.6114 -1.7360
  174DOPC   C2421222   5.964   3.909  13.535 -0.2049  0.0748 -0.6696
  174DOPC   H4R21223   5.897   3.996  13.520  1.0169  1.3170  0.7313
  174DOPC   H4S21224   6.033   3.963  13.603 -0.2347 -0.9495  0.2082
  174DOPC   C2521225   5.891   3.791  13.603 -0.2933 -0.3205  0.1366
  174DOPC   H5R21226   5.842   3.721  13.533 -0.0790  0.1172 -0.4602
  174DOPC   H5S21227   5.818   3.834  13.675 -1.5436 -3.0634  0.6206
  174DOPC   C2621228   5.987   3.701  13.693  0.2387 -0.4016  0.0059
  174DOPC   H6R21229   6.078   3.670  13.638  0.1418  0.4263 -0.6362
  174DOPC   H6S21230   5.936   3.608  13.728 -0.7511  0.0819 -0.1116
  174DOPC   C2721231   6.035   3.761  13.828  0.0236  0.5736 -0.1203
  174DOPC   H7R21232   5.944   3.785  13.887 -0.1239  0.7080 -0.3993
  174DOPC   H7S21233   6.093   3.855  13.814 -1.9877  1.5854 -2.3646
  174DOPC   C2821234   6.132   3.663  13.907  0.3059 -1.0707  0.6184
  174DOPC   H8R21235   6.181   3.719  13.990  0.5755 -0.2471 -0.0813
  174DOPC   H8S21236   6.214   3.632  13.838 -0.8508  0.5404 -1.6183
  174DOPC   C2921237   6.052   3.545  13.962  0.1741 -0.6063  0.2948
  174DOPC   H9R21238   5.979   3.506  13.890 -0.2918 -0.3525  0.6246
  174DOPC  C21021239   6.085   3.470  14.067  0.3284  0.6578  0.8588
  174DOPC  H10R21240   6.011   3.395  14.100 -2.2469  1.2699 -2.8527
  174DOPC  C21121241   6.218   3.468  14.140  0.7528  0.6391 -0.7397
  174DOPC  H11R21242   6.230   3.548  14.215 -2.1945  0.8882 -0.3876
  174DOPC  H11S21243   6.299   3.490  14.068 -0.3718  1.1922 -1.8914
  174DOPC  C21221244   6.247   3.340  14.226  0.9325  0.5081 -0.0941
  174DOPC  H12R21245   6.354   3.332  14.253  0.4673 -1.6114  1.3461
  174DOPC  H12S21246   6.209   3.254  14.166 -0.6986  0.5168  0.8552
  174DOPC  C21321247   6.178   3.332  14.370  0.7156  0.2321 -0.6022
  174DOPC  H13R21248   6.071   3.361  14.361  0.5658 -0.0742  0.0414
  174DOPC  H13S21249   6.230   3.399  14.441  1.4704  0.6700 -1.5534
  174DOPC  C21421250   6.181   3.190  14.426 -0.0418  0.6204 -0.6869
  174DOPC  H14R21251   6.287   3.161  14.443  0.2364  1.8410 -0.2307
  174DOPC  H14S21252   6.132   3.112  14.364  1.5089 -0.7731 -0.2096
  174DOPC  C21521253   6.132   3.177  14.571  0.1567  0.5155  0.3599
  174DOPC  H15R21254   6.028   3.216  14.568 -0.8150 -1.9878 -0.2907
  174DOPC  H15S21255   6.202   3.229  14.641  1.5557 -1.0421  0.1998
  174DOPC  C21621256   6.140   3.034  14.623 -0.5776  0.0898  0.3691
  174DOPC  H16R21257   6.249   3.015  14.615 -0.6736 -0.8019  0.9609
  174DOPC  H16S21258   6.086   2.962  14.558  1.9737 -3.1146  1.5078
  174DOPC  C21721259   6.109   3.009  14.777 -0.1473  0.2675  0.1265
  174DOPC  H17R21260   5.998   3.015  14.777 -0.2289 -0.8865 -0.7918
  174DOPC  H17S21261   6.160   3.089  14.835  1.6807 -0.5863 -0.2323
  174DOPC  C21821262   6.167   2.876  14.826 -0.2289  0.9864  0.4409
  174DOPC  H18R21263   6.098   2.792  14.801 -1.7544  1.5692  2.4925
  174DOPC  H18S21264   6.183   2.875  14.935 -0.4799 -0.6966  0.4893
  174DOPC  H18T21265   6.258   2.853  14.766  0.5269  3.0495  0.7499
  174DOPC   C3321266   6.496   3.743  13.344  0.7968 -0.1445  0.0955
  174DOPC   H3X21267   6.607   3.740  13.353  0.7970 -1.7856 -0.0831
  174DOPC   H3Y21268   6.465   3.636  13.350 -0.4747  0.2039 -0.0799
  174DOPC   C3421269   6.444   3.814  13.464 -0.4418  0.0810  0.7660
  174DOPC   H4X21270   6.337   3.788  13.480 -0.2125 -2.1058 -0.8037
  174DOPC   H4Y21271   6.447   3.924  13.447 -0.5671  0.3437  2.2749
  174DOPC   C3521272   6.529   3.771  13.587  0.4663 -0.2893 -0.5814
  174DOPC   H5X21273   6.636   3.792  13.568  1.2460 -2.2205  1.4006
  174DOPC   H5Y21274   6.519   3.661  13.598  2.2421 -0.5047 -0.8589
  174DOPC   C3621275   6.480   3.843  13.710  0.6057 -0.4669  0.4817
  174DOPC   H6X21276   6.497   3.952  13.700  0.1638 -0.3517  0.9580
  174DOPC   H6Y21277   6.370   3.831  13.722  0.5220 -0.0858  0.1300
  174DOPC   C3721278   6.540   3.793  13.838 -0.1808  0.3142  0.2496
  174DOPC   H7X21279   6.520   3.685  13.858  1.3226 -0.0315  0.0021
  174DOPC   H7Y21280   6.649   3.794  13.819 -0.3875 -0.4855 -1.1477
  174DOPC   C3821281   6.492   3.895  13.946  0.3860  0.4427 -0.0927
  174DOPC   H8X21282   6.387   3.867  13.973 -0.2124  1.9745 -0.7101
  174DOPC   H8Y21283   6.485   3.994  13.895 -0.6757 -0.2061 -1.2869
  174DOPC   C3921284   6.584   3.884  14.064  0.0705  0.5365 -0.9236
  174DOPC   H9X21285   6.682   3.929  14.048  0.1450  0.2137 -1.3893
  174DOPC  C31021286   6.540   3.846  14.187 -0.0698 -0.4155 -0.3218
  174DOPC  H10X21287   6.616   3.856  14.265  2.5308 -1.3786 -2.5417
  174DOPC  C31121288   6.395   3.820  14.223  0.5032 -0.6732  0.6156
  174DOPC  H11X21289   6.367   3.712  14.218  0.0519 -0.5498  0.4796
  174DOPC  H11Y21290   6.325   3.882  14.164  1.2588 -0.3598  0.0429
  174DOPC  C31221291   6.378   3.851  14.375  0.0841  0.5883 -0.1129
  174DOPC  H12X21292   6.409   3.958  14.385  0.8044  0.5168 -1.4142
  174DOPC  H12Y21293   6.456   3.793  14.429 -1.0480 -0.7790  0.0966
  174DOPC  C31321294   6.242   3.826  14.436 -0.0855 -0.0938 -0.4246
  174DOPC  H13X21295   6.174   3.890  14.377 -1.1100  0.5864  1.4077
  174DOPC  H13Y21296   6.211   3.719  14.429  0.3005 -0.2094 -0.4278
  174DOPC  C31421297   6.239   3.862  14.587 -0.6181 -0.1170 -0.1710
  174DOPC  H14X21298   6.325   3.813  14.637 -0.3939  0.2236 -0.2198
  174DOPC  H14Y21299   6.249   3.969  14.615  0.1538 -0.3824  0.5763
  174DOPC  C31521300   6.112   3.817  14.666 -0.3285 -0.2097 -0.0498
  174DOPC  H15X21301   6.025   3.857  14.609 -0.6154 -1.9828 -0.9248
  174DOPC  H15Y21302   6.118   3.862  14.767  0.3607  1.5466 -0.8256
  174DOPC  C31621303   6.100   3.667  14.667 -0.5972  0.9870 -0.6409
  174DOPC  H16X21304   6.058   3.633  14.570 -0.5412 -0.3195 -0.2275
  174DOPC  H16Y21305   6.196   3.615  14.685 -2.0321 -1.1523  1.4246
  174DOPC  C31721306   6.013   3.604  14.780  0.1037 -0.4734  0.2119
  174DOPC  H17X21307   6.055   3.627  14.881 -0.8938  1.3504  0.2630
  174DOPC  H17Y21308   5.912   3.651  14.789  0.1020 -0.6173  1.0028
  174DOPC  C31821309   5.995   3.449  14.770 -0.7013 -0.3578  0.0573
  174DOPC  H18X21310   5.956   3.426  14.669 -1.3469  2.9503 -0.5878
  174DOPC  H18Y21311   6.095   3.403  14.784 -0.5158 -0.4403 -1.3969
  174DOPC  H18Z21312   5.927   3.412  14.850 -1.1190  0.9759  0.3524
  175DOPC     N21313   4.481   5.597  12.974 -0.0785 -0.2124 -0.3842
  175DOPC   C1221314   4.549   5.637  13.105 -0.0006  0.2839 -0.5056
  175DOPC  H12A21315   4.553   5.745  13.104 -1.4807  0.4016  0.9383
  175DOPC  H12B21316   4.648   5.593  13.113 -0.2604 -0.1575  0.5316
  175DOPC   C1321317   4.477   5.450  12.955 -0.2274  0.0404 -0.3820
  175DOPC  H13A21318   4.437   5.391  13.036  2.6531  0.4441  1.5154
  175DOPC  H13B21319   4.411   5.431  12.872  0.8502  0.2605 -1.3137
  175DOPC  H13C21320   4.578   5.413  12.939 -0.3922 -0.1405 -0.9978
  175DOPC   C1421321   4.546   5.656  12.863 -0.0013  0.4564  0.1608
  175DOPC  H14A21322   4.550   5.761  12.887 -4.1753  0.6314  0.8791
  175DOPC  H14B21323   4.650   5.628  12.856 -0.3335 -0.7676 -0.1123
  175DOPC  H14C21324   4.500   5.641  12.766 -0.5710  0.2512  0.4615
  175DOPC   C1521325   4.342   5.660  12.985 -0.8111 -1.2240  0.0686
  175DOPC  H15A21326   4.287   5.658  12.892 -0.1391 -3.1677 -0.3346
  175DOPC  H15B21327   4.357   5.765  13.003  1.9467 -1.2445 -1.5414
  175DOPC  H15C21328   4.284   5.617  13.066  0.5969  0.4107  2.0390
  175DOPC   C1121329   4.487   5.587  13.241  0.3021  0.0858  0.5789
  175DOPC  H11A21330   4.529   5.648  13.324 -1.3554  1.5407  0.4200
  175DOPC  H11B21331   4.382   5.625  13.241 -0.1619 -1.0501 -1.7480
  175DOPC     P21332   4.620   5.374  13.286  0.0186 -0.3782 -0.1808
  175DOPC   O1321333   4.736   5.464  13.275  0.3990 -0.5335 -0.0432
  175DOPC   O1421334   4.631   5.253  13.196 -0.1279 -0.6699 -0.0671
  175DOPC   O1221335   4.485   5.447  13.255 -0.1927  0.0106  0.4118
  175DOPC   O1121336   4.606   5.328  13.434  0.1923 -0.3086  0.2042
  175DOPC    C121337   4.483   5.270  13.491 -0.0707 -1.1675  0.7092
  175DOPC    HA21338   4.514   5.208  13.578 -0.1181 -0.8180  0.9770
  175DOPC    HB21339   4.431   5.207  13.415 -0.4287  0.9786 -0.9120
  175DOPC    C221340   4.378   5.377  13.546 -0.9138  0.0823  0.2208
  175DOPC    HS21341   4.361   5.458  13.473  3.0645 -1.3522 -2.6919
  175DOPC   O2121342   4.438   5.430  13.665 -0.3805  0.3630 -0.3033
  175DOPC   C2121343   4.378   5.537  13.714  0.2890 -0.0132 -0.4704
  175DOPC   O2221344   4.287   5.596  13.665  0.1706  0.1382  0.3963
  175DOPC   C2221345   4.467   5.581  13.838  0.3977  0.3708  0.8045
  175DOPC   H2R21346   4.549   5.648  13.806 -0.0001  0.2291 -0.5717
  175DOPC   H2S21347   4.521   5.492  13.876  0.6413 -0.3483 -1.1345
  175DOPC    C321348   4.244   5.300  13.568 -0.1456  0.2833 -1.2413
  175DOPC    HX21349   4.213   5.278  13.464  1.2668 -0.6202 -1.5010
  175DOPC    HY21350   4.176   5.370  13.622 -0.9268 -0.3931 -1.3269
  175DOPC   O3121351   4.282   5.181  13.642  0.1291  0.1180 -0.0071
  175DOPC   C3121352   4.271   5.189  13.775  0.3584 -0.1351 -0.4776
  175DOPC   O3221353   4.229   5.283  13.836 -0.0810  0.4379 -0.3116
  175DOPC   C3221354   4.339   5.063  13.830  0.4169  0.1690 -0.1835
  175DOPC   H2X21355   4.267   4.979  13.838  0.2221  0.3758  0.2752
  175DOPC   H2Y21356   4.422   5.036  13.761  0.5106 -0.2540  0.0914
  175DOPC   C2321357   4.383   5.652  13.941  0.2314  0.2028  0.2723
  175DOPC   H3R21358   4.302   5.580  13.964  1.1416 -1.5299 -1.6258
  175DOPC   H3S21359   4.335   5.737  13.887  1.1309 -0.4739 -1.6950
  175DOPC   C2421360   4.457   5.689  14.075 -0.6770 -0.3855 -0.1670
  175DOPC   H4R21361   4.408   5.769  14.134  1.7229  1.5912 -0.6621
  175DOPC   H4S21362   4.557   5.730  14.048 -0.9277  1.2707  1.2660
  175DOPC   C2521363   4.477   5.583  14.179 -0.1111  0.1450 -0.4223
  175DOPC   H5R21364   4.533   5.504  14.123 -0.8504 -0.4979 -0.2778
  175DOPC   H5S21365   4.375   5.543  14.200  0.5233 -0.8846  0.8955
  175DOPC   C2621366   4.532   5.629  14.314 -0.2443  0.2262 -0.2110
  175DOPC   H6R21367   4.632   5.667  14.286 -0.1779 -1.3419 -2.3597
  175DOPC   H6S21368   4.561   5.545  14.380 -0.0506  0.3619 -0.1234
  175DOPC   C2721369   4.448   5.717  14.404  0.2537 -0.2017  0.3837
  175DOPC   H7R21370   4.346   5.674  14.412  0.1871 -0.2464 -0.5989
  175DOPC   H7S21371   4.466   5.819  14.363  0.1301  0.0941  1.0511
  175DOPC   C2821372   4.511   5.743  14.544 -0.3997  0.5850 -0.6915
  175DOPC   H8R21373   4.474   5.845  14.571 -2.5682  0.1358 -1.7656
  175DOPC   H8S21374   4.620   5.733  14.532 -0.1271 -0.9837  2.1741
  175DOPC   C2921375   4.466   5.638  14.642  0.0221 -0.1410  0.3323
  175DOPC   H9R21376   4.531   5.549  14.635  2.1673  1.3339  0.5408
  175DOPC  C21021377   4.392   5.655  14.756  0.2159  0.1021 -0.2692
  175DOPC  H10R21378   4.385   5.578  14.834  1.8098 -0.4380 -0.6071
  175DOPC  C21121379   4.319   5.775  14.799  0.2133  0.5451  0.2611
  175DOPC  H11R21380   4.229   5.727  14.843 -0.6783  0.4448 -1.5789
  175DOPC  H11S21381   4.279   5.837  14.716 -1.5655  1.0533  1.4405
  175DOPC  C21221382   4.373   5.850  14.924 -0.4250 -0.0132 -0.2722
  175DOPC  H12R21383   4.375   5.775  15.007 -0.9276  1.0963  0.7780
  175DOPC  H12S21384   4.288   5.918  14.945 -1.7343 -1.8136  0.5594
  175DOPC  C21321385   4.507   5.921  14.903 -0.1073 -0.7356 -0.2014
  175DOPC  H13R21386   4.511   5.945  14.795  0.1439 -1.6148 -0.3893
  175DOPC  H13S21387   4.583   5.841  14.913 -2.6738 -3.3452 -0.1879
  175DOPC  C21421388   4.533   6.046  14.990  0.1619  0.3603 -0.2910
  175DOPC  H14R21389   4.461   6.123  14.958  0.8458  0.5154 -1.5424
  175DOPC  H14S21390   4.639   6.078  14.975 -0.1826  2.3696  1.2490
  175DOPC  C21521391   4.529   6.015  15.141  0.4133  0.0358 -0.4635
  175DOPC  H15R21392   4.595   6.076  15.207  0.3709 -0.1603 -0.2382
  175DOPC  H15S21393   4.551   5.907  15.156 -1.9998 -0.5522 -0.8008
  175DOPC  C21621394   4.382   6.037  15.206  0.3126 -0.2185  0.5926
  175DOPC  H16R21395   4.309   5.960  15.173  1.2945 -0.6239 -0.7164
  175DOPC  H16S21396   4.348   6.132  15.160  3.7056 -0.4744 -3.0320
  175DOPC  C21721397   4.372   6.035  15.356 -0.1740 -0.4894 -0.5701
  175DOPC  H17R21398   4.264   6.042  15.380  0.1049  0.3653  0.5174
  175DOPC  H17S21399   4.429   6.109  15.416  0.5952 -0.9432 -0.7371
  175DOPC  C21821400   4.404   5.894  15.396  0.3970 -0.0931 -0.7051
  175DOPC  H18R21401   4.338   5.833  15.331  0.0437  0.4301 -0.8417
  175DOPC  H18S21402   4.386   5.865  15.501  0.8664 -1.3087 -0.9473
  175DOPC  H18T21403   4.505   5.860  15.362 -0.0415 -0.6102 -1.5309
  175DOPC   C3321404   4.402   5.106  13.969  0.0295 -0.4156 -0.0922
  175DOPC   H3X21405   4.457   5.200  13.949 -1.0563  0.6279  1.6290
  175DOPC   H3Y21406   4.476   5.031  14.004 -0.8235 -0.4921  1.6747
  175DOPC   C3421407   4.315   5.122  14.090 -0.4365  0.0397  0.2726
  175DOPC   H4X21408   4.269   5.030  14.130 -1.4409  1.6855  3.2204
  175DOPC   H4Y21409   4.224   5.178  14.059 -1.2335 -0.9625  0.7578
  175DOPC   C3521410   4.384   5.192  14.205 -0.0009 -0.0965  0.2412
  175DOPC   H5X21411   4.419   5.289  14.164 -0.3920 -0.8262 -1.9337
  175DOPC   H5Y21412   4.477   5.137  14.231 -0.0103 -0.4603 -0.4555
  175DOPC   C3621413   4.293   5.215  14.321  0.5073  0.1235  0.2192
  175DOPC   H6X21414   4.202   5.275  14.302  0.3526  0.0559  0.7442
  175DOPC   H6Y21415   4.265   5.110  14.348 -1.6465  0.3242 -0.9936
  175DOPC   C3721416   4.365   5.283  14.441 -0.7512 -0.2497  0.2801
  175DOPC   H7X21417   4.400   5.383  14.409  0.0950 -0.5563  0.2156
  175DOPC   H7Y21418   4.296   5.307  14.525 -1.7300  0.1119 -0.5990
  175DOPC   C3821419   4.492   5.204  14.487  0.3977 -0.1506 -0.1924
  175DOPC   H8X21420   4.556   5.190  14.397 -0.2890  1.2041 -0.9187
  175DOPC   H8Y21421   4.448   5.104  14.509 -0.4989  0.0197 -1.1524
  175DOPC   C3921422   4.570   5.260  14.606 -0.1581  0.2371 -0.2200
  175DOPC   H9X21423   4.666   5.304  14.575 -0.4657 -0.9864 -3.3500
  175DOPC  C31021424   4.537   5.246  14.734 -1.1026 -0.4248  0.0299
  175DOPC  H10X21425   4.603   5.281  14.814  0.6876 -0.9772 -1.1449
  175DOPC  C31121426   4.410   5.173  14.773 -0.1310 -0.3708  0.0715
  175DOPC  H11X21427   4.368   5.103  14.698  0.8849  0.6275 -1.4985
  175DOPC  H11Y21428   4.323   5.237  14.798 -1.4140 -1.0456 -2.3416
  175DOPC  C31221429   4.432   5.090  14.905  0.6676 -0.0091  0.0626
  175DOPC  H12X21430   4.540   5.098  14.931  1.3230  2.4665 -2.8617
  175DOPC  H12Y21431   4.412   4.985  14.873  0.0104 -0.7834  2.7855
  175DOPC  C31321432   4.340   5.117  15.027 -0.9914 -0.3120  0.0865
  175DOPC  H13X21433   4.245   5.172  15.012 -0.2552  2.1927  3.4461
  175DOPC  H13Y21434   4.310   5.022  15.077  2.0481 -1.5233 -0.1486
  175DOPC  C31421435   4.429   5.191  15.137  0.2460 -0.0845  0.5085
  175DOPC  H14X21436   4.372   5.189  15.232  1.8759  0.1596  1.5308
  175DOPC  H14Y21437   4.520   5.129  15.155 -0.0844 -0.4192  1.0335
  175DOPC  C31521438   4.468   5.334  15.098 -0.4801 -0.1423 -0.4501
  175DOPC  H15X21439   4.389   5.400  15.139 -1.3979  0.4914 -3.0658
  175DOPC  H15Y21440   4.456   5.332  14.987 -4.8453 -1.2942 -0.1189
  175DOPC  C31621441   4.599   5.393  15.153  0.1027 -0.2157 -0.4950
  175DOPC  H16X21442   4.585   5.403  15.262 -2.1277 -0.0397 -0.7465
  175DOPC  H16Y21443   4.683   5.324  15.129  0.0268 -0.4619 -0.0677
  175DOPC  C31721444   4.643   5.535  15.106 -0.2846 -0.1961 -0.1546
  175DOPC  H17X21445   4.563   5.609  15.130 -0.0183  0.5658 -1.4643
  175DOPC  H17Y21446   4.738   5.558  15.158 -0.1664 -0.6634 -0.1669
  175DOPC  C31821447   4.667   5.549  14.956  0.8296 -0.5405  0.4805
  175DOPC  H18X21448   4.700   5.652  14.930  0.0304  0.0012  1.5670
  175DOPC  H18Y21449   4.748   5.477  14.930 -0.6906 -1.8031 -0.9193
  175DOPC  H18Z21450   4.573   5.528  14.901  0.6254  0.7405  0.3049
  176DOPC     N21451   6.106   2.532  12.314  0.3576  0.1849 -0.5794
  176DOPC   C1221452   6.104   2.433  12.435 -0.0256  0.1139  0.0319
  176DOPC  H12A21453   6.145   2.337  12.406  1.5243  0.4715  0.9191
  176DOPC  H12B21454   5.998   2.414  12.448  0.3360 -1.8231  0.4959
  176DOPC   C1321455   6.028   2.466  12.207  0.1309 -0.0414  0.3947
  176DOPC  H13A21456   6.018   2.528  12.119  0.4430 -2.8668 -1.8045
  176DOPC  H13B21457   6.078   2.373  12.181  0.3541  0.1639  0.0731
  176DOPC  H13C21458   5.929   2.432  12.234  0.0137 -0.1627 -0.1737
  176DOPC   C1421459   6.242   2.556  12.269  0.3102 -0.3569 -0.4138
  176DOPC  H14A21460   6.270   2.468  12.213 -1.0068 -0.5046 -0.8701
  176DOPC  H14B21461   6.255   2.642  12.205 -0.1914 -0.0136 -0.0612
  176DOPC  H14C21462   6.305   2.574  12.355 -0.3450 -0.5713  0.1197
  176DOPC   C1521463   6.047   2.666  12.349 -0.3236  0.0043  0.0100
  176DOPC  H15A21464   5.940   2.674  12.361 -0.1830 -0.7668  2.3253
  176DOPC  H15B21465   6.084   2.731  12.271  0.5023 -1.0993 -0.5568
  176DOPC  H15C21466   6.088   2.700  12.443 -0.5931 -0.5226  0.3214
  176DOPC   C1121467   6.166   2.493  12.568  0.5905  0.6137  0.1065
  176DOPC  H11A21468   6.108   2.582  12.600 -1.3801 -0.0611 -1.3834
  176DOPC  H11B21469   6.150   2.414  12.644 -0.5153 -0.0577 -0.7919
  176DOPC     P21470   6.374   2.646  12.587  0.3875 -0.2676 -0.1943
  176DOPC   O1321471   6.287   2.764  12.571  0.3418 -0.4116 -0.0213
  176DOPC   O1421472   6.503   2.644  12.520  0.0562  0.0682  0.3368
  176DOPC   O1221473   6.300   2.510  12.555 -0.0903 -0.1228  0.0067
  176DOPC   O1121474   6.408   2.625  12.743  0.3762 -0.5717 -0.1529
  176DOPC    C121475   6.467   2.510  12.798 -0.2468  0.2131  0.1094
  176DOPC    HA21476   6.523   2.541  12.889 -0.0177 -1.2512  0.4952
  176DOPC    HB21477   6.538   2.472  12.722 -1.0665  0.5768 -0.8657
  176DOPC    C221478   6.364   2.412  12.847 -0.1683  0.3091 -0.3499
  176DOPC    HS21479   6.295   2.381  12.766 -0.1034  1.5338 -0.8881
  176DOPC   O2121480   6.307   2.471  12.959  1.2959  0.4538  0.0892
  176DOPC   C2121481   6.186   2.420  12.993  0.3180  0.3372  0.7353
  176DOPC   O2221482   6.129   2.334  12.928  0.1069 -0.1249  0.0496
  176DOPC   C2221483   6.132   2.480  13.125  0.2923  0.2511  0.3438
  176DOPC   H2R21484   6.097   2.577  13.084 -0.6123 -0.2921 -0.2098
  176DOPC   H2S21485   6.217   2.479  13.197  1.1761  0.6565 -0.6724
  176DOPC    C321486   6.448   2.288  12.889 -0.0741  0.3907  0.6257
  176DOPC    HX21487   6.539   2.317  12.946  0.6523 -1.1785  0.3133
  176DOPC    HY21488   6.501   2.251  12.799 -0.0748  0.8214  0.4440
  176DOPC   O3121489   6.376   2.187  12.971 -0.2044 -0.0533  0.0043
  176DOPC   C3121490   6.313   2.105  12.895 -0.0118 -0.3028  0.4331
  176DOPC   O3221491   6.333   2.092  12.772  0.4510  0.6134 -0.7499
  176DOPC   C3221492   6.217   2.020  12.984 -0.2352 -0.1915 -0.3078
  176DOPC   H2X21493   6.113   2.060  12.981 -1.4054 -2.9925 -0.5965
  176DOPC   H2Y21494   6.219   1.918  12.939 -2.5984 -0.1218 -0.7220
  176DOPC   C2321495   6.008   2.394  13.171 -0.0395  0.1776 -0.2883
  176DOPC   H3R21496   6.046   2.290  13.179  0.2277  0.1495 -1.6785
  176DOPC   H3S21497   5.937   2.396  13.085 -0.5970  1.8631  0.1733
  176DOPC   C2421498   5.928   2.446  13.294 -0.3244 -0.8854  0.4398
  176DOPC   H4R21499   5.827   2.400  13.293 -1.0388  0.6355 -0.6215
  176DOPC   H4S21500   5.904   2.551  13.267 -0.5037 -0.8367  0.7845
  176DOPC   C2521501   6.027   2.431  13.415  0.0405 -0.0537  0.1486
  176DOPC   H5R21502   6.121   2.484  13.391  1.0270 -0.7176  2.2743
  176DOPC   H5S21503   6.048   2.322  13.420 -0.7659 -0.1988  4.0062
  176DOPC   C2621504   5.958   2.485  13.540 -0.4274  0.0513 -0.1242
  176DOPC   H6R21505   6.013   2.469  13.636 -0.4683 -0.7293 -0.2196
  176DOPC   H6S21506   5.862   2.438  13.569  0.9710 -0.8304  3.8215
  176DOPC   C2721507   5.959   2.635  13.537 -0.5204 -0.2242  0.4216
  176DOPC   H7R21508   5.902   2.672  13.450  1.2625  0.5827 -0.4577
  176DOPC   H7S21509   6.061   2.679  13.537 -0.8761  0.6166  0.6787
  176DOPC   C2821510   5.880   2.701  13.652  0.0982  0.2003  0.1082
  176DOPC   H8R21511   5.778   2.657  13.656 -0.6247  1.9255  1.6536
  176DOPC   H8S21512   5.858   2.802  13.612  1.3513  0.6575  0.5464
  176DOPC   C2921513   5.937   2.727  13.786 -0.2447 -0.9842  0.4796
  176DOPC   H9R21514   5.999   2.817  13.794 -1.8947  0.3751 -1.1121
  176DOPC  C21021515   5.894   2.666  13.896  0.1916  0.7099  0.1638
  176DOPC  H10R21516   5.934   2.701  13.993 -0.0066 -1.0759  0.9344
  176DOPC  C21121517   5.781   2.565  13.906 -0.5954  0.3234  0.0504
  176DOPC  H11R21518   5.798   2.489  13.985 -1.0896 -0.4503 -0.5712
  176DOPC  H11S21519   5.782   2.499  13.817 -0.3358 -0.5531  0.6867
  176DOPC  C21221520   5.634   2.611  13.927 -0.3728  0.1977  0.2882
  176DOPC  H12R21521   5.575   2.520  13.952  0.1965 -0.0630  0.7274
  176DOPC  H12S21522   5.609   2.649  13.826  0.9672 -1.0148 -0.5415
  176DOPC  C21321523   5.623   2.731  14.027 -0.2034 -0.2603 -0.8227
  176DOPC  H13R21524   5.522   2.771  14.005 -0.5744 -0.8985 -0.3248
  176DOPC  H13S21525   5.696   2.812  14.004  0.4628 -1.1020 -1.7775
  176DOPC  C21421526   5.623   2.689  14.169 -0.8433 -0.0123 -0.2426
  176DOPC  H14R21527   5.607   2.784  14.225 -1.1866 -0.7281  0.9216
  176DOPC  H14S21528   5.727   2.661  14.196  0.0105  2.0642 -1.1280
  176DOPC  C21521529   5.528   2.573  14.214 -0.8138 -1.0398 -0.6573
  176DOPC  H15R21530   5.539   2.479  14.155  0.2398  0.8865 -3.7643
  176DOPC  H15S21531   5.423   2.609  14.206 -0.1521  0.6253 -2.6295
  176DOPC  C21621532   5.541   2.549  14.359  0.1989 -0.6307  0.0299
  176DOPC  H16R21533   5.503   2.642  14.405  0.4063 -0.5883  0.1151
  176DOPC  H16S21534   5.645   2.535  14.396 -0.4043 -1.3084  1.5830
  176DOPC  C21721535   5.442   2.446  14.409 -0.9540  0.1625  0.8253
  176DOPC  H17R21536   5.487   2.349  14.381  1.1529  1.5507 -0.9585
  176DOPC  H17S21537   5.342   2.458  14.362 -1.3302 -0.1060  1.5391
  176DOPC  C21821538   5.407   2.475  14.557  0.2113  0.2743  0.0750
  176DOPC  H18R21539   5.371   2.579  14.573  0.9204  0.4649  0.5161
  176DOPC  H18S21540   5.488   2.442  14.625 -0.2112 -0.5620  0.1807
  176DOPC  H18T21541   5.325   2.405  14.583  0.6696 -0.2583  0.0960
  176DOPC   C3321542   6.264   2.010  13.134 -0.4762  0.5639 -0.1424
  176DOPC   H3X21543   6.271   2.114  13.175 -1.4515  0.3269  0.6588
  176DOPC   H3Y21544   6.368   1.971  13.139 -0.7220 -0.0445  0.4042
  176DOPC   C3421545   6.177   1.924  13.231  0.1852 -0.3846  0.3819
  176DOPC   H4X21546   6.166   1.820  13.192  1.3044 -0.3568 -0.0515
  176DOPC   H4Y21547   6.077   1.970  13.216  1.3334  1.5664 -2.0386
  176DOPC   C3521548   6.235   1.912  13.367 -0.2006  0.5042  0.1610
  176DOPC   H5X21549   6.338   1.889  13.334 -1.6095 -2.8568 -2.5927
  176DOPC   H5Y21550   6.185   1.830  13.423 -1.3780  1.0422 -0.0601
  176DOPC   C3621551   6.246   2.039  13.456 -0.1395 -0.1437 -0.3615
  176DOPC   H6X21552   6.327   2.101  13.412 -0.3865 -0.1370 -0.8111
  176DOPC   H6Y21553   6.152   2.097  13.452  0.2811  0.4989 -1.8950
  176DOPC   C3721554   6.305   2.004  13.598  0.0109 -0.3340  0.4622
  176DOPC   H7X21555   6.386   1.931  13.574 -1.4941 -1.0971 -2.8522
  176DOPC   H7Y21556   6.355   2.092  13.643  3.5838 -2.4654  1.0764
  176DOPC   C3821557   6.204   1.931  13.688 -0.0101  0.4921 -0.2743
  176DOPC   H8X21558   6.260   1.879  13.768 -1.1978  0.1568  0.3719
  176DOPC   H8Y21559   6.147   1.854  13.633 -1.4985  0.9130  0.5989
  176DOPC   C3921560   6.108   2.035  13.748 -0.7277 -0.0826  0.7037
  176DOPC   H9X21561   6.061   2.100  13.672 -2.0186  0.0220  1.5690
  176DOPC  C31021562   6.103   2.066  13.878  0.5617  0.0755  0.4017
  176DOPC  H10X21563   6.037   2.149  13.904  1.5653  1.4248 -1.1039
  176DOPC  C31121564   6.181   1.993  13.981  0.2917  0.4447 -1.0738
  176DOPC  H11X21565   6.192   2.060  14.070 -0.8302 -2.2466  1.2342
  176DOPC  H11Y21566   6.283   1.964  13.949 -0.2377 -2.4128 -0.3973
  176DOPC  C31221567   6.105   1.865  14.019 -0.4839  0.4494  0.4269
  176DOPC  H12X21568   6.129   1.791  13.940  1.2911 -0.5037  1.7913
  176DOPC  H12Y21569   5.995   1.877  14.020 -0.3817  1.7587  2.9043
  176DOPC  C31321570   6.152   1.818  14.153  0.9344 -0.2123  0.3824
  176DOPC  H13X21571   6.251   1.861  14.180 -0.4401  2.1217  2.0782
  176DOPC  H13Y21572   6.080   1.837  14.236  1.8254 -1.5048  1.4827
  176DOPC  C31421573   6.172   1.661  14.159  0.5846 -0.0398 -0.3332
  176DOPC  H14X21574   6.111   1.611  14.081  1.0342 -0.0168 -0.7048
  176DOPC  H14Y21575   6.280   1.655  14.134  0.9129  1.1051  0.7043
  176DOPC  C31521576   6.136   1.606  14.297 -0.7047  0.3749  0.1980
  176DOPC  H15X21577   6.134   1.495  14.302 -2.6547  0.4263  1.3688
  176DOPC  H15Y21578   6.029   1.626  14.319 -0.2901  1.4736  1.3412
  176DOPC  C31621579   6.232   1.654  14.406 -0.3455 -0.7044 -0.1671
  176DOPC  H16X21580   6.338   1.653  14.372  0.4272  0.4506  2.0570
  176DOPC  H16Y21581   6.196   1.754  14.438 -2.1396 -0.4652 -2.6374
  176DOPC  C31721582   6.217   1.567  14.533 -0.0326  0.1430 -0.0715
  176DOPC  H17X21583   6.268   1.471  14.509 -2.6797 -0.5532 -3.8335
  176DOPC  H17Y21584   6.270   1.619  14.616 -1.5788  1.2235  0.2898
  176DOPC  C31821585   6.071   1.538  14.578 -0.2821 -0.0479 -0.0209
  176DOPC  H18X21586   6.070   1.480  14.673  2.3487 -1.1242 -0.5657
  176DOPC  H18Y21587   6.004   1.624  14.601  0.2525  0.2164  0.5925
  176DOPC  H18Z21588   6.022   1.474  14.502  1.5574  0.3450 -1.6122
  177DOPC     N21589   6.478   0.189  11.797  0.6191  0.5228 -0.1370
  177DOPC   C1221590   6.562   0.139  11.912 -0.8735 -0.1049  0.2819
  177DOPC  H12A21591   6.656   0.192  11.911 -1.8837  1.7577  0.0403
  177DOPC  H12B21592   6.587   0.035  11.901 -1.5177 -0.1704 -0.7272
  177DOPC   C1321593   6.336   0.143  11.794  0.1784  0.1086 -0.7108
  177DOPC  H13A21594   6.279   0.174  11.880 -1.6539 -3.0168 -0.6526
  177DOPC  H13B21595   6.279   0.169  11.706  0.8651  0.4471 -1.0590
  177DOPC  H13C21596   6.337   0.037  11.815  0.2951 -0.2693 -2.5067
  177DOPC   C1421597   6.538   0.123  11.676 -0.3805 -0.6849  0.3441
  177DOPC  H14A21598   6.635   0.161  11.648 -0.2044  1.6239  3.5153
  177DOPC  H14B21599   6.552   0.017  11.687 -2.2662 -0.8226  2.0202
  177DOPC  H14C21600   6.478   0.142  11.589 -0.5711 -0.6252  0.4879
  177DOPC   C1521601   6.481   0.342  11.774 -0.3094 -0.0003 -0.4361
  177DOPC  H15A21602   6.434   0.384  11.862 -0.1252 -2.7613  1.1073
  177DOPC  H15B21603   6.431   0.380  11.686  1.4439  0.7978 -1.1481
  177DOPC  H15C21604   6.582   0.381  11.766 -0.5670  0.4864 -1.4694
  177DOPC   C1121605   6.503   0.151  12.060 -0.0308  0.6079 -0.2957
  177DOPC  H11A21606   6.420   0.077  12.057 -0.0931  0.6363  0.4774
  177DOPC  H11B21607   6.580   0.122  12.136 -1.6440 -0.2249  1.0798
  177DOPC     P21608   6.549   0.386  12.159  0.5055  0.1076  0.0812
  177DOPC   O1321609   6.480   0.517  12.153 -0.7301  0.2791 -0.6660
  177DOPC   O1421610   6.686   0.377  12.106  0.3466 -0.0957  0.2509
  177DOPC   O1221611   6.455   0.283  12.086 -0.2713  0.1455 -0.4517
  177DOPC   O1121612   6.541   0.324  12.302  0.3159  0.7069 -0.2949
  177DOPC    C121613   6.409   0.311  12.361  0.8035  0.4814  0.4320
  177DOPC    HA21614   6.380   0.206  12.341  2.0408  0.6275 -2.7343
  177DOPC    HB21615   6.332   0.383  12.325  0.3334 -0.8469 -1.3036
  177DOPC    C221616   6.431   0.331  12.511 -0.1893  0.0356 -0.7327
  177DOPC    HS21617   6.455   0.437  12.533 -1.1714  0.2011 -0.3948
  177DOPC   O2121618   6.529   0.245  12.568 -0.6490 -0.4747 -0.2533
  177DOPC   C2121619   6.640   0.298  12.626 -1.0309  0.4662  0.2458
  177DOPC   O2221620   6.655   0.416  12.648 -0.2667 -0.6451 -0.3613
  177DOPC   C2221621   6.743   0.189  12.659 -0.2304  0.1591 -0.0329
  177DOPC   H2R21622   6.792   0.153  12.566 -3.2494 -1.4822 -1.1159
  177DOPC   H2S21623   6.689   0.100  12.697  0.9109 -0.7180 -0.3903
  177DOPC    C321624   6.300   0.317  12.596  0.2298 -0.1373 -0.2410
  177DOPC    HX21625   6.270   0.210  12.600 -0.0078 -0.0472  0.6691
  177DOPC    HY21626   6.215   0.374  12.555 -1.0774 -2.0464 -0.3271
  177DOPC   O3121627   6.325   0.351  12.737 -0.2225  0.5283  0.4852
  177DOPC   C3121628   6.338   0.484  12.774 -0.4489  0.8968  0.4598
  177DOPC   O3221629   6.316   0.579  12.704 -0.2309 -0.4284  0.1361
  177DOPC   C3221630   6.389   0.490  12.922 -0.1522 -0.2835  0.4063
  177DOPC   H2X21631   6.292   0.515  12.969 -0.1763  1.8235 -0.6488
  177DOPC   H2Y21632   6.423   0.391  12.961 -4.1910 -2.3792 -0.8370
  177DOPC   C2321633   6.851   0.239  12.762 -0.4027  0.3294 -0.2043
  177DOPC   H3R21634   6.916   0.319  12.719 -0.2926  0.3740  0.0427
  177DOPC   H3S21635   6.916   0.150  12.777 -1.3069 -0.4843 -1.0493
  177DOPC   C2421636   6.802   0.280  12.902 -0.6787 -0.3372 -0.0694
  177DOPC   H4R21637   6.741   0.371  12.886  0.1027  0.5674  1.7263
  177DOPC   H4S21638   6.888   0.318  12.961 -0.8073  0.1811 -0.2131
  177DOPC   C2521639   6.737   0.174  12.994  0.4900  0.3248  0.6469
  177DOPC   H5R21640   6.800   0.083  12.999  0.4029 -0.0453 -2.6002
  177DOPC   H5S21641   6.644   0.138  12.946  1.7273  0.2546 -1.8605
  177DOPC   C2621642   6.712   0.222  13.135 -0.1668 -0.3389  0.1101
  177DOPC   H6R21643   6.646   0.310  13.144 -1.0139 -1.0164  0.6675
  177DOPC   H6S21644   6.804   0.264  13.181  0.5810 -0.2751 -1.3837
  177DOPC   C2721645   6.646   0.122  13.237  0.6155 -0.5201  0.1924
  177DOPC   H7R21646   6.708   0.030  13.230 -0.0104 -0.8455 -2.9194
  177DOPC   H7S21647   6.545   0.105  13.194  0.4369  0.2270  0.2998
  177DOPC   C2821648   6.623   0.175  13.381  0.2682 -0.0767 -0.3153
  177DOPC   H8R21649   6.561   0.104  13.440  0.2752 -0.7921 -1.1533
  177DOPC   H8S21650   6.572   0.274  13.377 -0.4227 -0.4701 -1.4736
  177DOPC   C2921651   6.749   0.214  13.454 -0.1445 -0.5787 -0.6353
  177DOPC   H9R21652   6.841   0.224  13.395  0.7306 -0.2389  0.7347
  177DOPC  C21021653   6.769   0.208  13.590 -0.7865  0.4201  0.7759
  177DOPC  H10R21654   6.861   0.254  13.629  0.2186  0.1292 -1.1313
  177DOPC  C21121655   6.655   0.171  13.684 -0.0076 -0.4131  0.2605
  177DOPC  H11R21656   6.602   0.076  13.662  1.1230 -0.9356 -0.2697
  177DOPC  H11S21657   6.585   0.257  13.676 -1.1023 -1.2309  0.7914
  177DOPC  C21221658   6.694   0.165  13.830 -0.6169 -0.0387  0.1074
  177DOPC  H12R21659   6.727   0.262  13.873  0.2586 -1.1031  1.9591
  177DOPC  H12S21660   6.784   0.100  13.838 -1.7290 -2.0670 -2.5347
  177DOPC  C21321661   6.577   0.131  13.923 -0.1103 -0.3954 -0.3078
  177DOPC  H13R21662   6.544   0.027  13.902  1.3891 -0.2222 -4.4322
  177DOPC  H13S21663   6.482   0.180  13.893  0.2276 -0.4318 -1.4725
  177DOPC  C21421664   6.602   0.170  14.072  0.2805  0.0328  0.8231
  177DOPC  H14R21665   6.709   0.167  14.101  0.5556  0.3451 -0.1326
  177DOPC  H14S21666   6.551   0.097  14.139 -2.1094  0.7690 -0.0800
  177DOPC  C21521667   6.537   0.301  14.114  0.1116  0.2065 -0.2498
  177DOPC  H15R21668   6.429   0.281  14.128 -0.4275  2.0194 -1.5248
  177DOPC  H15S21669   6.537   0.370  14.027  1.5791 -0.9457 -1.2286
  177DOPC  C21621670   6.579   0.370  14.245 -0.9164  0.0110 -0.4226
  177DOPC  H16R21671   6.545   0.316  14.336  1.9525  1.9444  1.9803
  177DOPC  H16S21672   6.550   0.478  14.243 -0.2525  0.1985 -3.4795
  177DOPC  C21721673   6.736   0.377  14.268 -0.5072  0.2519 -0.3836
  177DOPC  H17R21674   6.787   0.422  14.180 -2.0836  1.7254 -0.6004
  177DOPC  H17S21675   6.778   0.275  14.283  0.0746  0.5234 -0.1199
  177DOPC  C21821676   6.765   0.465  14.389  0.5101  0.2621  0.4862
  177DOPC  H18R21677   6.705   0.428  14.475 -0.1478  1.8065  0.7285
  177DOPC  H18S21678   6.733   0.569  14.363 -1.1223 -0.2245  0.4377
  177DOPC  H18T21679   6.873   0.462  14.414  0.3371  0.6862  1.3054
  177DOPC   C3321680   6.478   0.620  12.931  0.4718 -0.5275  0.1128
  177DOPC   H3X21681   6.407   0.705  12.921  0.1416 -0.7896  0.2269
  177DOPC   H3Y21682   6.549   0.621  12.845  1.3321  0.8049  0.8154
  177DOPC   C3421683   6.563   0.648  13.058  0.0214  0.2846 -0.3535
  177DOPC   H4X21684   6.625   0.739  13.045 -0.0029  0.3455 -0.0661
  177DOPC   H4Y21685   6.636   0.565  13.073 -0.3260  0.0571  0.0877
  177DOPC   C3521686   6.473   0.655  13.179 -0.0803  0.4699  0.0627
  177DOPC   H5X21687   6.418   0.559  13.171  0.1595  0.4645 -2.1888
  177DOPC   H5Y21688   6.399   0.737  13.171  0.6174  1.1316  0.2390
  177DOPC   C3621689   6.552   0.663  13.310 -0.2916  0.3567  0.3241
  177DOPC   H6X21690   6.631   0.586  13.308 -2.0602 -1.5939  1.6280
  177DOPC   H6Y21691   6.595   0.766  13.316  1.9263 -0.4992  0.0131
  177DOPC   C3721692   6.452   0.670  13.424  1.1531  0.0335 -0.8905
  177DOPC   H7X21693   6.391   0.762  13.409  0.6025 -0.3536 -1.0362
  177DOPC   H7Y21694   6.379   0.587  13.412  1.1611 -0.3909  1.5125
  177DOPC   C3821695   6.501   0.683  13.570 -0.5727  0.0442  0.3839
  177DOPC   H8X21696   6.425   0.739  13.629 -1.1014 -3.1221  2.9613
  177DOPC   H8Y21697   6.589   0.751  13.568 -1.0914  0.7194 -0.1707
  177DOPC   C3921698   6.532   0.552  13.637 -0.3171  0.0235  0.0252
  177DOPC   H9X21699   6.553   0.469  13.568  0.0905 -0.5212  0.7881
  177DOPC  C31021700   6.572   0.531  13.761  0.4429  0.3665 -0.1939
  177DOPC  H10X21701   6.604   0.435  13.804  1.6200  1.4663  1.4948
  177DOPC  C31121702   6.563   0.643  13.866 -0.2193  0.1957  0.3642
  177DOPC  H11X21703   6.513   0.621  13.962 -0.3599  2.1138  0.7695
  177DOPC  H11Y21704   6.510   0.730  13.822 -1.6068  0.3462  2.2475
  177DOPC  C31221705   6.699   0.693  13.909  0.3197  0.1776  0.2261
  177DOPC  H12X21706   6.773   0.688  13.826  1.3415 -0.6285  1.1465
  177DOPC  H12Y21707   6.755   0.628  13.979  1.5302  2.7554  1.8217
  177DOPC  C31321708   6.696   0.833  13.972 -0.2555  0.0802 -0.4505
  177DOPC  H13X21709   6.663   0.914  13.904  2.9201  1.6571 -0.3088
  177DOPC  H13Y21710   6.626   0.829  14.059  0.4242 -1.5198  0.0601
  177DOPC  C31421711   6.827   0.877  14.022 -0.0440 -0.1879 -0.4782
  177DOPC  H14X21712   6.894   0.881  13.933  1.9155  1.6643  0.9721
  177DOPC  H14Y21713   6.823   0.985  14.048 -0.3054  0.2807 -2.3163
  177DOPC  C31521714   6.887   0.788  14.133 -0.4262 -0.4791  0.2318
  177DOPC  H15X21715   6.893   0.679  14.110  1.5945 -0.1554 -0.9840
  177DOPC  H15Y21716   6.824   0.823  14.218 -0.7401 -0.4339 -0.0181
  177DOPC  C31621717   7.029   0.835  14.166 -0.0856  0.1927  0.6292
  177DOPC  H16X21718   7.107   0.805  14.093 -0.4194 -0.3373  0.4867
  177DOPC  H16Y21719   7.028   0.946  14.161 -0.4156  0.2267  1.3924
  177DOPC  C31721720   7.086   0.797  14.302 -0.7267  0.1231  0.3995
  177DOPC  H17X21721   7.076   0.686  14.306 -0.9474  0.0110 -1.9390
  177DOPC  H17Y21722   7.193   0.825  14.311 -0.5209 -0.5502  0.1003
  177DOPC  C31821723   7.012   0.857  14.422  0.6995 -0.0429  0.3321
  177DOPC  H18X21724   6.964   0.947  14.377  0.1826 -0.4220  0.1148
  177DOPC  H18Y21725   6.920   0.796  14.429 -0.0209  0.4941 -3.0270
  177DOPC  H18Z21726   7.069   0.862  14.518 -0.1824  0.1539  0.8563
  178DOPC     N21727   3.985   1.358  11.842 -0.1819 -0.0122 -0.3494
  178DOPC   C1221728   3.988   1.287  11.976  0.4903 -0.4453  0.3518
  178DOPC  H12A21729   3.977   1.182  11.955 -5.1202 -0.3784  1.2684
  178DOPC  H12B21730   3.896   1.314  12.026  0.3610  1.5161 -0.8701
  178DOPC   C1321731   3.972   1.506  11.862 -0.8973  0.2310 -0.5792
  178DOPC  H13A21732   3.978   1.557  11.767 -0.9213  1.8753  0.2822
  178DOPC  H13B21733   3.878   1.544  11.898 -0.5555 -0.4117  1.0717
  178DOPC  H13C21734   4.057   1.538  11.921 -0.2763 -2.2862  0.0281
  178DOPC   C1421735   3.862   1.307  11.776 -0.2735 -0.3517  0.2476
  178DOPC  H14A21736   3.874   1.327  11.670  1.8255 -1.4735  0.2108
  178DOPC  H14B21737   3.853   1.200  11.782 -1.2998 -0.2414  0.8084
  178DOPC  H14C21738   3.776   1.363  11.809  1.3658  1.4414  1.7705
  178DOPC   C1521739   4.101   1.337  11.753 -0.0355 -0.6956 -0.0764
  178DOPC  H15A21740   4.094   1.398  11.664 -2.4370 -1.0574 -0.2063
  178DOPC  H15B21741   4.115   1.234  11.723  1.4587 -0.1960 -1.2121
  178DOPC  H15C21742   4.197   1.361  11.796 -0.2118  1.1669 -0.6293
  178DOPC   C1121743   4.094   1.332  12.081 -0.4912 -0.8450 -0.3879
  178DOPC  H11A21744   4.085   1.251  12.156  1.7856 -4.0093 -3.1725
  178DOPC  H11B21745   4.199   1.321  12.045  0.2354  1.1927  0.9678
  178DOPC     P21746   3.997   1.491  12.265 -0.1967  0.0845 -0.3163
  178DOPC   O1321747   3.954   1.366  12.333 -0.2571 -0.6134  0.2980
  178DOPC   O1421748   3.896   1.600  12.249 -0.1930  0.2763  0.4821
  178DOPC   O1221749   4.071   1.465  12.132  0.0092 -0.4097  0.4250
  178DOPC   O1121750   4.109   1.561  12.347  0.1870  0.4566  0.9969
  178DOPC    C121751   4.199   1.483  12.419 -0.1295 -0.2947 -0.2239
  178DOPC    HA21752   4.283   1.450  12.354  0.0192 -0.1332 -0.1153
  178DOPC    HB21753   4.152   1.393  12.465 -2.6804 -0.0912 -2.2455
  178DOPC    C221754   4.275   1.562  12.534  0.1851  0.1079 -0.5082
  178DOPC    HS21755   4.289   1.495  12.621  2.5605 -0.2094 -1.0483
  178DOPC   O2121756   4.195   1.682  12.583 -0.4022  0.1339 -0.5000
  178DOPC   C2121757   4.081   1.657  12.655  0.1698  0.2089  0.3987
  178DOPC   O2221758   4.036   1.546  12.683 -0.2717 -0.1935 -0.0436
  178DOPC   C2221759   4.011   1.788  12.679  0.4124 -0.2965  0.6398
  178DOPC   H2R21760   3.916   1.788  12.623  1.7997  0.8231 -1.9188
  178DOPC   H2S21761   4.064   1.877  12.638 -0.7329 -0.2072 -0.7113
  178DOPC    C321762   4.421   1.603  12.486 -0.4594 -0.2309  0.3908
  178DOPC    HX21763   4.409   1.672  12.400  1.3195  1.1996  1.1846
  178DOPC    HY21764   4.480   1.517  12.449 -0.5525  0.0740 -0.4812
  178DOPC   O3121765   4.498   1.672  12.588 -0.2217 -0.2077  0.1528
  178DOPC   C3121766   4.478   1.806  12.580  0.0042  0.2650  0.1512
  178DOPC   O3221767   4.399   1.859  12.510  0.6490 -0.2900  0.6874
  178DOPC   C3221768   4.567   1.877  12.687  0.3337  0.2530  0.5993
  178DOPC   H2X21769   4.622   1.803  12.748 -0.4728  0.0421  1.0910
  178DOPC   H2Y21770   4.638   1.945  12.635  0.2560 -0.4513 -0.4658
  178DOPC   C2321771   3.973   1.804  12.830 -0.3901  0.2007 -0.0045
  178DOPC   H3R21772   3.921   1.718  12.878 -0.1883 -0.6049 -1.1554
  178DOPC   H3S21773   3.904   1.890  12.827 -0.3516  0.2031 -1.3865
  178DOPC   C2421774   4.096   1.835  12.927 -0.1186  0.1176  0.2223
  178DOPC   H4R21775   4.142   1.933  12.905  0.1783 -0.2192 -0.6917
  178DOPC   H4S21776   4.176   1.761  12.907 -0.7047 -0.8048  1.1501
  178DOPC   C2521777   4.058   1.808  13.073  0.6218  0.1905  0.1123
  178DOPC   H5R21778   3.963   1.859  13.102  1.8329  2.7019 -0.0910
  178DOPC   H5S21779   4.146   1.853  13.122  1.3631  1.2821 -2.0638
  178DOPC   C2621780   4.060   1.662  13.112  0.0473 -0.3317  0.2352
  178DOPC   H6R21781   4.151   1.622  13.062 -0.1622 -3.5078  2.1654
  178DOPC   H6S21782   3.978   1.610  13.059 -0.6202  2.7729 -2.1124
  178DOPC   C2721783   4.082   1.648  13.261  0.9370  0.2349 -0.0244
  178DOPC   H7R21784   3.996   1.698  13.311 -0.5644 -1.1784 -1.0972
  178DOPC   H7S21785   4.179   1.694  13.290  0.6597  0.1173  1.1300
  178DOPC   C2821786   4.072   1.509  13.313  0.8444  0.8311  0.3886
  178DOPC   H8R21787   4.109   1.515  13.417 -0.8352 -1.3854  1.1921
  178DOPC   H8S21788   4.141   1.446  13.254  0.3123  0.1611  0.4663
  178DOPC   C2921789   3.927   1.458  13.332 -0.7061 -0.7429  0.3950
  178DOPC   H9R21790   3.886   1.424  13.236 -0.2603  1.3688 -0.5905
  178DOPC  C21021791   3.852   1.468  13.444 -0.5777  0.5505  0.0830
  178DOPC  H10R21792   3.750   1.428  13.445 -1.0560  1.7115 -0.0829
  178DOPC  C21121793   3.894   1.509  13.586  0.5451 -0.0530 -0.4284
  178DOPC  H11R21794   3.822   1.579  13.633 -0.4705 -1.8443  0.8043
  178DOPC  H11S21795   4.000   1.542  13.598  0.4474  0.8740 -1.9829
  178DOPC  C21221796   3.890   1.382  13.672 -0.4559 -0.1347 -0.3450
  178DOPC  H12R21797   3.973   1.318  13.634  2.7098  2.2506  1.9982
  178DOPC  H12S21798   3.795   1.327  13.655  0.0802 -1.2011  0.0018
  178DOPC  C21321799   3.919   1.407  13.821 -0.2063 -0.4288 -1.4105
  178DOPC  H13R21800   4.005   1.475  13.841 -0.0796 -1.2222  1.1053
  178DOPC  H13S21801   3.943   1.314  13.876 -0.4299  2.0778  3.5069
  178DOPC  C21421802   3.794   1.465  13.888  0.0866 -0.2533 -0.1540
  178DOPC  H14R21803   3.703   1.407  13.863 -0.7599  0.9919 -0.0394
  178DOPC  H14S21804   3.795   1.565  13.840  2.4493 -1.3670 -2.7115
  178DOPC  C21521805   3.803   1.484  14.037  0.8557 -0.5581  0.1121
  178DOPC  H15R21806   3.900   1.531  14.062  0.2625  0.1713  1.1197
  178DOPC  H15S21807   3.797   1.381  14.079  1.5596 -0.0774  1.4236
  178DOPC  C21621808   3.688   1.575  14.094 -0.3137 -0.7003 -0.0995
  178DOPC  H16R21809   3.605   1.570  14.019 -1.7757 -3.5993  1.5333
  178DOPC  H16S21810   3.725   1.679  14.106  0.1581 -0.5963 -2.0400
  178DOPC  C21721811   3.635   1.523  14.229  0.5289 -0.3564 -0.2091
  178DOPC  H17R21812   3.625   1.413  14.224 -0.6911 -0.2365 -0.7373
  178DOPC  H17S21813   3.531   1.560  14.241  0.4894 -0.0969 -1.1826
  178DOPC  C21821814   3.718   1.572  14.341 -0.4545 -0.2917 -0.9212
  178DOPC  H18R21815   3.677   1.538  14.438 -1.4997 -0.8470 -1.5417
  178DOPC  H18S21816   3.727   1.682  14.355  0.9462 -0.7516  2.9625
  178DOPC  H18T21817   3.824   1.541  14.328 -0.7187 -3.0447  2.0420
  178DOPC   C3321818   4.485   1.949  12.788  0.7491  0.6778  0.6558
  178DOPC   H3X21819   4.402   1.894  12.836 -1.2735  2.3284 -0.7664
  178DOPC   H3Y21820   4.442   2.041  12.744 -2.6013 -1.2836 -0.5006
  178DOPC   C3421821   4.574   1.996  12.910  0.6617  0.2264  0.0297
  178DOPC   H4X21822   4.526   2.074  12.973  1.6421 -0.1739  1.3051
  178DOPC   H4Y21823   4.671   2.042  12.883  1.8626 -0.9325  2.1322
  178DOPC   C3521824   4.616   1.877  13.012 -0.2850  0.4380 -0.5724
  178DOPC   H5X21825   4.698   1.821  12.962 -1.4842 -1.0913 -0.8926
  178DOPC   H5Y21826   4.526   1.813  13.022 -0.1515  0.4862  1.2092
  178DOPC   C3621827   4.658   1.927  13.150  0.2491 -0.0785 -0.0014
  178DOPC   H6X21828   4.564   1.955  13.203 -0.7136  0.4960 -1.9077
  178DOPC   H6Y21829   4.702   1.837  13.199  0.4550  0.0842  0.1101
  178DOPC   C3721830   4.765   2.037  13.150  0.2541  0.3840  0.2645
  178DOPC   H7X21831   4.845   2.007  13.079  1.0410 -2.2224  2.1037
  178DOPC   H7Y21832   4.719   2.131  13.113 -1.5884 -1.1473 -1.5393
  178DOPC   C3821833   4.828   2.063  13.290 -0.3423  0.1797  0.4660
  178DOPC   H8X21834   4.924   2.115  13.273 -0.3256 -0.7883 -3.2765
  178DOPC   H8Y21835   4.858   1.972  13.345  2.0623  0.0992 -0.8630
  178DOPC   C3921836   4.744   2.158  13.378  0.0067 -0.3238 -0.1689
  178DOPC   H9X21837   4.761   2.267  13.375 -2.8631  0.2865  2.0026
  178DOPC  C31021838   4.667   2.112  13.478  0.4102 -0.0291  0.6231
  178DOPC  H10X21839   4.597   2.182  13.526  0.4477 -0.0001  0.6364
  178DOPC  C31121840   4.652   1.964  13.512 -0.0419  0.3972  0.4013
  178DOPC  H11X21841   4.743   1.906  13.538 -1.3043 -0.8255  2.4847
  178DOPC  H11Y21842   4.602   1.906  13.431 -1.1695 -2.1233  2.7337
  178DOPC  C31221843   4.570   1.952  13.645  0.2066 -0.4287 -0.3161
  178DOPC  H12X21844   4.477   2.012  13.639  1.0693  1.1091  0.7897
  178DOPC  H12Y21845   4.642   1.994  13.719  0.4128  0.5207 -1.0334
  178DOPC  C31321846   4.541   1.803  13.682 -1.0824 -0.0158 -0.2323
  178DOPC  H13X21847   4.505   1.744  13.595 -0.8555 -2.5370  1.2715
  178DOPC  H13Y21848   4.636   1.751  13.708 -0.8250  0.1357 -0.8473
  178DOPC  C31421849   4.443   1.790  13.795  0.2334  0.2510  0.1617
  178DOPC  H14X21850   4.352   1.849  13.770  1.0226  1.4294 -0.0124
  178DOPC  H14Y21851   4.409   1.685  13.807  1.4260 -0.2133 -0.4372
  178DOPC  C31521852   4.492   1.844  13.933 -0.2962  0.2317  0.1286
  178DOPC  H15X21853   4.556   1.933  13.919  0.9530 -0.4283  1.2691
  178DOPC  H15Y21854   4.560   1.769  13.981 -1.2640 -0.7541 -0.0007
  178DOPC  C31621855   4.374   1.882  14.032 -0.2321  0.2022  0.4373
  178DOPC  H16X21856   4.329   1.971  13.982 -1.2252 -2.2434 -3.4586
  178DOPC  H16Y21857   4.288   1.812  14.038 -1.3851  1.6375  1.2524
  178DOPC  C31721858   4.432   1.914  14.171 -0.1233  0.7005  0.2748
  178DOPC  H17X21859   4.495   1.825  14.190  1.3055  1.8560  1.2264
  178DOPC  H17Y21860   4.496   2.005  14.166 -1.8912  2.1268  1.8197
  178DOPC  C31821861   4.334   1.924  14.289 -0.5017 -0.1191 -0.0589
  178DOPC  H18X21862   4.247   1.854  14.284 -0.8760  0.4142 -3.0011
  178DOPC  H18Y21863   4.387   1.917  14.386 -0.7441  0.0075  0.0832
  178DOPC  H18Z21864   4.293   2.027  14.290  0.6614  0.3501  0.6235
  179DOPC     N21865   2.037   6.339  12.065  0.1337 -0.0774 -0.5794
  179DOPC   C1221866   2.034   6.405  12.205  0.5392 -0.1388 -0.3318
  179DOPC  H12A21867   1.938   6.375  12.245  0.7093 -1.5053 -0.8811
  179DOPC  H12B21868   2.030   6.511  12.190  0.1644 -0.3835 -2.2109
  179DOPC   C1321869   1.930   6.397  11.984  0.1510  0.5277  0.4295
  179DOPC  H13A21870   1.832   6.358  12.010  0.5547 -0.2961  0.7770
  179DOPC  H13B21871   1.932   6.504  11.991  0.6990  0.5165  0.4870
  179DOPC  H13C21872   1.940   6.370  11.880 -0.9088 -0.8808  0.6551
  179DOPC   C1421873   2.028   6.197  12.070  0.0467 -0.0718  0.6904
  179DOPC  H14A21874   2.088   6.146  12.144  0.2390 -2.2484 -0.8701
  179DOPC  H14B21875   1.931   6.157  12.093  1.5693 -4.4491  0.5450
  179DOPC  H14C21876   2.064   6.163  11.974 -2.2443 -0.1581 -0.1832
  179DOPC   C1521877   2.168   6.379  11.997 -0.3693  0.6416  0.3375
  179DOPC  H15A21878   2.180   6.483  12.024 -2.9498  0.2722  3.6527
  179DOPC  H15B21879   2.158   6.367  11.890  1.5292 -1.8901  0.3597
  179DOPC  H15C21880   2.250   6.331  12.047  1.2633  3.4494  0.5683
  179DOPC   C1121881   2.139   6.359  12.309 -0.2319  0.5625 -0.4697
  179DOPC  H11A21882   2.102   6.395  12.408  1.1020  0.7726 -0.0316
  179DOPC  H11B21883   2.136   6.249  12.320 -0.0260  0.6503  0.6345
  179DOPC     P21884   2.342   6.521  12.311 -0.5832  0.3307 -0.3040
  179DOPC   O1321885   2.271   6.641  12.248 -0.2926  0.4568  0.0409
  179DOPC   O1421886   2.485   6.514  12.275  0.3384 -0.2728  0.4970
  179DOPC   O1221887   2.273   6.391  12.282  0.1751 -0.2156 -0.0216
  179DOPC   O1121888   2.323   6.543  12.466  0.6207  0.1027  0.4463
  179DOPC    C121889   2.373   6.435  12.549  0.4091 -0.1089  0.3904
  179DOPC    HA21890   2.483   6.429  12.544  0.4309  0.6413 -0.3596
  179DOPC    HB21891   2.328   6.338  12.517  0.5783  0.3967 -1.5336
  179DOPC    C221892   2.326   6.454  12.690  0.5036  0.1294 -0.3329
  179DOPC    HS21893   2.338   6.361  12.751 -0.2881  0.1575 -0.1304
  179DOPC   O2121894   2.193   6.500  12.691 -0.2916  0.2429 -0.4108
  179DOPC   C2121895   2.102   6.399  12.686  0.2753  0.4161  0.3142
  179DOPC   O2221896   2.122   6.281  12.686 -0.6515  0.1051 -0.0820
  179DOPC   C2221897   1.958   6.461  12.684  0.3602 -0.3943 -0.3086
  179DOPC   H2R21898   1.916   6.437  12.583 -1.5569 -1.0987  0.5956
  179DOPC   H2S21899   1.966   6.571  12.699  1.7282 -0.6431  0.9710
  179DOPC    C321900   2.396   6.566  12.757  0.1516 -0.0624  0.4827
  179DOPC    HX21901   2.395   6.661  12.700  0.6442 -0.4739 -0.2242
  179DOPC    HY21902   2.501   6.530  12.752  0.6492  1.2392  1.0557
  179DOPC   O3121903   2.357   6.576  12.895 -0.0404  0.0294 -0.6808
  179DOPC   C3121904   2.284   6.679  12.920  0.3340 -0.5155 -0.3815
  179DOPC   O3221905   2.224   6.744  12.834 -0.0568 -0.2908  0.0823
  179DOPC   C3221906   2.288   6.715  13.068 -0.2730 -0.0192  0.3100
  179DOPC   H2X21907   2.366   6.794  13.080 -0.2201  0.1285 -0.8847
  179DOPC   H2Y21908   2.198   6.777  13.086  0.3241  0.8640  0.3291
  179DOPC   C2321909   1.860   6.403  12.784  0.6589  0.0205  0.4034
  179DOPC   H3R21910   1.860   6.292  12.782  0.5060  0.0129  0.7336
  179DOPC   H3S21911   1.756   6.438  12.766  1.1689  0.4957 -1.9486
  179DOPC   C2421912   1.889   6.433  12.926 -0.0563  0.4519 -0.4937
  179DOPC   H4R21913   1.930   6.535  12.938 -1.5096  1.2194 -1.6604
  179DOPC   H4S21914   1.978   6.374  12.956  0.1240  0.3719 -1.1758
  179DOPC   C2521915   1.766   6.424  13.016  0.6055  0.6063 -0.6815
  179DOPC   H5R21916   1.714   6.327  13.002  1.8903  0.0008 -1.4316
  179DOPC   H5S21917   1.710   6.512  12.978 -0.5800  0.6642  1.0573
  179DOPC   C2621918   1.805   6.449  13.162 -0.0102  0.1330  0.5716
  179DOPC   H6R21919   1.717   6.482  13.222 -0.5105 -0.5011  0.1992
  179DOPC   H6S21920   1.897   6.511  13.172 -0.9624  1.4135  1.8931
  179DOPC   C2721921   1.844   6.316  13.226  0.0387 -0.2766  0.4436
  179DOPC   H7R21922   1.923   6.273  13.161  1.1605  0.7793  1.0500
  179DOPC   H7S21923   1.759   6.246  13.222  0.2593 -0.5381  0.2838
  179DOPC   C2821924   1.893   6.324  13.368 -0.1564 -0.3874 -0.9786
  179DOPC   H8R21925   1.971   6.403  13.377  1.5623 -2.0397 -0.6612
  179DOPC   H8S21926   1.950   6.236  13.405  0.3039 -0.2214 -1.2942
  179DOPC   C2921927   1.779   6.342  13.466 -0.4946 -0.2554  0.1545
  179DOPC   H9R21928   1.717   6.431  13.444  0.4953  1.6697  4.3054
  179DOPC  C21021929   1.751   6.277  13.579 -0.4441 -0.5726 -0.1967
  179DOPC  H10R21930   1.654   6.294  13.627 -2.4744 -1.8451 -3.5022
  179DOPC  C21121931   1.815   6.154  13.632  0.1370 -0.2836  0.6028
  179DOPC  H11R21932   1.889   6.104  13.566 -1.0724 -0.3055 -0.7856
  179DOPC  H11S21933   1.733   6.081  13.650  0.7654 -0.7277  1.7482
  179DOPC  C21221934   1.879   6.165  13.773 -0.1035  0.4257 -0.1799
  179DOPC  H12R21935   1.966   6.234  13.761  0.5149 -0.2713  0.1984
  179DOPC  H12S21936   1.928   6.069  13.800 -0.7719  0.4402  1.1389
  179DOPC  C21321937   1.782   6.219  13.885 -0.4944  0.3241  0.8125
  179DOPC  H13R21938   1.702   6.143  13.895  1.2112 -1.5464  0.7537
  179DOPC  H13S21939   1.744   6.322  13.864  0.0021  0.5220  0.8503
  179DOPC  C21421940   1.841   6.218  14.026  0.3019  0.1070  0.7979
  179DOPC  H14R21941   1.938   6.271  14.014  0.6485 -0.2716  1.8099
  179DOPC  H14S21942   1.860   6.112  14.050 -1.9485 -1.1729 -2.3440
  179DOPC  C21521943   1.755   6.279  14.137  0.1785 -0.4541  0.0915
  179DOPC  H15R21944   1.657   6.227  14.127  0.3325 -0.3748 -2.3075
  179DOPC  H15S21945   1.737   6.388  14.128  0.8087 -0.2483  1.1825
  179DOPC  C21621946   1.826   6.245  14.267 -0.3516  0.1765 -0.8683
  179DOPC  H16R21947   1.926   6.293  14.259 -0.5459  0.5953 -0.8059
  179DOPC  H16S21948   1.849   6.136  14.263  0.8174  0.3049  1.0388
  179DOPC  C21721949   1.752   6.288  14.393  0.1578 -0.2747 -0.7840
  179DOPC  H17R21950   1.654   6.235  14.393 -0.1352  0.1870 -2.9354
  179DOPC  H17S21951   1.731   6.397  14.388  4.2327  0.5836 -2.1124
  179DOPC  C21821952   1.826   6.266  14.525  0.8246 -0.5279  0.0033
  179DOPC  H18R21953   1.925   6.317  14.530  0.5041  0.2678 -1.2917
  179DOPC  H18S21954   1.835   6.156  14.533 -1.1570 -0.9204 -2.0493
  179DOPC  H18T21955   1.761   6.299  14.608  0.8818  0.3467 -0.2924
  179DOPC   C3321956   2.325   6.604  13.165  0.4506  0.6660 -0.6358
  179DOPC   H3X21957   2.427   6.560  13.171 -0.3634 -1.4276 -1.0648
  179DOPC   H3Y21958   2.254   6.520  13.152 -0.9344  1.0743  3.1766
  179DOPC   C3421959   2.304   6.649  13.308  0.3093  0.2411 -0.3627
  179DOPC   H4X21960   2.197   6.674  13.321  0.4079  0.4516  0.0549
  179DOPC   H4Y21961   2.361   6.744  13.314  0.3390  0.2929 -1.2667
  179DOPC   C3521962   2.330   6.555  13.429 -0.1755  0.4508  0.2392
  179DOPC   H5X21963   2.440   6.547  13.413 -0.5277 -1.0298 -1.9540
  179DOPC   H5Y21964   2.286   6.453  13.433  0.2178  0.2430 -0.4490
  179DOPC   C3621965   2.301   6.628  13.562  1.0905 -0.6213 -0.5269
  179DOPC   H6X21966   2.349   6.727  13.570  0.3923 -0.2900 -0.3468
  179DOPC   H6Y21967   2.193   6.651  13.572  1.4762  0.6131  1.1728
  179DOPC   C3721968   2.349   6.544  13.683 -0.2279  0.7840 -0.2182
  179DOPC   H7X21969   2.315   6.439  13.668  1.3640  0.2839 -0.5092
  179DOPC   H7Y21970   2.458   6.528  13.666 -0.2262 -0.8509  1.0711
  179DOPC   C3821971   2.320   6.593  13.826 -0.1921 -0.1010 -0.1106
  179DOPC   H8X21972   2.352   6.699  13.810 -0.2015 -0.1546 -0.5071
  179DOPC   H8Y21973   2.392   6.539  13.890 -1.7915 -2.7150 -0.3990
  179DOPC   C3921974   2.171   6.574  13.847  0.0193  0.0817 -0.0593
  179DOPC   H9X21975   2.104   6.587  13.761  0.4973 -2.4324 -0.9135
  179DOPC  C31021976   2.115   6.509  13.952  0.6007 -0.4579  0.8084
  179DOPC  H10X21977   2.009   6.478  13.955  0.0203  1.3737  0.3900
  179DOPC  C31121978   2.199   6.467  14.078  0.3407 -0.3286  0.8260
  179DOPC  H11X21979   2.284   6.403  14.048  0.9123  0.4882  0.6788
  179DOPC  H11Y21980   2.143   6.402  14.148 -1.1273  0.6868  0.6501
  179DOPC  C31221981   2.252   6.582  14.173 -0.3368  1.3756 -0.1194
  179DOPC  H12X21982   2.319   6.635  14.103 -0.7857 -1.0419 -2.5546
  179DOPC  H12Y21983   2.313   6.534  14.253 -0.4809  1.6844  0.1799
  179DOPC  C31321984   2.134   6.667  14.230 -0.6942 -0.7157 -0.0819
  179DOPC  H13X21985   2.073   6.717  14.152 -0.8530 -0.3327  0.2859
  179DOPC  H13Y21986   2.071   6.602  14.294 -0.3796 -1.1653 -0.2235
  179DOPC  C31421987   2.176   6.777  14.327 -0.1819  0.0684 -0.2582
  179DOPC  H14X21988   2.223   6.855  14.263 -0.2627  0.8906  0.6514
  179DOPC  H14Y21989   2.084   6.827  14.366 -0.2909  1.6997 -2.4004
  179DOPC  C31521990   2.278   6.735  14.444  0.2823  0.0756 -0.2693
  179DOPC  H15X21991   2.322   6.826  14.490 -1.1568 -0.2650  1.9414
  179DOPC  H15Y21992   2.367   6.684  14.399  0.8000  0.5480  0.2026
  179DOPC  C31621993   2.218   6.643  14.554 -0.2775 -0.3208  1.1634
  179DOPC  H16X21994   2.156   6.703  14.624  0.4896 -0.4917  2.0043
  179DOPC  H16Y21995   2.172   6.551  14.512  2.2710 -0.7271 -0.9851
  179DOPC  C31721996   2.335   6.593  14.643 -0.3684  0.0007  0.0317
  179DOPC  H17X21997   2.408   6.538  14.580 -1.3686 -1.3787  0.0175
  179DOPC  H17Y21998   2.390   6.677  14.689  1.7469 -2.5946  2.6389
  179DOPC  C31821999   2.279   6.499  14.754  0.2437  0.5234  0.6698
  179DOPC  H18X22000   2.366   6.450  14.803  0.3834 -0.8400 -0.8758
  179DOPC  H18Y22001   2.220   6.561  14.826  1.6117  1.5656  0.9276
  179DOPC  H18Z22002   2.226   6.409  14.715  0.7230 -0.0638  1.3358
  180DOPC     N22003   1.157   4.261  12.599  0.0417  0.4210 -0.2689
  180DOPC   C1222004   1.214   4.395  12.620 -0.4036 -0.2467 -0.8511
  180DOPC  H12A22005   1.150   4.475  12.587  2.1847  1.6902 -1.4367
  180DOPC  H12B22006   1.299   4.405  12.555  0.0035 -2.3002 -0.7117
  180DOPC   C1322007   1.058   4.214  12.693  0.1965  0.5659 -0.2738
  180DOPC  H13A22008   1.026   4.113  12.670 -0.9561  0.5004  1.4274
  180DOPC  H13B22009   1.086   4.223  12.797  1.5851  2.0438 -0.7293
  180DOPC  H13C22010   0.966   4.271  12.691 -0.3642 -0.3376 -1.6142
  180DOPC   C1422011   1.259   4.155  12.581  0.2759  0.0420  0.2808
  180DOPC  H14A22012   1.301   4.127  12.676  0.5723 -0.4793  0.0022
  180DOPC  H14B22013   1.206   4.068  12.544  2.6474 -1.2297 -0.3559
  180DOPC  H14C22014   1.328   4.190  12.506  1.1189  1.3552  1.6107
  180DOPC   C1522015   1.080   4.268  12.465  0.0786  0.2034 -0.8292
  180DOPC  H15A22016   1.150   4.302  12.390 -0.1783  2.2297 -0.1961
  180DOPC  H15B22017   1.003   4.343  12.471  0.1135  0.1391  3.5212
  180DOPC  H15C22018   1.031   4.174  12.442 -0.9673  0.6912 -0.6514
  180DOPC   C1122019   1.263   4.426  12.761  0.1165  0.2366 -0.0086
  180DOPC  H11A22020   1.321   4.333  12.782 -1.7440 -0.8724  0.5407
  180DOPC  H11B22021   1.325   4.518  12.763 -0.8924  0.9346  1.5622
  180DOPC     P22022   1.074   4.577  12.878 -0.1289  0.2766 -0.2616
  180DOPC   O1322023   0.955   4.574  12.786  1.1880  0.2797  0.1071
  180DOPC   O1422024   1.170   4.688  12.863  0.3117  0.1634 -0.1976
  180DOPC   O1222025   1.159   4.434  12.858  0.1209  0.7637 -0.1343
  180DOPC   O1122026   1.027   4.562  13.027  0.2650 -0.1431  0.0558
  180DOPC    C122027   1.139   4.560  13.125  0.1996 -0.5181  0.1903
  180DOPC    HA22028   1.181   4.663  13.124  1.3372 -0.9739 -0.1692
  180DOPC    HB22029   1.223   4.491  13.102  0.7721 -0.4181  1.8668
  180DOPC    C222030   1.095   4.532  13.271  0.0250 -0.2074 -0.5763
  180DOPC    HS22031   1.180   4.561  13.337 -0.9186  3.3413 -0.7432
  180DOPC   O2122032   1.056   4.401  13.287  0.1012  0.7603 -0.5475
  180DOPC   C2122033   1.062   4.356  13.413 -0.3742  0.3282  0.5598
  180DOPC   O2222034   1.083   4.421  13.510 -0.4159  0.1612  0.2260
  180DOPC   C2222035   1.028   4.204  13.417 -0.5588 -0.5070  0.1952
  180DOPC   H2R22036   1.108   4.153  13.359  0.5745  1.1581  0.2105
  180DOPC   H2S22037   0.931   4.187  13.365 -0.3920  1.1054 -0.7254
  180DOPC    C322038   0.987   4.634  13.314  0.0589 -0.0156 -0.2447
  180DOPC    HX22039   0.947   4.594  13.410  0.7945 -1.2918 -0.4524
  180DOPC    HY22040   0.900   4.621  13.246  0.1365 -0.5565 -0.2521
  180DOPC   O3122041   1.034   4.769  13.309  0.2640  0.1894  0.3702
  180DOPC   C3122042   0.984   4.844  13.403 -0.7908  0.0226 -0.0242
  180DOPC   O3222043   0.909   4.806  13.496 -0.6969 -0.1994  0.3673
  180DOPC   C3222044   1.016   4.993  13.376 -0.3691 -0.1733  0.3789
  180DOPC   H2X22045   1.096   4.992  13.298 -0.4817  1.1432  0.2313
  180DOPC   H2Y22046   0.921   5.038  13.339  0.1636 -0.7148 -1.7889
  180DOPC   C2322047   1.015   4.145  13.556 -0.0330  0.9484  0.7815
  180DOPC   H3R22048   0.957   4.215  13.620  0.1494  1.8349 -0.0146
  180DOPC   H3S22049   1.120   4.143  13.594  1.8504 -0.7024 -3.8267
  180DOPC   C2422050   0.960   4.000  13.566 -0.8272  0.1197 -1.4374
  180DOPC   H4R22051   1.006   3.939  13.486  0.3476  1.3700 -1.7506
  180DOPC   H4S22052   0.853   4.024  13.549 -1.0907  0.2483  0.2256
  180DOPC   C2522053   0.991   3.947  13.707  0.1589 -0.1231 -0.0158
  180DOPC   H5R22054   1.101   3.936  13.703 -0.0465 -2.5862 -0.7887
  180DOPC   H5S22055   0.956   3.841  13.709 -3.6133  0.9541 -0.0715
  180DOPC   C2622056   0.942   4.031  13.823 -0.0964 -0.5344  0.2885
  180DOPC   H6R22057   0.832   4.037  13.838  0.1977 -1.0860  3.3564
  180DOPC   H6S22058   0.981   4.135  13.816  1.4575 -1.1488 -0.7332
  180DOPC   C2722059   0.977   3.965  13.965 -0.2892  0.1019 -0.0053
  180DOPC   H7R22060   1.078   3.920  13.954 -1.2421 -2.1318 -0.0886
  180DOPC   H7S22061   0.911   3.876  13.966 -2.3163  1.5434  1.5128
  180DOPC   C2822062   0.977   4.055  14.079  0.0305 -0.0420 -0.2379
  180DOPC   H8R22063   1.029   4.150  14.053  0.5324  0.2426  1.7037
  180DOPC   H8S22064   1.043   4.014  14.159 -0.0976  2.5737  1.2952
  180DOPC   C2922065   0.841   4.086  14.135 -0.1558 -0.2577  0.8160
  180DOPC   H9R22066   0.779   4.145  14.066 -0.0874 -0.2163  0.7905
  180DOPC  C21022067   0.797   4.049  14.252 -0.0464 -0.2127  0.5039
  180DOPC  H10R22068   0.692   4.072  14.274 -0.4953 -2.0173  0.3991
  180DOPC  C21122069   0.876   3.983  14.364 -0.1165  0.4714  0.4106
  180DOPC  H11R22070   0.950   4.056  14.403  0.4117  0.2350 -0.1409
  180DOPC  H11S22071   0.937   3.908  14.310  1.3277 -0.1484  2.7558
  180DOPC  C21222072   0.787   3.931  14.477  0.1504 -1.1877  0.5943
  180DOPC  H12R22073   0.712   3.857  14.441 -3.3445  1.6774  1.4833
  180DOPC  H12S22074   0.722   4.018  14.499  0.2446  0.0149 -3.0894
  180DOPC  C21322075   0.868   3.887  14.590 -0.0814 -0.0805 -0.1583
  180DOPC  H13R22076   0.888   3.976  14.653 -1.1221  0.7925 -1.0238
  180DOPC  H13S22077   0.963   3.840  14.556 -0.2303 -0.9586  0.5880
  180DOPC  C21422078   0.784   3.777  14.664 -0.2050 -0.3540  0.0316
  180DOPC  H14R22079   0.756   3.692  14.597 -2.1562  1.5610 -1.7527
  180DOPC  H14S22080   0.685   3.821  14.687  0.9594  2.9271 -0.7341
  180DOPC  C21522081   0.844   3.719  14.790 -0.0842  0.3060  0.3335
  180DOPC  H15R22082   0.854   3.799  14.866  1.6253 -0.4531  0.9570
  180DOPC  H15S22083   0.948   3.683  14.773 -0.1615  0.8189 -1.5827
  180DOPC  C21622084   0.745   3.627  14.856 -0.5427  0.2686 -0.4985
  180DOPC  H16R22085   0.732   3.539  14.790  0.4598 -1.4690  1.5074
  180DOPC  H16S22086   0.645   3.676  14.858  0.5674  2.7645 -1.3066
  180DOPC  C21722087   0.779   3.581  15.001 -0.2792 -0.9092 -0.0381
  180DOPC  H17R22088   0.827   3.658  15.065  0.0135 -0.4011 -0.8646
  180DOPC  H17S22089   0.863   3.511  14.982  0.1977 -0.1419 -0.8103
  180DOPC  C21822090   0.662   3.517  15.076  0.3936  0.2465  0.2703
  180DOPC  H18R22091   0.695   3.468  15.170  1.3695  0.3140 -0.0346
  180DOPC  H18S22092   0.617   3.439  15.011  1.2328 -0.4290  0.4844
  180DOPC  H18T22093   0.588   3.596  15.101 -0.6231 -0.7327  0.4750
  180DOPC   C3322094   1.047   5.075  13.505 -0.0829 -0.0512 -0.2538
  180DOPC   H3X22095   0.965   5.046  13.573 -0.1365 -0.1571 -0.3634
  180DOPC   H3Y22096   1.045   5.181  13.474  1.7410  0.2313  0.4982
  180DOPC   C3422097   1.183   5.045  13.549 -0.0246  0.5694  0.7016
  180DOPC   H4X22098   1.257   5.059  13.468  0.8251 -1.4003  1.0749
  180DOPC   H4Y22099   1.194   4.935  13.565  0.2995  0.3507 -0.9085
  180DOPC   C3522100   1.228   5.118  13.672  0.3440 -0.3994 -0.2982
  180DOPC   H5X22101   1.254   5.219  13.634 -2.1545 -0.2412 -1.8051
  180DOPC   H5Y22102   1.324   5.079  13.710 -0.0526  0.4960  1.7959
  180DOPC   C3622103   1.126   5.127  13.790 -0.7182 -0.2106 -0.5837
  180DOPC   H6X22104   1.037   5.188  13.763 -0.0313  1.2483  0.3030
  180DOPC   H6Y22105   1.097   5.025  13.822  0.0122 -0.1937  0.1494
  180DOPC   C3722106   1.176   5.188  13.920  0.1008  0.3527 -0.5862
  180DOPC   H7X22107   1.204   5.296  13.915  2.5509 -0.2259 -0.1227
  180DOPC   H7Y22108   1.093   5.183  13.994 -0.4938  1.0508 -1.1875
  180DOPC   C3822109   1.306   5.133  13.973  0.1602 -0.2703 -0.1811
  180DOPC   H8X22110   1.331   5.187  14.067 -2.3363  3.7326 -1.5747
  180DOPC   H8Y22111   1.397   5.140  13.909  0.7677 -3.3576  0.2001
  180DOPC   C3922112   1.291   4.990  14.001  0.1974 -0.0198 -0.1887
  180DOPC   H9X22113   1.329   4.922  13.924  2.5186  0.3730  0.5253
  180DOPC  C31022114   1.257   4.932  14.118  0.3085  0.4512 -0.0865
  180DOPC  H10X22115   1.253   4.822  14.127 -0.6604  0.4299 -0.5911
  180DOPC  C31122116   1.205   5.015  14.238 -0.4857 -0.3371 -0.7421
  180DOPC  H11X22117   1.129   4.951  14.288 -1.1367  1.1302  0.1953
  180DOPC  H11Y22118   1.155   5.112  14.222 -2.9776 -0.7332  3.3637
  180DOPC  C31222119   1.310   5.028  14.353  0.0175 -0.1752 -0.9689
  180DOPC  H12X22120   1.393   5.091  14.316 -0.0240 -0.5081 -1.6448
  180DOPC  H12Y22121   1.359   4.933  14.385  0.7181  0.9346  1.4821
  180DOPC  C31322122   1.263   5.102  14.480  0.1930  0.3433  0.0585
  180DOPC  H13X22123   1.345   5.141  14.544 -0.1422 -0.2948  0.9065
  180DOPC  H13Y22124   1.187   5.178  14.454 -0.2341  0.2346  0.9699
  180DOPC  C31422125   1.198   5.001  14.573  0.0914  0.1214 -0.5949
  180DOPC  H14X22126   1.122   4.941  14.519 -1.3871  1.6073 -0.2781
  180DOPC  H14Y22127   1.277   4.931  14.607  0.5469  0.0138 -1.8269
  180DOPC  C31522128   1.132   5.068  14.699  0.4066 -0.6225  0.4428
  180DOPC  H15X22129   1.195   5.149  14.741 -0.8687  1.6238 -1.7182
  180DOPC  H15Y22130   1.128   4.987  14.775 -1.4271 -0.3979  0.6114
  180DOPC  C31622131   0.997   5.132  14.683 -0.3126  0.1971  0.1264
  180DOPC  H16X22132   0.987   5.189  14.588  1.6895  1.2525  0.5038
  180DOPC  H16Y22133   0.916   5.057  14.675  0.2161 -0.3176 -0.5078
  180DOPC  C31722134   0.966   5.233  14.791 -1.1960  0.4486 -0.1037
  180DOPC  H17X22135   0.989   5.180  14.886  0.5409 -0.4463 -0.9594
  180DOPC  H17Y22136   1.042   5.314  14.783 -0.5777 -0.2888 -2.8915
  180DOPC  C31822137   0.829   5.308  14.791 -0.2922 -0.0337 -0.4013
  180DOPC  H18X22138   0.744   5.236  14.788  2.1857 -3.1658 -2.1366
  180DOPC  H18Y22139   0.813   5.367  14.884  0.1255 -0.5923  0.0405
  180DOPC  H18Z22140   0.825   5.380  14.707  1.1971  0.5522  0.0023
  181DOPC     N22141   2.497   2.971  12.462 -0.0808  0.1422 -0.0731
  181DOPC   C1222142   2.445   3.080  12.557  0.0636  0.8795  0.1044
  181DOPC  H12A22143   2.352   3.034  12.587  1.5453 -1.9295  0.6652
  181DOPC  H12B22144   2.425   3.175  12.509  0.4408 -0.2252 -2.4083
  181DOPC   C1322145   2.632   3.000  12.404 -0.2567 -0.6873 -0.2885
  181DOPC  H13A22146   2.707   3.012  12.479  0.8041 -4.0349 -0.6234
  181DOPC  H13B22147   2.681   2.916  12.356  1.2169 -0.0701  0.0876
  181DOPC  H13C22148   2.629   3.083  12.334  0.7158 -0.6478 -0.2857
  181DOPC   C1422149   2.402   2.959  12.347 -0.5077 -0.0193  0.1393
  181DOPC  H14A22150   2.304   2.927  12.379  0.0970 -0.4817  1.6142
  181DOPC  H14B22151   2.400   3.047  12.283  0.6253 -2.1747 -3.1056
  181DOPC  H14C22152   2.448   2.890  12.278  0.8720  0.5082  0.5031
  181DOPC   C1522153   2.502   2.833  12.530 -0.0754  0.2250 -0.0027
  181DOPC  H15A22154   2.502   2.756  12.454 -2.3404  0.3990 -0.2567
  181DOPC  H15B22155   2.403   2.818  12.570  0.1355 -1.2709  0.0086
  181DOPC  H15C22156   2.575   2.824  12.609 -0.8498  2.7558  1.1158
  181DOPC   C1122157   2.526   3.115  12.693  0.0418  0.3192  0.4836
  181DOPC  H11A22158   2.454   3.173  12.755 -1.1761  0.6967 -1.1880
  181DOPC  H11B22159   2.532   3.014  12.738 -0.2272 -0.0511 -0.2952
  181DOPC     P22160   2.650   3.322  12.620  0.9559  0.2836 -0.4615
  181DOPC   O1322161   2.510   3.367  12.589  0.4634 -0.3178 -0.9513
  181DOPC   O1422162   2.757   3.338  12.522  0.3110  0.0048  0.4915
  181DOPC   O1222163   2.646   3.172  12.675 -0.5816  0.3131 -0.4714
  181DOPC   O1122164   2.685   3.416  12.746  0.3328 -0.2908  0.2011
  181DOPC    C122165   2.765   3.354  12.853  0.6488 -0.6220 -0.0388
  181DOPC    HA22166   2.834   3.437  12.880  0.4600 -0.3175 -0.4798
  181DOPC    HB22167   2.810   3.258  12.821  1.2104 -0.1648 -0.6630
  181DOPC    C222168   2.685   3.341  12.980 -0.3598  0.5183  0.0039
  181DOPC    HS22169   2.760   3.344  13.061  0.0716  2.2595 -0.4127
  181DOPC   O2122170   2.617   3.224  12.978 -0.2501  0.3834 -0.1174
  181DOPC   C2122171   2.598   3.158  13.091 -0.5501 -0.0315 -0.3683
  181DOPC   O2222172   2.638   3.190  13.202  0.4735 -0.0833 -0.2813
  181DOPC   C2222173   2.534   3.025  13.057  0.5666  0.7273  0.0771
  181DOPC   H2R22174   2.574   3.002  12.955  2.1766  4.5002 -0.3309
  181DOPC   H2S22175   2.425   3.046  13.054  1.1444  4.5342  1.2401
  181DOPC    C322176   2.584   3.453  13.017 -0.1978 -0.4119 -0.4926
  181DOPC    HX22177   2.510   3.461  12.935  0.6928  0.7672 -1.2273
  181DOPC    HY22178   2.651   3.542  13.012  0.5105 -0.9984 -2.1063
  181DOPC   O3122179   2.515   3.438  13.141  0.2630  0.4502  0.2329
  181DOPC   C3122180   2.575   3.500  13.240 -0.2461 -0.4678 -0.0549
  181DOPC   O3222181   2.687   3.533  13.246 -0.5017 -0.0525 -0.0567
  181DOPC   C3222182   2.464   3.538  13.345 -0.8322 -0.0457 -0.4220
  181DOPC   H2X22183   2.381   3.586  13.289 -1.3587  1.4497  1.5449
  181DOPC   H2Y22184   2.431   3.437  13.379 -1.3650 -0.4403 -2.0242
  181DOPC   C2322185   2.558   2.912  13.153 -0.0092  0.0127  0.7139
  181DOPC   H3R22186   2.668   2.902  13.170  0.1804  0.6543 -0.0607
  181DOPC   H3S22187   2.527   2.817  13.105  0.9337  0.0802 -0.0699
  181DOPC   C2422188   2.482   2.928  13.285 -0.5816  0.2455 -0.2241
  181DOPC   H4R22189   2.498   3.030  13.326 -2.7379  0.4872  0.1442
  181DOPC   H4S22190   2.517   2.856  13.362 -3.4620 -1.2651 -0.1722
  181DOPC   C2522191   2.330   2.896  13.266 -0.2060 -0.0743  0.4586
  181DOPC   H5R22192   2.329   2.807  13.200 -2.5221  0.5120 -0.3974
  181DOPC   H5S22193   2.276   2.969  13.202 -1.9190 -1.6648  0.0012
  181DOPC   C2622194   2.244   2.883  13.388 -0.4972 -0.4332 -0.2101
  181DOPC   H6R22195   2.232   2.982  13.436  0.3061  0.0550 -0.9927
  181DOPC   H6S22196   2.283   2.799  13.450 -0.5804  1.1394  2.0790
  181DOPC   C2722197   2.103   2.828  13.355  0.3413 -0.6218  0.8786
  181DOPC   H7R22198   2.121   2.751  13.277  0.6988 -0.8871  1.2168
  181DOPC   H7S22199   2.043   2.902  13.298 -0.1149 -0.4431  1.5795
  181DOPC   C2822200   2.022   2.780  13.476 -0.1101  0.4042  0.0209
  181DOPC   H8R22201   2.081   2.715  13.544  2.9754  0.9305 -2.0031
  181DOPC   H8S22202   1.933   2.728  13.435 -0.2283  0.6271 -0.0087
  181DOPC   C2922203   1.952   2.895  13.544  0.2272 -0.7394  0.2698
  181DOPC   H9R22204   1.942   2.986  13.483  0.6426 -0.5697  0.4469
  181DOPC  C21022205   1.907   2.898  13.672 -0.0771  0.6919 -0.4171
  181DOPC  H10R22206   1.884   2.997  13.715 -0.1541  0.3802  0.2630
  181DOPC  C21122207   1.914   2.791  13.777  0.0390  0.0339  0.7335
  181DOPC  H11R22208   2.017   2.750  13.785 -0.5179 -1.3704  1.0435
  181DOPC  H11S22209   1.854   2.703  13.745  2.6789 -1.0987 -1.6330
  181DOPC  C21222210   1.884   2.827  13.922 -0.1447 -0.2165  0.3606
  181DOPC  H12R22211   1.947   2.915  13.947  0.6569 -0.6925  0.0474
  181DOPC  H12S22212   1.912   2.739  13.985 -0.0985 -0.3045  0.2168
  181DOPC  C21322213   1.739   2.881  13.951 -0.2930 -0.6311 -0.1570
  181DOPC  H13R22214   1.669   2.797  13.934  1.0032 -1.2077 -3.3064
  181DOPC  H13S22215   1.721   2.945  13.863 -0.6644 -1.6987 -0.8733
  181DOPC  C21422216   1.722   2.965  14.082 -0.4204  0.7231 -0.2342
  181DOPC  H14R22217   1.633   3.031  14.071 -1.8060 -1.2491 -1.7161
  181DOPC  H14S22218   1.816   3.023  14.094  1.2609 -2.3055  2.8882
  181DOPC  C21522219   1.695   2.882  14.210 -0.2263  0.1294 -0.3480
  181DOPC  H15R22220   1.623   2.801  14.184 -2.8995  1.7994  1.3616
  181DOPC  H15S22221   1.658   2.947  14.293  1.8649 -0.5725  1.2183
  181DOPC  C21622222   1.828   2.824  14.261 -0.2342  0.5095 -0.7100
  181DOPC  H16R22223   1.899   2.902  14.296 -0.7739  0.6966 -0.0084
  181DOPC  H16S22224   1.877   2.758  14.186 -1.4689 -1.4635  0.1206
  181DOPC  C21722225   1.796   2.739  14.383  0.6979  0.2151 -1.3315
  181DOPC  H17R22226   1.731   2.651  14.365 -1.7712  0.5835  3.9144
  181DOPC  H17S22227   1.751   2.810  14.456  1.0587  0.1170 -1.0166
  181DOPC  C21822228   1.911   2.680  14.464  0.0639  0.4174  0.1298
  181DOPC  H18R22229   1.976   2.627  14.390  2.0703  0.4312  1.7706
  181DOPC  H18S22230   1.869   2.608  14.537 -1.1747  2.1171  1.1494
  181DOPC  H18T22231   1.968   2.759  14.518 -2.9340  2.6256  0.2855
  181DOPC   C3322232   2.513   3.622  13.465 -0.3510 -0.0647 -0.0042
  181DOPC   H3X22233   2.548   3.723  13.434  0.3510 -0.7051 -1.3937
  181DOPC   H3Y22234   2.608   3.580  13.504 -1.6604 -0.1356  3.5622
  181DOPC   C3422235   2.418   3.605  13.582  0.0830  0.2890 -0.7214
  181DOPC   H4X22236   2.410   3.496  13.602 -0.1109  0.4315  0.0274
  181DOPC   H4Y22237   2.315   3.641  13.557 -0.2632 -1.3669 -1.8095
  181DOPC   C3522238   2.482   3.670  13.702  0.3362 -1.2883  0.1559
  181DOPC   H5X22239   2.463   3.779  13.700  0.2094 -1.3117 -0.0037
  181DOPC   H5Y22240   2.591   3.654  13.714  0.5348  0.0148  0.2285
  181DOPC   C3622241   2.417   3.626  13.832 -0.0273 -0.6418  0.0222
  181DOPC   H6X22242   2.307   3.616  13.821 -1.1291  4.7999  2.5054
  181DOPC   H6Y22243   2.456   3.529  13.869 -0.6733 -0.0238  2.5387
  181DOPC   C3722244   2.433   3.742  13.941 -0.1865  0.4233 -0.5685
  181DOPC   H7X22245   2.538   3.779  13.940  1.4220 -3.6847 -0.4661
  181DOPC   H7Y22246   2.371   3.829  13.912 -0.5714 -0.8412 -3.9608
  181DOPC   C3822247   2.392   3.688  14.079  0.0979 -0.1109 -0.2241
  181DOPC   H8X22248   2.450   3.598  14.109 -0.3600 -0.2083  0.3974
  181DOPC   H8Y22249   2.283   3.666  14.074  0.0254 -1.3062  3.3880
  181DOPC   C3922250   2.433   3.796  14.181  0.5992 -0.1720 -0.0332
  181DOPC   H9X22251   2.506   3.867  14.139  0.6718 -1.0935 -1.5152
  181DOPC  C31022252   2.380   3.822  14.301  0.3237  0.0522  0.1145
  181DOPC  H10X22253   2.420   3.895  14.373 -0.2862 -0.7955  1.3547
  181DOPC  C31122254   2.253   3.755  14.351  0.1768 -0.1889 -0.2477
  181DOPC  H11X22255   2.187   3.694  14.286 -1.3269 -1.7774  2.6221
  181DOPC  H11Y22256   2.184   3.830  14.396 -0.7104 -0.9860 -0.2573
  181DOPC  C31222257   2.284   3.653  14.460  0.6569  0.3586  0.0438
  181DOPC  H12X22258   2.381   3.679  14.507  1.4083 -0.5967 -0.9266
  181DOPC  H12Y22259   2.306   3.553  14.417  1.3803  0.1482  0.8971
  181DOPC  C31322260   2.166   3.637  14.564 -0.0014 -0.1448  0.1766
  181DOPC  H13X22261   2.139   3.733  14.614  2.3994 -0.4733  2.3373
  181DOPC  H13Y22262   2.073   3.605  14.512 -0.8364 -0.6395  1.8865
  181DOPC  C31422263   2.202   3.532  14.678 -0.0523 -0.4267 -0.2095
  181DOPC  H14X22264   2.111   3.507  14.736 -0.7456  3.2140  0.5080
  181DOPC  H14Y22265   2.233   3.439  14.626  0.3128 -0.0839 -0.6262
  181DOPC  C31522266   2.310   3.580  14.774  0.0563  0.6311 -0.1174
  181DOPC  H15X22267   2.281   3.660  14.845  0.7799 -0.5999  1.6321
  181DOPC  H15Y22268   2.393   3.619  14.712  0.2875 -0.8619 -0.7998
  181DOPC  C31622269   2.387   3.471  14.849 -0.7045 -0.1221 -0.2772
  181DOPC  H16X22270   2.428   3.399  14.774 -0.3235 -1.2547  0.9801
  181DOPC  H16Y22271   2.480   3.522  14.881  0.8179 -1.1459 -2.7104
  181DOPC  C31722272   2.308   3.398  14.963 -0.5289 -0.5532 -0.7370
  181DOPC  H17X22273   2.286   3.468  15.047  0.3897 -3.3801  2.0899
  181DOPC  H17Y22274   2.212   3.370  14.916 -0.2171  0.6724 -2.1893
  181DOPC  C31822275   2.394   3.280  15.005  0.4458 -0.2044  0.6193
  181DOPC  H18X22276   2.464   3.322  15.080 -1.0515  1.9429  0.9262
  181DOPC  H18Y22277   2.332   3.213  15.068  0.3359 -1.2447 -0.5606
  181DOPC  H18Z22278   2.450   3.230  14.923  0.6704  0.3016  0.4563
  182DOPC     N22279   4.774   3.825  12.652  0.3732  0.7387 -0.3586
  182DOPC   C1222280   4.831   3.726  12.756  0.3009 -0.2632  0.3380
  182DOPC  H12A22281   4.923   3.765  12.797  0.4853 -2.7059  2.4515
  182DOPC  H12B22282   4.866   3.636  12.707  0.1445 -0.1698  0.0451
  182DOPC   C1322283   4.645   3.785  12.585  0.1503 -0.0474  0.4051
  182DOPC  H13A22284   4.572   3.751  12.657 -0.2267 -0.4593 -0.1675
  182DOPC  H13B22285   4.600   3.860  12.522 -0.2771  0.8778  1.7800
  182DOPC  H13C22286   4.657   3.704  12.514  0.9029  0.4520 -0.0470
  182DOPC   C1422287   4.875   3.851  12.543  0.1565 -0.2354  0.3963
  182DOPC  H14A22288   4.821   3.917  12.477 -3.3210 -1.6778  1.5428
  182DOPC  H14B22289   4.965   3.894  12.584 -1.1335  2.0672  0.9829
  182DOPC  H14C22290   4.895   3.763  12.484  0.4469 -0.1108  0.3089
  182DOPC   C1522291   4.752   3.954  12.723 -0.1665  0.4848  0.6188
  182DOPC  H15A22292   4.680   3.933  12.800 -1.9580 -5.0220 -2.0547
  182DOPC  H15B22293   4.703   4.019  12.652 -1.9069 -0.9875  0.4060
  182DOPC  H15C22294   4.844   4.002  12.755 -0.5194  0.4125  1.7646
  182DOPC   C1122295   4.743   3.684  12.870  0.5226 -0.6391 -0.5385
  182DOPC  H11A22296   4.800   3.606  12.925  1.7472  0.2286 -0.5444
  182DOPC  H11B22297   4.711   3.763  12.941  0.7581 -0.3455 -0.7532
  182DOPC     P22298   4.582   3.472  12.822 -0.4111 -0.1887  0.2603
  182DOPC   O1322299   4.677   3.411  12.721  0.2905  0.3487 -0.2987
  182DOPC   O1422300   4.436   3.448  12.800 -0.1241 -0.3734  0.3414
  182DOPC   O1222301   4.619   3.625  12.822  0.2485  0.3133 -0.2208
  182DOPC   O1122302   4.629   3.436  12.964 -0.4207  0.3462  0.3515
  182DOPC    C122303   4.712   3.327  13.002  0.8013 -0.2316  0.1495
  182DOPC    HA22304   4.780   3.356  13.084 -0.6003 -2.4184  2.2252
  182DOPC    HB22305   4.771   3.281  12.921 -1.1086  0.2586 -1.6173
  182DOPC    C222306   4.622   3.210  13.051  0.6023 -0.2759  0.3596
  182DOPC    HS22307   4.544   3.183  12.976 -1.9793  1.5493  2.1862
  182DOPC   O2122308   4.558   3.254  13.175 -0.3498  0.0896  0.1916
  182DOPC   C2122309   4.439   3.205  13.201 -0.4696 -0.4184  0.2377
  182DOPC   O2222310   4.387   3.107  13.148 -0.7885 -0.0365  0.0086
  182DOPC   C2222311   4.377   3.291  13.317  0.4656 -0.0670  0.1043
  182DOPC   H2R22312   4.336   3.377  13.261  0.5190  0.3154  0.6464
  182DOPC   H2S22313   4.460   3.333  13.377  0.6742  0.3949 -0.4991
  182DOPC    C322314   4.719   3.096  13.086  0.7126  0.4854 -0.6134
  182DOPC    HX22315   4.791   3.153  13.148  1.9640  1.0982 -2.5204
  182DOPC    HY22316   4.764   3.064  12.989 -1.1301  0.2660 -1.4443
  182DOPC   O3122317   4.648   2.992  13.161  0.2429 -0.3255  0.4950
  182DOPC   C3122318   4.633   2.878  13.087  0.1814 -0.6723  0.6564
  182DOPC   O3222319   4.695   2.845  12.987  0.0478 -0.1136  0.2824
  182DOPC   C3222320   4.516   2.798  13.150  0.3339  0.5600  0.4589
  182DOPC   H2X22321   4.490   2.850  13.245 -1.4188  0.9736 -0.2099
  182DOPC   H2Y22322   4.430   2.811  13.082 -1.5009 -1.4253  2.2713
  182DOPC   C2322323   4.280   3.226  13.415 -0.6078  1.0332 -0.3172
  182DOPC   H3R22324   4.225   3.148  13.358  0.6715  0.4621 -0.8070
  182DOPC   H3S22325   4.202   3.301  13.440 -2.2787 -0.5032 -0.7019
  182DOPC   C2422326   4.340   3.176  13.551  0.0783 -0.0332 -0.4500
  182DOPC   H4R22327   4.256   3.144  13.616 -0.2993  1.2549 -0.2644
  182DOPC   H4S22328   4.393   3.260  13.601  0.7646 -0.9837  0.4674
  182DOPC   C2522329   4.418   3.047  13.534  0.3488  0.2391  0.2704
  182DOPC   H5R22330   4.497   3.062  13.458 -1.6672  1.2107 -1.7714
  182DOPC   H5S22331   4.352   2.968  13.491 -0.0924  0.6182  0.2424
  182DOPC   C2622332   4.479   2.998  13.672 -0.1856  0.2163  0.3344
  182DOPC   H6R22333   4.531   3.086  13.716 -1.0099  1.8802 -1.8353
  182DOPC   H6S22334   4.547   2.912  13.658 -1.1364 -0.6831  1.0574
  182DOPC   C2722335   4.378   2.948  13.781  0.3053  0.7483  0.0768
  182DOPC   H7R22336   4.332   2.855  13.742  1.9725 -0.4983  0.9493
  182DOPC   H7S22337   4.297   3.020  13.806 -1.5201 -0.6935 -1.4628
  182DOPC   C2822338   4.440   2.912  13.924 -0.0669  0.2264 -0.3130
  182DOPC   H8R22339   4.456   3.014  13.963 -1.2101  0.2950  0.0062
  182DOPC   H8S22340   4.538   2.860  13.914 -0.7570 -2.0261  2.9641
  182DOPC   C2922341   4.351   2.835  14.021  0.1726  0.4975 -0.7765
  182DOPC   H9R22342   4.243   2.853  14.009 -0.1445 -1.0198 -0.3401
  182DOPC  C21022343   4.388   2.780  14.137 -0.1138  0.5189  0.3370
  182DOPC  H10R22344   4.315   2.713  14.184 -0.0645 -0.3504 -0.7663
  182DOPC  C21122345   4.535   2.759  14.185 -0.4832 -0.2166 -0.6365
  182DOPC  H11R22346   4.609   2.784  14.107  0.1927 -2.1261 -0.6611
  182DOPC  H11S22347   4.559   2.654  14.214  1.0450  0.0166 -1.0098
  182DOPC  C21222348   4.552   2.855  14.307 -0.2307  0.2949  0.1778
  182DOPC  H12R22349   4.553   2.962  14.277  0.1125 -0.5235 -3.0435
  182DOPC  H12S22350   4.657   2.833  14.336  0.0004 -0.4790 -1.1879
  182DOPC  C21322351   4.465   2.826  14.437 -0.3731 -0.0474 -0.1504
  182DOPC  H13R22352   4.492   2.723  14.468 -0.0692 -0.3034 -1.2418
  182DOPC  H13S22353   4.356   2.832  14.421 -0.4910  2.2754  1.0753
  182DOPC  C21422354   4.511   2.898  14.568  0.3229 -0.1945  0.4226
  182DOPC  H14R22355   4.450   2.846  14.644 -0.5373 -1.1415 -0.8575
  182DOPC  H14S22356   4.495   3.008  14.562 -0.5396 -0.3924 -2.6813
  182DOPC  C21522357   4.662   2.882  14.605  0.0586 -0.0846  0.4810
  182DOPC  H15R22358   4.713   2.942  14.526  0.2914 -1.1578 -0.2055
  182DOPC  H15S22359   4.694   2.776  14.597 -1.9926 -0.5860 -2.3444
  182DOPC  C21622360   4.692   2.942  14.736 -0.3478  0.3159 -0.3697
  182DOPC  H16R22361   4.626   2.920  14.823  0.9574  1.9534  1.1174
  182DOPC  H16S22362   4.684   3.052  14.726  0.2697  0.1530 -4.0578
  182DOPC  C21722363   4.833   2.896  14.781 -0.6471 -0.1651  0.2171
  182DOPC  H17R22364   4.900   2.909  14.693 -0.6565 -1.2572  0.0435
  182DOPC  H17S22365   4.832   2.785  14.775  2.9967 -0.2562 -1.0933
  182DOPC  C21822366   4.893   2.964  14.900  0.2789  0.4481 -1.0185
  182DOPC  H18R22367   4.872   2.889  14.980  0.2625 -1.6645 -2.9106
  182DOPC  H18S22368   4.842   3.060  14.923  0.1882  0.3107 -0.6259
  182DOPC  H18T22369   5.002   2.978  14.888  0.4444 -0.2052 -0.3764
  182DOPC   C3322370   4.529   2.640  13.166  0.2087 -0.8062  0.1174
  182DOPC   H3X22371   4.625   2.602  13.207  1.1903  2.0473  0.6562
  182DOPC   H3Y22372   4.512   2.600  13.063 -0.6550 -0.7149  0.2206
  182DOPC   C3422373   4.408   2.582  13.246 -0.4420 -0.7476 -0.1702
  182DOPC   H4X22374   4.389   2.473  13.232 -1.5930 -0.3534 -1.8853
  182DOPC   H4Y22375   4.317   2.630  13.205 -0.7179  0.0686  1.3332
  182DOPC   C3522376   4.414   2.619  13.396  0.5680 -0.8478  0.0937
  182DOPC   H5X22377   4.334   2.692  13.420  1.2443  0.3505 -1.1506
  182DOPC   H5Y22378   4.514   2.662  13.420  0.3990 -0.7649  0.6506
  182DOPC   C3622379   4.397   2.496  13.487  0.1625  0.5349 -0.2473
  182DOPC   H6X22380   4.289   2.470  13.481  0.4983 -1.1479  0.5796
  182DOPC   H6Y22381   4.454   2.407  13.453  0.7944 -0.0742  2.2583
  182DOPC   C3722382   4.424   2.533  13.633  0.6284 -0.7645  0.0620
  182DOPC   H7X22383   4.529   2.571  13.639  0.1920  0.4127  0.5716
  182DOPC   H7Y22384   4.351   2.613  13.659  1.4651 -0.6582  2.3895
  182DOPC   C3822385   4.417   2.424  13.739  0.4871 -0.1515 -0.3000
  182DOPC   H8X22386   4.435   2.464  13.841 -3.9213  0.6817  0.3341
  182DOPC   H8Y22387   4.487   2.340  13.717  0.5786  0.3267 -1.9132
  182DOPC   C3922388   4.273   2.366  13.738 -0.4893  0.3917  0.7412
  182DOPC   H9X22389   4.247   2.335  13.636 -1.6714  2.5629  0.3254
  182DOPC  C31022390   4.176   2.385  13.831 -0.1710 -0.0732  0.6902
  182DOPC  H10X22391   4.085   2.326  13.811  0.6350 -0.7796 -1.1283
  182DOPC  C31122392   4.190   2.449  13.966 -0.5384  0.2907  0.5507
  182DOPC  H11X22393   4.117   2.530  13.985 -1.9055 -0.6142 -0.7018
  182DOPC  H11Y22394   4.288   2.502  13.974 -1.1515  1.1955  2.8299
  182DOPC  C31222395   4.206   2.346  14.079  0.0692  0.2756 -1.8266
  182DOPC  H12X22396   4.285   2.272  14.052  0.4250 -0.6891  1.3784
  182DOPC  H12Y22397   4.117   2.280  14.080  1.3052 -1.5098 -0.4773
  182DOPC  C31322398   4.236   2.416  14.215 -0.4502  0.0496 -0.5527
  182DOPC  H13X22399   4.312   2.497  14.208  1.7831 -1.9741 -0.7969
  182DOPC  H13Y22400   4.134   2.456  14.238  0.0422  1.5296 -0.7987
  182DOPC  C31422401   4.296   2.329  14.333 -0.6731 -0.4100 -0.0214
  182DOPC  H14X22402   4.245   2.232  14.353 -0.9774 -0.4207 -0.8160
  182DOPC  H14Y22403   4.400   2.309  14.301 -0.5353 -0.8799  0.7076
  182DOPC  C31522404   4.299   2.400  14.477  0.3594 -0.6643  0.4856
  182DOPC  H15X22405   4.197   2.427  14.512  0.6887  2.1057 -0.4291
  182DOPC  H15Y22406   4.349   2.498  14.463  1.5535 -1.3251  0.0026
  182DOPC  C31622407   4.373   2.320  14.583 -0.4984 -0.0443 -0.2676
  182DOPC  H16X22408   4.323   2.221  14.581 -1.9468  0.6309  0.4275
  182DOPC  H16Y22409   4.470   2.294  14.537 -0.7500 -2.2030  0.3178
  182DOPC  C31722410   4.371   2.384  14.720  0.4401 -0.6989 -0.5220
  182DOPC  H17X22411   4.267   2.401  14.755  1.0936  0.9850  0.7785
  182DOPC  H17Y22412   4.410   2.321  14.803  0.3947  0.7438  0.6608
  182DOPC  C31822413   4.439   2.524  14.723 -0.2360  0.5646  0.0346
  182DOPC  H18X22414   4.416   2.581  14.631  0.1716 -0.4647 -0.7226
  182DOPC  H18Y22415   4.421   2.571  14.823  0.5729 -0.2909  0.5997
  182DOPC  H18Z22416   4.549   2.510  14.721 -0.3390 -0.1625 -1.7209
  183DOPC     N22417   3.156   5.900  12.645 -0.0289 -0.0758 -0.2938
  183DOPC   C1222418   3.246   5.924  12.521  0.3084 -0.8293 -0.7041
  183DOPC  H12A22419   3.190   5.971  12.442  1.0315  2.1166  0.4182
  183DOPC  H12B22420   3.277   5.829  12.481  2.5454 -0.3383 -0.2546
  183DOPC   C1322421   3.075   6.026  12.667 -0.2538  0.3168 -0.6788
  183DOPC  H13A22422   3.027   6.062  12.577  0.7369  1.7386 -0.6779
  183DOPC  H13B22423   2.996   6.014  12.740  0.2058 -0.4348 -0.2939
  183DOPC  H13C22424   3.134   6.113  12.693  0.3100 -0.3054  0.1386
  183DOPC   C1422425   3.237   5.876  12.764 -0.2461 -0.5279  0.1584
  183DOPC  H14A22426   3.311   5.952  12.786  0.0778 -0.1163 -2.1131
  183DOPC  H14B22427   3.176   5.884  12.853  0.5441  0.0040  0.6685
  183DOPC  H14C22428   3.275   5.775  12.766  0.0420 -0.4281 -0.1526
  183DOPC   C1522429   3.061   5.784  12.621 -0.5218  0.3086 -0.0417
  183DOPC  H15A22430   3.124   5.696  12.611  1.1257  1.0656  2.6144
  183DOPC  H15B22431   2.999   5.799  12.533 -2.0421  0.4299  1.0186
  183DOPC  H15C22432   2.986   5.774  12.698 -0.3715 -4.1126 -0.2220
  183DOPC   C1122433   3.370   6.008  12.540 -0.3179 -0.0869  0.6051
  183DOPC  H11A22434   3.453   5.946  12.579 -1.1846 -1.0055  1.0055
  183DOPC  H11B22435   3.413   6.041  12.443 -0.1175 -0.2145  0.6492
  183DOPC     P22436   3.483   6.172  12.700 -0.1752  0.0903 -0.1409
  183DOPC   O1322437   3.607   6.188  12.622  0.0826 -0.8690  0.3529
  183DOPC   O1422438   3.490   6.074  12.811  0.7486  0.2379  0.1407
  183DOPC   O1222439   3.356   6.131  12.623  0.5061 -0.7831  0.4677
  183DOPC   O1122440   3.428   6.314  12.749 -0.4231  0.3930 -0.0173
  183DOPC    C122441   3.300   6.335  12.800 -0.1476  0.1609 -0.9832
  183DOPC    HA22442   3.220   6.283  12.743 -2.5370  1.3149  1.0846
  183DOPC    HB22443   3.281   6.445  12.808  0.1501  0.1435  0.1931
  183DOPC    C222444   3.287   6.292  12.946 -0.4803  0.0512  0.2941
  183DOPC    HS22445   3.287   6.181  12.956 -0.9752  0.2349  3.0101
  183DOPC   O2122446   3.164   6.347  12.989 -0.9138 -0.2653 -0.0307
  183DOPC   C2122447   3.065   6.262  13.010 -0.3847 -0.0546 -0.3322
  183DOPC   O2222448   3.072   6.142  12.994  0.1263  0.0521 -0.5487
  183DOPC   C2222449   2.943   6.343  13.026  0.5865  0.5036 -0.1418
  183DOPC   H2R22450   2.922   6.374  12.921 -1.2248 -0.2422 -0.0496
  183DOPC   H2S22451   2.970   6.431  13.089  1.9531  0.3093 -0.4277
  183DOPC    C322452   3.410   6.336  13.027 -0.5964  0.1187 -0.5058
  183DOPC    HX22453   3.430   6.439  12.991  3.1324 -0.2384  0.1436
  183DOPC    HY22454   3.505   6.283  13.004  0.1018  0.8865  0.5305
  183DOPC   O3122455   3.386   6.340  13.172 -0.5827  0.0085  0.4902
  183DOPC   C3122456   3.383   6.224  13.228  0.0703 -0.4157  0.0875
  183DOPC   O3222457   3.443   6.123  13.195 -0.2591  0.1082  0.3208
  183DOPC   C3222458   3.316   6.245  13.365 -0.1638  0.3533  0.0636
  183DOPC   H2X22459   3.395   6.244  13.444 -0.4131  1.4231  0.3442
  183DOPC   H2Y22460   3.260   6.341  13.365  0.9112  1.0624  2.3731
  183DOPC   C2322461   2.824   6.266  13.080 -0.0101  0.2348 -0.1094
  183DOPC   H3R22462   2.802   6.172  13.024 -0.3702  0.8972 -1.0961
  183DOPC   H3S22463   2.733   6.331  13.081 -0.7755 -0.7636  2.1091
  183DOPC   C2422464   2.855   6.242  13.232  0.3345  0.9524  0.2710
  183DOPC   H4R22465   2.883   6.338  13.281  0.2297  1.1786 -0.1065
  183DOPC   H4S22466   2.930   6.161  13.238 -2.0150 -1.2386  2.8398
  183DOPC   C2522467   2.731   6.193  13.303  0.2243  0.4759  0.0606
  183DOPC   H5R22468   2.706   6.092  13.263  1.7472  0.0074  0.2046
  183DOPC   H5S22469   2.647   6.262  13.286  0.4927  1.3883  2.1818
  183DOPC   C2622470   2.750   6.194  13.459  0.5329  0.0659  0.1329
  183DOPC   H6R22471   2.842   6.146  13.497  0.4624  0.5850  0.9797
  183DOPC   H6S22472   2.670   6.123  13.488 -1.2112  2.1350  0.6815
  183DOPC   C2722473   2.718   6.323  13.525 -0.3077 -0.7218 -0.0751
  183DOPC   H7R22474   2.611   6.342  13.502 -1.0166 -1.4591  2.3619
  183DOPC   H7S22475   2.774   6.408  13.481 -1.9010  0.3034 -0.2114
  183DOPC   C2822476   2.744   6.319  13.674  0.3940 -0.1514 -0.4432
  183DOPC   H8R22477   2.731   6.419  13.721 -1.3088 -0.3434 -0.4555
  183DOPC   H8S22478   2.854   6.306  13.685  0.3355  0.1381  0.6331
  183DOPC   C2922479   2.668   6.228  13.770  0.1445 -0.7880  0.3367
  183DOPC   H9R22480   2.654   6.126  13.730 -0.1518 -1.5104  2.1885
  183DOPC  C21022481   2.634   6.261  13.895  0.3143  0.3100 -0.0548
  183DOPC  H10R22482   2.561   6.198  13.947  0.6958 -1.2770 -1.3438
  183DOPC  C21122483   2.673   6.387  13.974  0.4174 -0.4012  0.4285
  183DOPC  H11R22484   2.585   6.453  13.979  0.3575 -0.5657  2.4494
  183DOPC  H11S22485   2.762   6.446  13.944  0.1396  1.1839  2.5086
  183DOPC  C21222486   2.708   6.364  14.125  0.6323 -0.5507 -0.2541
  183DOPC  H12R22487   2.813   6.397  14.138  1.3597 -2.4899 -0.9995
  183DOPC  H12S22488   2.706   6.258  14.158  0.4463 -0.5535 -0.2741
  183DOPC  C21322489   2.609   6.440  14.213 -0.0405  0.3424  0.0611
  183DOPC  H13R22490   2.508   6.400  14.192  0.3747  0.0454 -1.4414
  183DOPC  H13S22491   2.620   6.549  14.192 -2.2415  1.0449  2.0600
  183DOPC  C21422492   2.658   6.426  14.360  0.2944  0.1067 -0.4090
  183DOPC  H14R22493   2.717   6.331  14.366  1.4935  0.8831  0.6061
  183DOPC  H14S22494   2.563   6.416  14.417 -0.3635  0.9481 -1.3471
  183DOPC  C21522495   2.749   6.537  14.418  0.1074 -0.2664 -0.0261
  183DOPC  H15R22496   2.703   6.631  14.383 -0.3209 -0.4694 -0.0144
  183DOPC  H15S22497   2.850   6.529  14.374 -0.6185 -0.6842 -1.6949
  183DOPC  C21622498   2.748   6.534  14.572  0.1080  0.2568 -0.3280
  183DOPC  H16R22499   2.779   6.431  14.597  0.2961  0.2882 -0.4259
  183DOPC  H16S22500   2.644   6.540  14.611  0.0475  0.9701 -0.5755
  183DOPC  C21722501   2.838   6.635  14.638 -0.4171  0.1332  0.2916
  183DOPC  H17R22502   2.803   6.736  14.607  2.1112  1.1051  0.4108
  183DOPC  H17S22503   2.940   6.616  14.599 -0.7514 -0.3656 -0.3660
  183DOPC  C21822504   2.845   6.633  14.790  0.1820 -0.0191 -0.0239
  183DOPC  H18R22505   2.799   6.538  14.825 -2.2015  0.8045 -0.7074
  183DOPC  H18S22506   2.797   6.723  14.835 -2.2184 -0.6389 -1.2045
  183DOPC  H18T22507   2.948   6.664  14.817 -0.4847  1.5766  0.8446
  183DOPC   C3322508   3.226   6.121  13.393 -0.2775 -0.3947  0.6349
  183DOPC   H3X22509   3.280   6.026  13.374  1.0321  0.1844  1.3107
  183DOPC   H3Y22510   3.134   6.125  13.330  0.1001  1.2574  0.1528
  183DOPC   C3422511   3.199   6.107  13.539  0.7593  0.1895  0.3218
  183DOPC   H4X22512   3.285   6.076  13.602  1.7298 -0.0372 -1.0581
  183DOPC   H4Y22513   3.126   6.024  13.550 -2.5187  2.9148  0.7476
  183DOPC   C3522514   3.136   6.226  13.606  0.3149 -0.1576  0.2355
  183DOPC   H5X22515   3.037   6.239  13.556  0.6042  0.9872 -0.0732
  183DOPC   H5Y22516   3.184   6.322  13.578 -0.3627  1.1080  3.0366
  183DOPC   C3622517   3.146   6.227  13.753  0.5744  0.0003 -0.6974
  183DOPC   H6X22518   3.254   6.240  13.775  0.8447 -0.0990 -1.9034
  183DOPC   H6Y22519   3.094   6.320  13.784  1.5022  1.1584 -2.4206
  183DOPC   C3722520   3.094   6.095  13.826  0.3573  0.0648  0.2660
  183DOPC   H7X22521   2.999   6.084  13.771  0.9225 -0.8861 -0.5501
  183DOPC   H7Y22522   3.162   6.010  13.806  0.5385  0.0119  1.0562
  183DOPC   C3822523   3.067   6.108  13.974 -0.3396  0.4253  0.0140
  183DOPC   H8X22524   3.020   6.013  14.005 -0.1397 -0.0075 -0.9660
  183DOPC   H8Y22525   3.005   6.196  14.002 -0.4497  0.3934 -0.1267
  183DOPC   C3922526   3.209   6.115  14.035 -0.0970  0.6306  0.7164
  183DOPC   H9X22527   3.282   6.073  13.965 -2.0721 -0.4283 -0.8288
  183DOPC  C31022528   3.238   6.131  14.163  0.0620  0.1291 -0.0442
  183DOPC  H10X22529   3.340   6.115  14.201 -0.3282  0.4581  1.2102
  183DOPC  C31122530   3.132   6.143  14.267  0.5962 -0.0206 -0.4163
  183DOPC  H11X22531   3.114   6.042  14.310 -0.8840 -0.4191 -1.8554
  183DOPC  H11Y22532   3.040   6.180  14.216  0.3941  0.1856  0.0952
  183DOPC  C31222533   3.167   6.230  14.383 -0.3125 -0.0299 -0.1874
  183DOPC  H12X22534   3.213   6.328  14.357  1.7729 -0.5033  1.3971
  183DOPC  H12Y22535   3.244   6.177  14.442 -1.9373 -0.2408  1.8631
  183DOPC  C31322536   3.052   6.261  14.480 -0.4986  0.5440 -0.0159
  183DOPC  H13X22537   2.958   6.291  14.428 -0.6576 -0.3140 -0.2362
  183DOPC  H13Y22538   3.031   6.171  14.541  3.8192  0.4393  1.6831
  183DOPC  C31422539   3.082   6.374  14.575  0.2867  0.0091  0.3703
  183DOPC  H14X22540   3.092   6.467  14.516 -0.6926 -0.0095  0.1542
  183DOPC  H14Y22541   2.994   6.393  14.642  0.0695  0.0683  0.0690
  183DOPC  C31522542   3.209   6.361  14.662 -0.1407  1.0325 -0.0346
  183DOPC  H15X22543   3.290   6.358  14.585  0.6630 -2.0449  0.7777
  183DOPC  H15Y22544   3.216   6.262  14.712  0.8182  0.4667 -1.2088
  183DOPC  C31622545   3.212   6.472  14.769  0.3038 -0.0206  0.3184
  183DOPC  H16X22546   3.315   6.513  14.772  0.9766 -1.5083 -0.8987
  183DOPC  H16Y22547   3.143   6.552  14.736  1.6138  1.1483  0.3232
  183DOPC  C31722548   3.167   6.415  14.899  0.4290 -0.3045  0.1165
  183DOPC  H17X22549   3.057   6.397  14.898  0.1253  1.3591 -0.9259
  183DOPC  H17Y22550   3.222   6.322  14.925  0.3045 -0.1313  1.0373
  183DOPC  C31822551   3.202   6.509  15.010  0.6067 -0.1384  0.0101
  183DOPC  H18X22552   3.134   6.597  15.007  0.7881  0.0384  0.7970
  183DOPC  H18Y22553   3.187   6.452  15.104  0.9050  0.9065  0.7062
  183DOPC  H18Z22554   3.311   6.530  15.017  1.0594 -1.6976 -1.5450
  184DOPC     N22555   5.627   1.619  12.231  0.2442 -0.4819  0.1563
  184DOPC   C1222556   5.708   1.658  12.359 -0.3367 -0.0960 -0.0258
  184DOPC  H12A22557   5.796   1.597  12.372 -0.6763 -0.3707  1.0465
  184DOPC  H12B22558   5.647   1.652  12.448  0.1545  2.6797  0.5853
  184DOPC   C1322559   5.711   1.641  12.104 -0.8265 -0.6364 -0.1174
  184DOPC  H13A22560   5.773   1.728  12.125 -0.4518 -1.3626  2.1595
  184DOPC  H13B22561   5.774   1.558  12.077  1.3628  0.5778  0.9217
  184DOPC  H13C22562   5.648   1.663  12.020 -0.0181  4.5348  0.2752
  184DOPC   C1422563   5.512   1.712  12.219  0.1736 -0.8552  0.9008
  184DOPC  H14A22564   5.459   1.707  12.125 -1.6492 -1.9094  1.9202
  184DOPC  H14B22565   5.439   1.713  12.299 -1.0800 -0.5405 -0.2101
  184DOPC  H14C22566   5.553   1.812  12.224 -1.6644  0.0708 -0.8845
  184DOPC   C1522567   5.570   1.480  12.248  0.0035  0.4945  0.7909
  184DOPC  H15A22568   5.515   1.454  12.159  0.2316  0.1598  0.7448
  184DOPC  H15B22569   5.512   1.471  12.338  1.8471 -1.2575  1.8762
  184DOPC  H15C22570   5.643   1.401  12.260 -0.4831 -0.0356  0.3224
  184DOPC   C1122571   5.783   1.795  12.366  0.0267  0.4706 -0.4835
  184DOPC  H11A22572   5.721   1.883  12.341  0.5143  1.0262  0.2234
  184DOPC  H11B22573   5.820   1.824  12.466  1.5242  1.8566 -1.4019
  184DOPC     P22574   6.037   1.739  12.325 -0.1220 -0.3637  0.1217
  184DOPC   O1322575   6.121   1.853  12.372 -0.0014  0.1242  0.2052
  184DOPC   O1422576   6.087   1.659  12.215 -0.5884 -0.1859  0.0647
  184DOPC   O1222577   5.893   1.794  12.275 -0.2908  0.1056 -0.2294
  184DOPC   O1122578   6.000   1.644  12.442 -0.0626 -0.6678  0.1664
  184DOPC    C122579   6.113   1.616  12.529 -0.1152  0.1983  0.5574
  184DOPC    HA22580   6.156   1.710  12.569 -1.6780  0.5187  1.5789
  184DOPC    HB22581   6.189   1.557  12.473  0.6067  0.7945  0.8833
  184DOPC    C222582   6.064   1.543  12.658 -0.0249 -0.3223 -0.0359
  184DOPC    HS22583   6.135   1.561  12.741 -1.9951  1.0692  1.4589
  184DOPC   O2122584   6.049   1.406  12.629  0.5101 -1.3830  0.5720
  184DOPC   C2122585   6.146   1.325  12.680 -0.2690  0.5656 -0.0795
  184DOPC   O2222586   6.218   1.357  12.771 -0.3933  0.2903 -0.1924
  184DOPC   C2222587   6.146   1.195  12.605 -0.2580 -0.5263 -0.3972
  184DOPC   H2R22588   6.198   1.221  12.510  0.4255 -2.1012 -0.4711
  184DOPC   H2S22589   6.042   1.168  12.575  0.1559 -0.1847 -2.2923
  184DOPC    C322590   5.930   1.610  12.710 -0.5197  0.2531  0.0027
  184DOPC    HX22591   5.851   1.557  12.652 -1.4618 -3.2694  3.9738
  184DOPC    HY22592   5.947   1.718  12.693  1.2469  0.4022  2.1759
  184DOPC   O3122593   5.895   1.572  12.841 -0.5095  0.3901 -0.3921
  184DOPC   C3122594   5.956   1.643  12.937 -0.4615  1.0618  0.0368
  184DOPC   O3222595   6.029   1.735  12.920  0.3477  0.1262  0.4825
  184DOPC   C3222596   5.942   1.578  13.076  0.7878  0.5085 -1.1123
  184DOPC   H2X22597   5.896   1.659  13.138  1.0388  0.7481 -1.2369
  184DOPC   H2Y22598   5.871   1.493  13.084  0.2713  1.0942  1.9762
  184DOPC   C2322599   6.232   1.084  12.669  0.1009  0.7423  0.2563
  184DOPC   H3R22600   6.314   1.127  12.731  2.0923  0.4835 -2.0582
  184DOPC   H3S22601   6.287   1.046  12.581  0.7301  1.8155  0.1645
  184DOPC   C2422602   6.148   0.974  12.729  0.2259  0.2246  0.0851
  184DOPC   H4R22603   6.220   0.892  12.746  0.4008  0.2067 -0.7135
  184DOPC   H4S22604   6.073   0.942  12.654 -1.6615  0.2942  1.8220
  184DOPC   C2522605   6.061   1.008  12.854  0.0686  0.0630 -0.6152
  184DOPC   H5R22606   5.983   1.084  12.831  0.0893  0.3945  0.3456
  184DOPC   H5S22607   6.130   1.052  12.929  0.6970 -1.9549  0.0464
  184DOPC   C2622608   6.017   0.887  12.934  0.7799 -0.6470  0.6561
  184DOPC   H6R22609   5.952   0.832  12.863  0.4404  1.1148 -0.4512
  184DOPC   H6S22610   5.965   0.919  13.027  0.7267  2.6583 -0.3761
  184DOPC   C2722611   6.121   0.798  12.994  0.0489 -0.7013 -0.4924
  184DOPC   H7R22612   6.189   0.851  13.064  0.7914 -2.0261 -0.1723
  184DOPC   H7S22613   6.187   0.766  12.910  1.3980  1.6243 -0.4262
  184DOPC   C2822614   6.064   0.673  13.058  0.4510  1.1568 -0.0991
  184DOPC   H8R22615   6.139   0.621  13.122 -1.4714 -1.0187  0.5118
  184DOPC   H8S22616   6.037   0.607  12.973 -3.0493  0.6443  1.2562
  184DOPC   C2922617   5.934   0.692  13.144 -0.4829  0.4021 -0.0661
  184DOPC   H9R22618   5.841   0.710  13.089 -0.8944  0.1318  0.5318
  184DOPC  C21022619   5.927   0.689  13.281  0.1128 -0.1707  0.3158
  184DOPC  H10R22620   5.824   0.710  13.310 -1.4580 -1.6075 -3.4773
  184DOPC  C21122621   6.031   0.666  13.386 -0.4442 -0.6402 -0.2215
  184DOPC  H11R22622   6.129   0.662  13.332  0.4080 -1.4372  1.3148
  184DOPC  H11S22623   6.037   0.561  13.423  0.0788 -0.8885 -0.9725
  184DOPC  C21222624   6.041   0.783  13.496  0.0680  0.8162  0.2697
  184DOPC  H12R22625   6.023   0.882  13.448 -4.6026 -0.8780 -2.1328
  184DOPC  H12S22626   6.135   0.778  13.554  0.6030  0.4340 -0.6133
  184DOPC  C21322627   5.931   0.761  13.607  0.8449  0.0362 -0.4532
  184DOPC  H13R22628   5.832   0.764  13.559  0.5300 -0.3827  0.1483
  184DOPC  H13S22629   5.926   0.853  13.670  1.4674 -0.8456  0.9523
  184DOPC  C21422630   5.937   0.644  13.710 -0.5028 -0.7575 -0.8116
  184DOPC  H14R22631   5.964   0.553  13.653  2.2056 -0.2449 -0.4864
  184DOPC  H14S22632   5.837   0.631  13.757 -0.2532  1.6315  0.5450
  184DOPC  C21522633   6.050   0.665  13.811  0.5053  0.4964 -0.2405
  184DOPC  H15R22634   6.141   0.694  13.755 -1.2739  1.4861 -2.8281
  184DOPC  H15S22635   6.069   0.569  13.863 -1.7499  0.0902 -0.0503
  184DOPC  C21622636   6.024   0.788  13.909 -0.2818  0.3822 -0.6010
  184DOPC  H16R22637   5.921   0.784  13.952  0.4755  0.9666  1.3615
  184DOPC  H16S22638   6.037   0.885  13.855 -0.7815  0.2214 -1.0188
  184DOPC  C21722639   6.112   0.779  14.040  0.0703  0.3471  0.5187
  184DOPC  H17R22640   6.097   0.684  14.095 -2.0961  0.3739  0.0651
  184DOPC  H17S22641   6.100   0.862  14.112  1.6450  0.1474  1.0530
  184DOPC  C21822642   6.264   0.762  14.008 -0.2455 -0.1756  0.7643
  184DOPC  H18R22643   6.286   0.670  13.949 -0.3180  0.8050 -0.8533
  184DOPC  H18S22644   6.331   0.761  14.096  1.1300 -1.2647 -0.2410
  184DOPC  H18T22645   6.298   0.842  13.938 -1.9120 -0.2245 -0.1699
  184DOPC   C3322646   6.082   1.540  13.135  0.7536 -0.1636  0.5069
  184DOPC   H3X22647   6.161   1.600  13.086 -2.2040  2.0755 -1.9324
  184DOPC   H3Y22648   6.086   1.432  13.109 -2.2327  0.3368 -2.8828
  184DOPC   C3422649   6.093   1.571  13.281  0.1052 -0.4097  0.6162
  184DOPC   H4X22650   6.066   1.677  13.300 -0.8943 -0.3930 -0.7268
  184DOPC   H4Y22651   6.199   1.555  13.310  0.5506  1.7355  0.3423
  184DOPC   C3522652   5.998   1.487  13.367 -0.2972  0.1898 -0.2771
  184DOPC   H5X22653   6.023   1.381  13.350 -1.5098 -0.3008  0.8332
  184DOPC   H5Y22654   5.893   1.510  13.340 -0.0220  1.2433 -0.5065
  184DOPC   C3622655   6.015   1.500  13.524 -0.1328  0.4987  0.2611
  184DOPC   H6X22656   5.962   1.413  13.569  1.0924  0.7345  2.2666
  184DOPC   H6Y22657   6.119   1.498  13.562  1.2519 -0.0553 -3.2151
  184DOPC   C3722658   5.945   1.624  13.565  0.5688 -0.3271  0.3238
  184DOPC   H7X22659   6.014   1.701  13.525 -0.9470  0.2777 -1.2182
  184DOPC   H7Y22660   5.853   1.637  13.504  0.3662  0.1832  0.7342
  184DOPC   C3822661   5.932   1.638  13.714 -0.3451  0.0703 -1.0073
  184DOPC   H8X22662   5.939   1.746  13.735 -1.1625  0.1460 -1.0987
  184DOPC   H8Y22663   6.024   1.595  13.759 -2.0130 -1.8604  0.8303
  184DOPC   C3922664   5.815   1.562  13.758 -0.6242  0.3365 -0.2832
  184DOPC   H9X22665   5.798   1.467  13.707 -0.8831  0.1162  0.2105
  184DOPC  C31022666   5.720   1.601  13.846 -0.6546 -0.0096  0.5148
  184DOPC  H10X22667   5.647   1.525  13.878  0.7037 -1.7487 -0.3274
  184DOPC  C31122668   5.713   1.740  13.915 -0.2637  0.0847 -0.0556
  184DOPC  H11X22669   5.622   1.798  13.890  0.9116  1.7764 -0.5318
  184DOPC  H11Y22670   5.795   1.804  13.877 -1.4743  1.3078 -0.6907
  184DOPC  C31222671   5.732   1.734  14.068  0.4299  0.5105 -0.5927
  184DOPC  H12X22672   5.701   1.831  14.110 -0.6507 -0.6057  1.3257
  184DOPC  H12Y22673   5.840   1.710  14.077  0.2925  0.5714  1.7298
  184DOPC  C31322674   5.651   1.622  14.131  0.1491 -0.3095  0.0577
  184DOPC  H13X22675   5.547   1.616  14.094  0.7830 -1.5737 -1.6864
  184DOPC  H13Y22676   5.705   1.525  14.127  0.9827  0.0992  0.9870
  184DOPC  C31422677   5.637   1.639  14.281 -0.3506 -0.1376 -0.5961
  184DOPC  H14X22678   5.736   1.615  14.326  0.3212 -1.5336 -2.6694
  184DOPC  H14Y22679   5.597   1.742  14.292  0.7577  0.3418 -0.9014
  184DOPC  C31522680   5.544   1.542  14.352  0.1482 -0.1291 -0.4050
  184DOPC  H15X22681   5.590   1.441  14.354  0.2313 -0.1157 -1.3279
  184DOPC  H15Y22682   5.447   1.512  14.308  0.3514 -1.6041  0.0846
  184DOPC  C31622683   5.505   1.600  14.489 -0.3461  0.0893  1.7239
  184DOPC  H16X22684   5.451   1.697  14.478 -0.5486 -0.2079 -0.0472
  184DOPC  H16Y22685   5.429   1.537  14.540 -1.3178 -0.9512 -0.8849
  184DOPC  C31722686   5.629   1.605  14.585 -0.4528 -0.0639  0.0887
  184DOPC  H17X22687   5.694   1.691  14.561 -1.5155  1.0745  1.1652
  184DOPC  H17Y22688   5.593   1.644  14.683 -1.6715 -0.2320 -0.2704
  184DOPC  C31822689   5.697   1.469  14.598  0.1835 -0.4969 -0.0607
  184DOPC  H18X22690   5.622   1.395  14.632 -0.0471  0.1594  0.8856
  184DOPC  H18Y22691   5.733   1.435  14.499 -1.2209 -1.9577 -0.1116
  184DOPC  H18Z22692   5.789   1.473  14.660  0.0993 -2.0878  0.2058
  185DOPC     N22693   1.580   5.693  11.891  0.1769 -0.4032 -0.5204
  185DOPC   C1222694   1.653   5.626  12.006  0.2842  0.3654  0.5792
  185DOPC  H12A22695   1.675   5.525  11.974 -1.3667 -0.3302  1.5596
  185DOPC  H12B22696   1.586   5.626  12.090  0.3957 -1.1735  0.7060
  185DOPC   C1322697   1.668   5.729  11.781 -0.3359  0.1973 -0.7220
  185DOPC  H13A22698   1.714   5.825  11.802 -0.6389  0.0860  0.5058
  185DOPC  H13B22699   1.737   5.652  11.750  0.0358  0.8580 -1.5946
  185DOPC  H13C22700   1.608   5.747  11.693 -2.9668 -0.7706  0.7885
  185DOPC   C1422701   1.515   5.815  11.938 -0.3657 -0.2704  0.1980
  185DOPC  H14A22702   1.413   5.804  11.973  0.1323  1.2298  2.3675
  185DOPC  H14B22703   1.571   5.854  12.021 -1.2458 -0.2652  0.8093
  185DOPC  H14C22704   1.506   5.881  11.853  0.2544 -0.2025  0.1838
  185DOPC   C1522705   1.474   5.600  11.830 -0.1545 -0.0395  0.1787
  185DOPC  H15A22706   1.515   5.506  11.797 -1.4689 -0.9391  1.0412
  185DOPC  H15B22707   1.423   5.643  11.745 -1.2893 -2.9696 -0.7272
  185DOPC  H15C22708   1.408   5.571  11.910  1.4833 -0.9321  1.2719
  185DOPC   C1122709   1.784   5.698  12.060  0.4967  0.2173 -0.0684
  185DOPC  H11A22710   1.812   5.616  12.129 -1.3646  0.3084  0.8351
  185DOPC  H11B22711   1.867   5.703  11.986 -0.6356  1.3143 -1.3241
  185DOPC     P22712   1.798   5.893  12.240 -0.2609 -0.2489 -0.3477
  185DOPC   O1322713   1.793   6.040  12.234  0.2761 -0.4000 -0.5628
  185DOPC   O1422714   1.923   5.821  12.285  0.2322  0.2492 -0.0642
  185DOPC   O1222715   1.759   5.835  12.103 -0.7607  0.2971  0.8423
  185DOPC   O1122716   1.688   5.843  12.344 -0.3009  0.1745 -0.3383
  185DOPC    C122717   1.559   5.891  12.340  0.3011 -0.6048 -0.6970
  185DOPC    HA22718   1.483   5.811  12.354 -0.0132 -0.3235 -0.7886
  185DOPC    HB22719   1.531   5.944  12.247  0.3735 -0.7974 -0.8318
  185DOPC    C222720   1.556   6.001  12.457  0.7995  0.2965  0.5263
  185DOPC    HS22721   1.616   6.084  12.414  0.1123  1.1353  1.1528
  185DOPC   O2122722   1.602   5.946  12.584  0.1362  0.5552 -0.1279
  185DOPC   C2122723   1.672   6.034  12.656 -0.8204  0.1174 -0.0041
  185DOPC   O2222724   1.731   6.129  12.611  0.3170  0.3227 -0.1039
  185DOPC   C2222725   1.676   5.994  12.804 -0.9253  0.1622 -0.3619
  185DOPC   H2R22726   1.626   5.897  12.824 -2.1006  1.2078  2.3302
  185DOPC   H2S22727   1.624   6.070  12.867  0.8092  0.5918  0.6146
  185DOPC    C322728   1.412   6.054  12.480  0.2888 -0.1180 -0.5678
  185DOPC    HX22729   1.361   5.978  12.543 -0.1913  2.0314  1.8432
  185DOPC    HY22730   1.357   6.069  12.385 -0.5574  0.3731 -0.0124
  185DOPC   O3122731   1.427   6.171  12.560  0.1387  0.0342 -0.2535
  185DOPC   C3122732   1.421   6.286  12.502 -0.3151 -0.3494  0.4500
  185DOPC   O3222733   1.412   6.305  12.381 -0.2177 -0.1312  0.8881
  185DOPC   C3222734   1.405   6.394  12.609 -0.0541 -1.1488 -0.1580
  185DOPC   H2X22735   1.309   6.380  12.664 -1.0841  2.2398 -0.8547
  185DOPC   H2Y22736   1.490   6.395  12.681 -0.4530  0.9061  0.3403
  185DOPC   C2322737   1.818   5.992  12.867  0.1641 -0.9069 -0.0129
  185DOPC   H3R22738   1.865   6.090  12.844 -1.0685  0.3484  2.4115
  185DOPC   H3S22739   1.872   5.910  12.815 -1.2322 -0.2230 -2.6780
  185DOPC   C2422740   1.824   5.971  13.020  0.1180  0.1936  0.6163
  185DOPC   H4R22741   1.767   5.877  13.039 -0.3135  0.1714 -0.6491
  185DOPC   H4S22742   1.764   6.054  13.063 -1.1527 -1.5777  2.4457
  185DOPC   C2522743   1.958   5.986  13.081  0.1722 -0.1689  0.2561
  185DOPC   H5R22744   1.995   6.085  13.046 -1.9575 -0.3368 -2.8213
  185DOPC   H5S22745   2.034   5.914  13.044  2.4417  1.7193  0.9901
  185DOPC   C2622746   1.943   5.982  13.236  0.6249 -0.6416  0.8461
  185DOPC   H6R22747   1.875   6.058  13.278  1.0833 -0.6916  1.6975
  185DOPC   H6S22748   2.044   6.008  13.273  0.9562 -0.8003  0.0924
  185DOPC   C2722749   1.907   5.840  13.282 -0.2266  0.2498 -0.2881
  185DOPC   H7R22750   1.982   5.774  13.232 -0.0832  0.9447 -1.0182
  185DOPC   H7S22751   1.807   5.808  13.247  0.1803 -0.9371 -0.4063
  185DOPC   C2822752   1.915   5.816  13.434 -0.1822 -0.1515  0.1448
  185DOPC   H8R22753   1.829   5.870  13.477  0.8873  0.8781  1.0579
  185DOPC   H8S22754   2.008   5.869  13.465 -0.8117  1.2094 -0.1971
  185DOPC   C2922755   1.918   5.668  13.476 -0.0462 -0.3764 -0.2016
  185DOPC   H9R22756   1.943   5.602  13.392  3.8282  0.1822  0.3532
  185DOPC  C21022757   1.882   5.621  13.600 -1.0703 -0.3577 -0.6926
  185DOPC  H10R22758   1.876   5.514  13.625 -0.3925 -0.4543 -0.9179
  185DOPC  C21122759   1.858   5.728  13.712 -0.1312  0.3809  0.9175
  185DOPC  H11R22760   1.749   5.751  13.709 -0.3033 -0.4758 -0.6057
  185DOPC  H11S22761   1.912   5.823  13.694  0.3911 -0.1165 -0.2601
  185DOPC  C21222762   1.911   5.670  13.846 -0.0586 -0.0374 -0.2143
  185DOPC  H12R22763   2.021   5.664  13.851 -0.0925 -0.8265 -0.3582
  185DOPC  H12S22764   1.870   5.573  13.880  2.4158 -0.8955  0.5056
  185DOPC  C21322765   1.900   5.765  13.966  0.1269 -0.2339 -0.8740
  185DOPC  H13R22766   1.797   5.804  13.977 -0.5491 -2.2485  0.4904
  185DOPC  H13S22767   1.969   5.850  13.947  2.2180 -1.3989  1.0017
  185DOPC  C21422768   1.937   5.697  14.092  0.7043 -0.2280 -0.5693
  185DOPC  H14R22769   2.041   5.659  14.087  0.3941 -1.4549  1.3194
  185DOPC  H14S22770   1.879   5.606  14.117  1.7224 -0.9728 -0.8735
  185DOPC  C21522771   1.913   5.803  14.203 -0.5647  0.2399  0.4791
  185DOPC  H15R22772   1.804   5.825  14.205 -0.7193 -0.1548 -1.3319
  185DOPC  H15S22773   1.959   5.900  14.174 -2.5608  1.5999  1.6543
  185DOPC  C21622774   1.965   5.759  14.338  0.1778 -0.4589 -0.1764
  185DOPC  H16R22775   2.073   5.756  14.311  0.3871  1.4725  0.2893
  185DOPC  H16S22776   1.925   5.659  14.367  0.4908 -0.4732  0.2132
  185DOPC  C21722777   1.930   5.862  14.444 -0.1414 -0.6508 -0.1337
  185DOPC  H17R22778   1.819   5.855  14.448 -0.4145  1.5595 -1.9528
  185DOPC  H17S22779   1.952   5.968  14.421 -0.0119 -0.6468  0.0071
  185DOPC  C21822780   1.996   5.835  14.579  0.0267  0.1959  1.3493
  185DOPC  H18R22781   2.014   5.933  14.628  2.0011  0.5910 -0.0740
  185DOPC  H18S22782   2.098   5.798  14.556 -0.5569 -1.0514  0.6933
  185DOPC  H18T22783   1.938   5.762  14.640 -1.2163 -0.2689 -0.3169
  185DOPC   C3322784   1.399   6.537  12.544  0.6483 -0.2733  0.6307
  185DOPC   H3X22785   1.292   6.549  12.517  0.4126  1.5159  2.2186
  185DOPC   H3Y22786   1.463   6.551  12.455  0.6362  0.1972  0.6952
  185DOPC   C3422787   1.448   6.656  12.629  0.1060 -0.7208 -0.3451
  185DOPC   H4X22788   1.441   6.743  12.560 -3.5366  1.3044  2.2503
  185DOPC   H4Y22789   1.554   6.636  12.656 -0.4314 -0.9470  1.7863
  185DOPC   C3522790   1.364   6.694  12.751  0.7013  0.3959  0.3357
  185DOPC   H5X22791   1.346   6.599  12.806 -0.3030  1.7536  2.4570
  185DOPC   H5Y22792   1.262   6.723  12.718  1.0491  0.8017 -0.4277
  185DOPC   C3622793   1.409   6.807  12.846 -0.2426 -0.2731  0.5090
  185DOPC   H6X22794   1.516   6.785  12.870 -0.2563 -0.7199  0.1660
  185DOPC   H6Y22795   1.400   6.901  12.788  1.7846 -0.2863  0.0945
  185DOPC   C3722796   1.332   6.808  12.981  1.0083 -0.3114  0.1337
  185DOPC   H7X22797   1.227   6.777  12.965  1.2232 -1.1942  0.3505
  185DOPC   H7Y22798   1.373   6.734  13.053 -2.2444 -1.2522  1.1837
  185DOPC   C3822799   1.325   6.948  13.040  0.1193 -0.2482 -0.3858
  185DOPC   H8X22800   1.277   6.941  13.140 -0.8132 -0.7445 -0.8534
  185DOPC   H8Y22801   1.254   7.005  12.976 -0.0697 -0.0962 -0.0389
  185DOPC   C3922802   1.454   7.020  13.054 -0.8538  0.0409  0.5276
  185DOPC   H9X22803   1.540   6.974  13.002 -1.4622  1.0470 -1.4922
  185DOPC  C31022804   1.463   7.134  13.126 -0.6140 -0.1975  0.5886
  185DOPC  H10X22805   1.561   7.183  13.125 -1.2572  1.1749 -1.2929
  185DOPC  C31122806   1.352   7.196  13.215  0.5500 -0.5233  0.3779
  185DOPC  H11X22807   1.254   7.153  13.185  0.5899 -0.5463  0.2765
  185DOPC  H11Y22808   1.330   7.302  13.192 -0.8394  0.2732  4.5137
  185DOPC  C31222809   1.372   7.187  13.366 -0.4848  1.1824 -0.0766
  185DOPC  H12X22810   1.369   7.085  13.408  1.0691  1.5873  1.0794
  185DOPC  H12Y22811   1.288   7.233  13.422  1.1057 -1.7825  5.4571
  185DOPC  C31322812   1.498   7.271  13.409  0.1539  0.9684  0.3974
  185DOPC  H13X22813   1.589   7.217  13.375  0.4610  1.3740  0.5627
  185DOPC  H13Y22814   1.486   7.367  13.355 -1.8876  0.6968  0.2929
  185DOPC  C31422815   1.520   7.293  13.562  0.2610  0.1870 -0.1994
  185DOPC  H14X22816   1.444   7.367  13.594  1.6234  1.4672  0.2268
  185DOPC  H14Y22817   1.503   7.196  13.613  2.7931 -1.3946 -2.0815
  185DOPC  C31522818   1.655   7.361  13.593 -0.3454 -0.0203 -0.2493
  185DOPC  H15X22819   1.680   7.436  13.515  0.6485 -1.2973 -1.1922
  185DOPC  H15Y22820   1.729   7.279  13.599 -1.0586 -0.6681 -0.0681
  185DOPC  C31622821   1.648   7.439  13.726 -0.6136 -0.1373  0.3644
  185DOPC  H16X22822   1.588   7.531  13.708  0.3469  0.4684  0.1597
  185DOPC  H16Y22823   1.602   7.369  13.799  0.1612 -1.5016 -0.4250
  185DOPC  C31722824   1.787   7.487  13.777 -0.3779  0.3741  0.4569
  185DOPC  H17X22825   1.764   7.553  13.863 -0.4810 -1.2853  1.7579
  185DOPC  H17Y22826   1.854   7.405  13.811  1.3625  0.8365 -1.6234
  185DOPC  C31822827   1.862   7.572  13.675 -0.4625 -0.0930  0.2207
  185DOPC  H18X22828   1.789   7.645  13.633 -2.7565 -1.4606  1.5881
  185DOPC  H18Y22829   1.945   7.624  13.728  2.2930 -2.3826 -1.5617
  185DOPC  H18Z22830   1.902   7.513  13.590  2.9656  1.4645  0.5881
  186DOPC     N22831   1.659   3.804  13.062 -0.0224  0.2082  0.8252
  186DOPC   C1222832   1.659   3.670  13.118 -0.0959 -0.0439 -0.5978
  186DOPC  H12A22833   1.557   3.643  13.142  0.4412 -0.5110  1.3534
  186DOPC  H12B22834   1.708   3.672  13.215 -2.7149 -0.9175  0.8568
  186DOPC   C1322835   1.801   3.844  13.027 -0.1929  0.2692 -0.0916
  186DOPC  H13A22836   1.856   3.839  13.120 -1.7979 -1.0816  0.8483
  186DOPC  H13B22837   1.838   3.772  12.956  0.4629  0.1616  0.3447
  186DOPC  H13C22838   1.807   3.941  12.980 -0.2829 -0.2427 -1.1905
  186DOPC   C1422839   1.617   3.909  13.154  0.2698  0.0765 -0.3889
  186DOPC  H14A22840   1.629   3.897  13.260 -1.8357  1.4446  0.0825
  186DOPC  H14B22841   1.659   4.008  13.139 -0.3767  0.5164  0.5929
  186DOPC  H14C22842   1.512   3.927  13.138  0.0190  0.7665  1.7038
  186DOPC   C1522843   1.581   3.817  12.938  0.3928 -0.1083  0.0598
  186DOPC  H15A22844   1.478   3.805  12.966  0.4134  0.7443  0.5646
  186DOPC  H15B22845   1.587   3.740  12.862  1.5039  0.2321 -0.2222
  186DOPC  H15C22846   1.597   3.910  12.886  2.3728 -2.2139 -3.4847
  186DOPC   C1122847   1.730   3.557  13.044  0.7600  0.2459  0.0456
  186DOPC  H11A22848   1.837   3.587  13.049  0.7210  0.1894  1.6065
  186DOPC  H11B22849   1.727   3.469  13.110 -0.5756 -0.7488 -1.2673
  186DOPC     P22850   1.544   3.468  12.880 -0.6564  0.2269 -0.2932
  186DOPC   O1322851   1.537   3.457  12.734 -0.5764  0.3761  0.1185
  186DOPC   O1422852   1.439   3.555  12.939 -0.1253 -0.6160 -0.2164
  186DOPC   O1222853   1.683   3.541  12.911  0.5638 -0.0411  0.3702
  186DOPC   O1122854   1.548   3.329  12.947  0.1021  0.1502 -0.7599
  186DOPC    C122855   1.429   3.258  12.995  0.4214  0.1575  0.0504
  186DOPC    HA22856   1.443   3.148  12.991 -0.0225  0.0877  0.3406
  186DOPC    HB22857   1.345   3.285  12.927 -1.2287 -1.2968  1.3989
  186DOPC    C222858   1.395   3.305  13.147  0.0363  0.2536  0.5656
  186DOPC    HS22859   1.371   3.413  13.145 -2.0855 -0.1431 -2.3187
  186DOPC   O2122860   1.512   3.286  13.231 -0.0736 -0.0730 -0.3691
  186DOPC   C2122861   1.536   3.369  13.327 -0.2606  0.1695 -0.1191
  186DOPC   O2222862   1.463   3.455  13.370  0.4565  0.3709 -0.1144
  186DOPC   C2222863   1.680   3.333  13.370 -0.6853 -0.6373 -0.0352
  186DOPC   H2R22864   1.718   3.418  13.431  0.5435 -1.4880  0.4186
  186DOPC   H2S22865   1.751   3.336  13.284 -0.2333 -0.7050  0.3265
  186DOPC    C322866   1.273   3.232  13.206  0.2164  0.7325 -0.0255
  186DOPC    HX22867   1.282   3.121  13.199  2.2762  0.7145  1.6684
  186DOPC    HY22868   1.177   3.260  13.160  0.5903 -0.2558 -1.4845
  186DOPC   O3122869   1.273   3.261  13.350 -0.1364  0.0778  0.4653
  186DOPC   C3122870   1.197   3.368  13.379  0.0017  0.4622 -0.3486
  186DOPC   O3222871   1.148   3.446  13.302  0.7244  0.2785  0.5800
  186DOPC   C3222872   1.167   3.372  13.530  0.1447  0.1152 -0.2675
  186DOPC   H2X22873   1.123   3.274  13.558  3.2756 -0.8754  1.8000
  186DOPC   H2Y22874   1.258   3.394  13.590 -0.4962  1.0135  0.4089
  186DOPC   C2322875   1.704   3.203  13.452  0.0727  0.3095 -0.6882
  186DOPC   H3R22876   1.813   3.209  13.471 -0.1719 -1.4874  1.7156
  186DOPC   H3S22877   1.678   3.117  13.386  1.3157 -1.2840  0.8347
  186DOPC   C2422878   1.624   3.202  13.585  0.0383  0.4326  0.1718
  186DOPC   H4R22879   1.609   3.308  13.615  0.7119  0.6005 -0.0696
  186DOPC   H4S22880   1.666   3.148  13.673 -2.0811 -1.1786  0.2617
  186DOPC   C2522881   1.495   3.130  13.564 -0.2249  0.6337 -0.2246
  186DOPC   H5R22882   1.516   3.024  13.539 -0.6639  0.4968 -0.0104
  186DOPC   H5S22883   1.437   3.176  13.481 -0.2915  0.5430 -0.2278
  186DOPC   C2622884   1.403   3.108  13.683  0.3952 -0.3222  0.3701
  186DOPC   H6R22885   1.314   3.079  13.623  1.0087 -1.3566 -0.0761
  186DOPC   H6S22886   1.389   3.204  13.737  0.1994  0.4474 -0.9832
  186DOPC   C2722887   1.444   2.992  13.778 -0.4614 -0.2586  0.1635
  186DOPC   H7R22888   1.524   3.029  13.846  0.0890 -0.5999 -0.2874
  186DOPC   H7S22889   1.478   2.905  13.718  0.2196 -0.8257  1.3283
  186DOPC   C2822890   1.336   2.934  13.869  0.0193  0.2284  0.8808
  186DOPC   H8R22891   1.395   2.861  13.929  0.4854 -2.3052 -2.3618
  186DOPC   H8S22892   1.269   2.872  13.806  1.9807 -0.9312 -0.1876
  186DOPC   C2922893   1.249   3.029  13.951 -1.1830 -0.7254  0.3594
  186DOPC   H9R22894   1.196   3.107  13.894 -2.4040 -0.0924  2.2516
  186DOPC  C21022895   1.206   3.010  14.075  0.4870  0.0889  0.0178
  186DOPC  H10R22896   1.143   3.093  14.112 -0.1004 -0.4144  0.1602
  186DOPC  C21122897   1.242   2.896  14.178  0.2344  0.2614 -0.7993
  186DOPC  H11R22898   1.301   2.817  14.127  1.7435  0.7814  0.0596
  186DOPC  H11S22899   1.149   2.855  14.221  0.8404  0.3507  0.6429
  186DOPC  C21222900   1.332   2.937  14.293 -0.2973 -0.0833 -0.2942
  186DOPC  H12R22901   1.292   3.022  14.353  0.1220  0.2469 -0.4774
  186DOPC  H12S22902   1.423   2.979  14.246 -1.1910  0.5932 -1.4859
  186DOPC  C21322903   1.356   2.823  14.398 -0.1964 -0.3086  0.5427
  186DOPC  H13R22904   1.414   2.758  14.329  1.2871  1.6208 -0.1115
  186DOPC  H13S22905   1.260   2.780  14.434 -0.0894 -1.4177 -0.4214
  186DOPC  C21422906   1.444   2.865  14.509 -0.2560  0.5151  0.2491
  186DOPC  H14R22907   1.419   2.960  14.561  1.1457  0.6869  0.6549
  186DOPC  H14S22908   1.550   2.875  14.475 -1.2993  0.7747 -3.3584
  186DOPC  C21522909   1.457   2.770  14.631  0.8510 -0.3470 -0.2167
  186DOPC  H15R22910   1.508   2.687  14.577  2.8460  0.2178  0.6745
  186DOPC  H15S22911   1.357   2.750  14.675  0.1470  2.2288 -0.4844
  186DOPC  C21622912   1.533   2.829  14.750 -0.1401 -0.2703 -0.0738
  186DOPC  H16R22913   1.459   2.885  14.812  1.3429  2.0338 -0.2402
  186DOPC  H16S22914   1.605   2.907  14.715 -1.8046  1.0494 -0.6881
  186DOPC  C21722915   1.590   2.712  14.824 -0.1211  0.3548  0.0518
  186DOPC  H17R22916   1.647   2.633  14.770 -2.3235 -3.8043  3.1982
  186DOPC  H17S22917   1.502   2.653  14.858 -0.7357  0.4132 -1.4070
  186DOPC  C21822918   1.657   2.744  14.955  0.0943  0.0645 -0.1388
  186DOPC  H18R22919   1.580   2.775  15.030 -0.5420  1.4030 -1.2785
  186DOPC  H18S22920   1.722   2.834  14.953 -0.5042  0.5513  1.2165
  186DOPC  H18T22921   1.717   2.658  14.991  1.7102  0.2759 -2.1611
  186DOPC   C3322922   1.062   3.476  13.581 -0.2274  0.9171 -0.1205
  186DOPC   H3X22923   0.967   3.457  13.527  1.2274 -0.7418 -2.2916
  186DOPC   H3Y22924   1.101   3.572  13.541  1.4353  0.3934  0.1431
  186DOPC   C3422925   1.044   3.484  13.728 -0.1112  0.1521 -0.3881
  186DOPC   H4X22926   1.033   3.388  13.783 -2.6332  1.4038  1.4692
  186DOPC   H4Y22927   0.946   3.533  13.742 -0.8605 -1.2905 -0.3517
  186DOPC   C3522928   1.179   3.544  13.783  0.2915 -0.3454  0.0403
  186DOPC   H5X22929   1.204   3.645  13.745 -1.0466  1.2964  3.1689
  186DOPC   H5Y22930   1.273   3.485  13.778  1.6658  1.7850 -0.6893
  186DOPC   C3622931   1.164   3.567  13.933  0.2097  0.2160 -0.2660
  186DOPC   H6X22932   1.074   3.631  13.947 -0.2277 -0.6946  1.2924
  186DOPC   H6Y22933   1.153   3.472  13.990 -0.7320  0.3458 -0.2185
  186DOPC   C3722934   1.277   3.633  14.004  0.0996  0.0554  0.0446
  186DOPC   H7X22935   1.371   3.609  13.950 -0.6477 -1.6226 -0.5822
  186DOPC   H7Y22936   1.264   3.742  13.990 -2.8343 -0.3279 -0.8224
  186DOPC   C3822937   1.286   3.590  14.156 -0.0853 -0.4847  0.0896
  186DOPC   H8X22938   1.371   3.643  14.204 -0.1555 -1.3799  1.2746
  186DOPC   H8Y22939   1.319   3.485  14.173  3.4394  0.7313  1.6928
  186DOPC   C3922940   1.158   3.634  14.235 -0.6680  0.4538 -0.5167
  186DOPC   H9X22941   1.120   3.736  14.216 -0.7480  0.5983  0.3747
  186DOPC  C31022942   1.093   3.551  14.324  0.4552 -0.8898  0.5934
  186DOPC  H10X22943   1.011   3.600  14.379  0.9483 -0.4914  0.9707
  186DOPC  C31122944   1.135   3.412  14.368 -0.6332  0.1280 -0.1179
  186DOPC  H11X22945   1.238   3.391  14.332  0.9019  0.8846  3.3671
  186DOPC  H11Y22946   1.066   3.335  14.327 -0.0888  0.0807 -0.9591
  186DOPC  C31222947   1.154   3.388  14.520  0.1059 -0.2170 -0.3113
  186DOPC  H12X22948   1.241   3.452  14.547  0.8453 -0.9636 -0.8460
  186DOPC  H12Y22949   1.185   3.283  14.539  1.9862  0.5427  1.1072
  186DOPC  C31322950   1.045   3.430  14.615  0.1932 -0.6780 -0.6027
  186DOPC  H13X22951   1.033   3.541  14.609 -0.4319 -0.5857  1.4871
  186DOPC  H13Y22952   0.947   3.384  14.589  0.1645 -1.3361  0.6080
  186DOPC  C31422953   1.069   3.410  14.764 -0.0100 -0.1248  0.0140
  186DOPC  H14X22954   1.163   3.458  14.799 -0.2940  0.2573  0.2552
  186DOPC  H14Y22955   0.994   3.453  14.833  1.2025  1.0087  0.6797
  186DOPC  C31522956   1.064   3.256  14.803  0.1145 -0.2832 -0.9124
  186DOPC  H15X22957   1.114   3.252  14.903 -0.2718 -0.5698 -0.7295
  186DOPC  H15Y22958   1.133   3.206  14.732 -1.2460 -1.2985 -1.5466
  186DOPC  C31622959   0.930   3.186  14.786  0.0477  0.1844  0.0058
  186DOPC  H16X22960   0.850   3.233  14.847  0.2325  0.2255  0.2160
  186DOPC  H16Y22961   0.900   3.190  14.679  0.2615  0.8063 -0.0351
  186DOPC  C31722962   0.937   3.037  14.824 -0.8305  0.6522 -0.0696
  186DOPC  H17X22963   0.974   3.034  14.928  0.8109  1.6923 -0.5816
  186DOPC  H17Y22964   0.836   2.992  14.815 -0.4624 -0.1781 -0.0995
  186DOPC  C31822965   1.037   2.948  14.730  0.3996  0.0971 -0.6055
  186DOPC  H18X22966   1.015   2.977  14.626 -1.4368  0.3624 -0.1831
  186DOPC  H18Y22967   1.143   2.959  14.761  0.6651 -0.3784 -1.3286
  186DOPC  H18Z22968   1.010   2.841  14.749  0.1281  0.4317  1.0596
  187DOPC     N22969   0.773   1.383  11.857  0.8971 -0.4394 -0.4405
  187DOPC   C1222970   0.726   1.359  11.998 -0.4374  0.4822 -0.3385
  187DOPC  H12A22971   0.630   1.309  12.000 -0.9634  1.0068 -4.4865
  187DOPC  H12B22972   0.706   1.453  12.047  0.5637  0.0508  0.9400
  187DOPC   C1322973   0.872   1.499  11.867  0.4299 -0.1896  0.3448
  187DOPC  H13A22974   0.935   1.499  11.779 -0.6118 -3.0196 -0.5081
  187DOPC  H13B22975   0.811   1.586  11.886 -0.1798 -0.4350 -0.4645
  187DOPC  H13C22976   0.929   1.488  11.958  0.1223 -0.0410  0.5587
  187DOPC   C1422977   0.661   1.418  11.766 -0.3991  0.2472  0.3294
  187DOPC  H14A22978   0.697   1.457  11.672 -3.4566  2.5572 -0.0406
  187DOPC  H14B22979   0.612   1.325  11.740  1.2254 -1.2164  2.2249
  187DOPC  H14C22980   0.590   1.487  11.811  0.4797  0.9244  0.7003
  187DOPC   C1522981   0.841   1.269  11.791 -0.3762  0.1511 -0.1090
  187DOPC  H15A22982   0.776   1.184  11.785 -0.0219 -0.2733  1.4587
  187DOPC  H15B22983   0.930   1.235  11.842 -0.2959 -0.4763 -0.6616
  187DOPC  H15C22984   0.864   1.295  11.689 -2.8662  2.1829 -0.2647
  187DOPC   C1122985   0.825   1.279  12.086 -0.0207  0.5007  0.2121
  187DOPC  H11A22986   0.931   1.305  12.065 -0.1975  0.2752 -1.0511
  187DOPC  H11B22987   0.816   1.312  12.192  2.7058 -0.2121  0.7305
  187DOPC     P22988   0.680   1.071  12.154  0.1056  0.1758  0.2405
  187DOPC   O1322989   0.658   0.943  12.090 -0.2353  0.3245 -0.3155
  187DOPC   O1422990   0.562   1.164  12.158 -0.8336 -0.3140 -0.7163
  187DOPC   O1222991   0.800   1.146  12.081 -0.1331  0.1042  0.2364
  187DOPC   O1122992   0.740   1.048  12.298  0.3382 -0.2166  0.1989
  187DOPC    C122993   0.806   0.930  12.341 -0.4174  0.6782  0.7717
  187DOPC    HA22994   0.907   0.932  12.294 -0.3874  0.2280  0.8153
  187DOPC    HB22995   0.755   0.834  12.319  0.2571 -0.1644  2.7173
  187DOPC    C222996   0.853   0.935  12.493  0.2659  0.4448  0.0134
  187DOPC    HS22997   0.855   0.832  12.533 -3.0210 -0.3459 -1.5398
  187DOPC   O2122998   0.765   1.012  12.568 -0.0034 -0.0377  0.4428
  187DOPC   C2122999   0.652   0.959  12.584 -0.0699  0.9810 -0.8563
  187DOPC   O2223000   0.622   0.838  12.567 -0.0844  0.1430 -0.6325
  187DOPC   C2223001   0.558   1.053  12.654 -0.3403 -0.1768  0.5245
  187DOPC   H2R23002   0.457   1.024  12.620  0.2997 -1.4387 -0.3901
  187DOPC   H2S23003   0.580   1.159  12.631 -0.7919  0.0530  1.1238
  187DOPC    C323004   0.993   0.995  12.503 -0.4210  0.1742 -0.1188
  187DOPC    HX23005   1.006   1.089  12.445 -0.4436 -0.0023 -0.4175
  187DOPC    HY23006   1.054   0.915  12.454  2.6955  2.4676 -0.2674
  187DOPC   O3123007   1.036   1.009  12.638 -0.1180 -0.4087  0.1701
  187DOPC   C3123008   1.021   1.125  12.694  0.2424 -0.7751 -0.0684
  187DOPC   O3223009   0.976   1.225  12.641  0.9393  0.2661 -0.4749
  187DOPC   C3223010   1.072   1.116  12.839  0.1914 -0.2370  0.3913
  187DOPC   H2X23011   1.015   1.033  12.884 -0.4480 -1.9440 -3.2209
  187DOPC   H2Y23012   1.179   1.086  12.847  0.0166 -2.0348 -2.5438
  187DOPC   C2323013   0.569   1.029  12.806  0.6025  0.0199 -0.6613
  187DOPC   H3R23014   0.664   1.067  12.849  0.7499 -1.7402  0.6629
  187DOPC   H3S23015   0.559   0.920  12.826 -0.7007  0.1456 -0.5357
  187DOPC   C2423016   0.448   1.093  12.876 -0.1101  0.4700 -0.0912
  187DOPC   H4R23017   0.353   1.065  12.824  0.1608 -0.8560  0.1054
  187DOPC   H4S23018   0.457   1.204  12.880  1.2019  0.3760 -0.2028
  187DOPC   C2523019   0.444   1.036  13.018  0.3439  0.1468  0.4044
  187DOPC   H5R23020   0.538   1.051  13.077 -0.2661 -0.1353  1.4792
  187DOPC   H5S23021   0.425   0.927  13.019 -0.4839  0.2798  1.3724
  187DOPC   C2623022   0.330   1.098  13.097 -0.7700  0.0599 -0.1104
  187DOPC   H6R23023   0.234   1.086  13.043  0.1179  1.1173 -2.0306
  187DOPC   H6S23024   0.359   1.205  13.101  0.8213 -0.3759  1.4217
  187DOPC   C2723025   0.315   1.033  13.238 -0.5165 -0.6428 -0.3736
  187DOPC   H7R23026   0.401   1.049  13.306 -1.0406  0.8799 -0.0338
  187DOPC   H7S23027   0.322   0.926  13.207  1.5731  0.0361 -2.5530
  187DOPC   C2823028   0.183   1.067  13.305  1.1064  0.3503 -0.4133
  187DOPC   H8R23029   0.173   1.023  13.406 -2.2000  1.2408 -0.2397
  187DOPC   H8S23030   0.096   1.023  13.252  0.1043  1.3592  0.3490
  187DOPC   C2923031   0.160   1.218  13.320 -0.1124  0.2492 -0.2097
  187DOPC   H9R23032   0.126   1.273  13.231 -0.5795  1.5982  0.7635
  187DOPC  C21023033   0.174   1.291  13.429 -0.1904 -0.0290 -0.6083
  187DOPC  H10R23034   0.146   1.397  13.420 -0.5475  0.1823  2.1805
  187DOPC  C21123035   0.232   1.271  13.563  0.2541  0.7163 -0.1437
  187DOPC  H11R23036   0.306   1.350  13.590 -1.2212  1.8095  0.8429
  187DOPC  H11S23037   0.288   1.175  13.567  1.5522  1.4700  1.0221
  187DOPC  C21223038   0.123   1.287  13.674 -0.3494  0.4988 -0.3526
  187DOPC  H12R23039   0.079   1.387  13.656  0.2845  0.5463 -1.7398
  187DOPC  H12S23040   0.181   1.293  13.768  0.1387  2.2564 -0.7326
  187DOPC  C21323041   0.018   1.176  13.671 -0.2077 -0.1777 -0.1200
  187DOPC  H13R23042   0.065   1.079  13.698  1.5783  0.8187  0.5239
  187DOPC  H13S23043  -0.027   1.174  13.569 -1.5721  0.5551  0.4359
  187DOPC  C21423044  -0.102   1.212  13.764  0.2776 -0.1130 -0.3010
  187DOPC  H14R23045  -0.176   1.130  13.750  1.5842 -1.3514 -0.0955
  187DOPC  H14S23046  -0.154   1.302  13.724  1.0590  0.6277  0.3241
  187DOPC  C21523047  -0.063   1.229  13.911  0.1509 -0.6813 -0.0260
  187DOPC  H15R23048   0.011   1.312  13.917  1.1547 -1.5515  0.1551
  187DOPC  H15S23049  -0.013   1.135  13.945  1.4495  0.3779  1.1320
  187DOPC  C21623050  -0.179   1.233  14.006 -0.0807 -0.9133 -0.4780
  187DOPC  H16R23051  -0.239   1.140  14.003 -1.1482 -0.2420 -0.2353
  187DOPC  H16S23052  -0.230   1.325  13.973  0.6887  0.2167  1.3435
  187DOPC  C21723053  -0.137   1.255  14.148 -0.0320 -0.6592 -0.1736
  187DOPC  H17R23054  -0.236   1.286  14.188 -0.6057 -0.3079 -1.7901
  187DOPC  H17S23055  -0.080   1.350  14.152 -3.2638  1.5153 -1.4280
  187DOPC  C21823056  -0.069   1.135  14.221  0.3767 -0.8319  0.2847
  187DOPC  H18R23057  -0.097   1.155  14.326 -1.5629 -0.6275 -0.2229
  187DOPC  H18S23058   0.040   1.137  14.202  0.3051  2.7692 -0.5624
  187DOPC  H18T23059  -0.112   1.039  14.184 -0.0246 -0.9524  1.0511
  187DOPC   C3323060   1.063   1.248  12.917  0.6652  0.1399 -0.7831
  187DOPC   H3X23061   0.957   1.278  12.914  0.7427  0.5072 -0.1085
  187DOPC   H3Y23062   1.111   1.332  12.863 -0.3175  0.8984 -0.5038
  187DOPC   C3423063   1.109   1.227  13.066 -0.2448  0.0428  0.6915
  187DOPC   H4X23064   1.209   1.179  13.071  0.2952  1.1553  0.8040
  187DOPC   H4Y23065   1.023   1.170  13.106  0.0379  0.4440  1.8928
  187DOPC   C3523066   1.117   1.346  13.153  0.5677  0.0868  0.4004
  187DOPC   H5X23067   1.020   1.399  13.155  0.8191  0.6843 -1.2844
  187DOPC   H5Y23068   1.199   1.417  13.129 -0.9895  1.5312 -0.8768
  187DOPC   C3623069   1.142   1.316  13.304 -0.2894  0.6664 -0.6592
  187DOPC   H6X23070   1.050   1.275  13.352 -0.7173  0.1603 -1.8675
  187DOPC   H6Y23071   1.217   1.235  13.297 -1.5663 -0.9706  2.5472
  187DOPC   C3723072   1.179   1.434  13.396  0.1808 -1.6402  0.1973
  187DOPC   H7X23073   1.283   1.458  13.367 -0.0818  0.5239  0.8593
  187DOPC   H7Y23074   1.122   1.529  13.385  2.2453 -0.1909  1.3496
  187DOPC   C3823075   1.169   1.408  13.548 -0.7061  0.2262 -0.1300
  187DOPC   H8X23076   1.211   1.496  13.601  0.3311  0.8735 -1.9449
  187DOPC   H8Y23077   1.237   1.323  13.571  0.3714  0.8317 -0.9801
  187DOPC   C3923078   1.027   1.390  13.601 -0.0761 -1.0090 -0.0363
  187DOPC   H9X23079   0.942   1.423  13.538 -0.8676 -1.3716  0.8189
  187DOPC  C31023080   1.004   1.325  13.718 -0.4931 -0.0728  0.2920
  187DOPC  H10X23081   0.895   1.318  13.736 -1.0021  3.2578 -0.8576
  187DOPC  C31123082   1.111   1.279  13.825  0.8568  0.3736  0.7752
  187DOPC  H11X23083   1.212   1.323  13.809  1.4744 -1.6859 -1.5868
  187DOPC  H11Y23084   1.138   1.173  13.810  1.9490  0.9615 -2.1477
  187DOPC  C31223085   1.049   1.304  13.960 -0.1517 -0.2697  0.2808
  187DOPC  H12X23086   1.118   1.271  14.041  0.5721 -0.2213 -0.3078
  187DOPC  H12Y23087   0.961   1.237  13.973 -0.3388  0.0259  0.5716
  187DOPC  C31323088   1.009   1.443  13.980  0.2058  0.1525 -0.1858
  187DOPC  H13X23089   1.100   1.504  13.959  2.4825 -2.6009  1.0350
  187DOPC  H13Y23090   0.929   1.474  13.910  0.2426 -0.8398 -0.6743
  187DOPC  C31423091   0.971   1.477  14.130  0.3010 -0.4224 -0.1952
  187DOPC  H14X23092   0.878   1.423  14.158  1.0211 -1.9843 -0.6842
  187DOPC  H14Y23093   1.050   1.433  14.195 -0.3293 -0.9993  0.1924
  187DOPC  C31523094   0.947   1.630  14.155 -0.1781  0.9243 -0.1981
  187DOPC  H15X23095   0.857   1.660  14.097 -0.7036  1.5297  0.9008
  187DOPC  H15Y23096   1.030   1.697  14.126 -1.5304  2.8906  0.2553
  187DOPC  C31623097   0.912   1.666  14.298 -0.5876  0.5534 -0.4669
  187DOPC  H16X23098   0.990   1.648  14.375 -0.5237 -0.7208 -0.8044
  187DOPC  H16Y23099   0.899   1.776  14.301 -0.4910  0.5529  0.4827
  187DOPC  C31723100   0.772   1.613  14.350  0.8302 -0.6750  0.3493
  187DOPC  H17X23101   0.698   1.590  14.270  0.7740 -0.9323  0.4737
  187DOPC  H17Y23102   0.798   1.519  14.403  1.1619 -0.8703 -0.1520
  187DOPC  C31823103   0.707   1.707  14.454 -0.7983  0.2427 -0.6922
  187DOPC  H18X23104   0.683   1.809  14.417  0.9604  1.1505  0.4996
  187DOPC  H18Y23105   0.617   1.664  14.501 -0.3081 -0.3990 -0.3304
  187DOPC  H18Z23106   0.794   1.725  14.521  0.4378  0.4020 -2.2489
  188DOPC     N23107   3.936   3.667  12.782 -0.1240 -0.3808 -0.1346
  188DOPC   C1223108   3.959   3.523  12.795  0.2712  0.7749 -0.0680
  188DOPC  H12A23109   4.048   3.504  12.853  0.1145  0.2974  0.0235
  188DOPC  H12B23110   3.980   3.477  12.699 -1.0710 -0.6779  0.2991
  188DOPC   C1323111   3.816   3.692  12.690 -0.0189  0.1020 -0.4354
  188DOPC  H13A23112   3.796   3.796  12.669  2.1166  0.3998 -1.2298
  188DOPC  H13B23113   3.828   3.652  12.591 -1.0829 -0.0201 -0.5223
  188DOPC  H13C23114   3.726   3.643  12.724  0.2135 -0.6349 -0.8598
  188DOPC   C1423115   4.060   3.733  12.730  0.1088 -0.6989 -0.7450
  188DOPC  H14A23116   4.134   3.737  12.810 -1.4123 -1.0069  0.7434
  188DOPC  H14B23117   4.102   3.679  12.647  1.0311  0.5398 -1.1228
  188DOPC  H14C23118   4.038   3.831  12.690  1.9867  0.6644  1.2790
  188DOPC   C1523119   3.901   3.729  12.920 -0.3486 -0.3136  0.5199
  188DOPC  H15A23120   3.821   3.679  12.974  0.3769 -1.1423  0.8602
  188DOPC  H15B23121   3.871   3.831  12.905 -1.3605 -0.9420 -2.3735
  188DOPC  H15C23122   3.995   3.736  12.972  0.1259 -0.3431 -0.3195
  188DOPC   C1123123   3.837   3.443  12.854  0.9784  0.7546  0.3052
  188DOPC  H11A23124   3.880   3.346  12.886 -0.3683 -1.1390 -3.1084
  188DOPC  H11B23125   3.798   3.489  12.948 -0.7751 -0.0373 -0.0069
  188DOPC     P23126   3.743   3.299  12.661 -0.1311  0.4437 -0.0255
  188DOPC   O1323127   3.883   3.291  12.609  0.4974  0.0023  0.0960
  188DOPC   O1423128   3.636   3.303  12.568 -0.0295 -0.0185 -0.2701
  188DOPC   O1223129   3.737   3.418  12.758 -0.2324  0.0876 -0.1251
  188DOPC   O1123130   3.729   3.170  12.758 -0.0670 -0.2314 -0.3172
  188DOPC    C123131   3.620   3.129  12.843 -0.4754  0.3714  0.4597
  188DOPC    HA23132   3.592   3.024  12.821  3.0083 -0.6703  0.3473
  188DOPC    HB23133   3.524   3.182  12.825  1.0700  2.3170 -3.2448
  188DOPC    C223134   3.665   3.127  12.990  0.2128 -0.8312 -0.1429
  188DOPC    HS23135   3.700   3.231  13.006  2.2413 -1.3156 -1.0095
  188DOPC   O2123136   3.782   3.043  12.995  0.1770  0.0485  0.1502
  188DOPC   C2123137   3.869   3.073  13.086 -0.1758  0.3025 -0.0248
  188DOPC   O2223138   3.874   3.176  13.149  0.1608  0.1035  0.3892
  188DOPC   C2223139   3.970   2.957  13.090  0.3336  0.6529 -0.9377
  188DOPC   H2R23140   4.028   2.956  12.995  2.0292 -0.3124  0.0658
  188DOPC   H2S23141   3.914   2.862  13.098  1.8312 -0.1715  0.3249
  188DOPC    C323142   3.544   3.088  13.078 -0.5546  0.0970  0.1168
  188DOPC    HX23143   3.516   2.986  13.045  1.7894 -0.6010  0.0861
  188DOPC    HY23144   3.467   3.168  13.072 -2.9061 -1.9458  1.2657
  188DOPC   O3123145   3.579   3.076  13.220 -0.2073  0.3153 -0.2751
  188DOPC   C3123146   3.593   3.188  13.281  0.2508 -0.7227  0.3023
  188DOPC   O3223147   3.576   3.299  13.238  0.4719 -0.1805 -0.4852
  188DOPC   C3223148   3.650   3.162  13.420  0.1396 -0.4250  0.0540
  188DOPC   H2X23149   3.706   3.067  13.422  0.6968 -0.1236 -0.8210
  188DOPC   H2Y23150   3.732   3.237  13.415 -0.5356  0.2613 -3.6510
  188DOPC   C2323151   4.047   2.938  13.220 -0.3201  0.3961 -0.2982
  188DOPC   H3R23152   4.082   3.040  13.245 -1.8630  0.9001 -0.0756
  188DOPC   H3S23153   4.139   2.880  13.201 -1.7068 -2.7002  1.5479
  188DOPC   C2423154   3.968   2.881  13.338  0.1767 -0.2779 -0.5313
  188DOPC   H4R23155   3.923   2.784  13.309 -0.6858 -0.1040  0.1788
  188DOPC   H4S23156   3.882   2.950  13.354  0.4129 -0.0090 -0.4000
  188DOPC   C2523157   4.059   2.873  13.462 -0.3495 -0.5577  0.1798
  188DOPC   H5R23158   4.117   2.965  13.486 -0.2007  0.0205 -2.1383
  188DOPC   H5S23159   4.143   2.805  13.436  0.6414  1.1593 -1.3437
  188DOPC   C2623160   3.994   2.817  13.580  0.0673  0.2259 -0.8090
  188DOPC   H6R23161   4.076   2.782  13.645  1.1241 -1.0599 -2.7412
  188DOPC   H6S23162   3.936   2.728  13.547 -0.2601  0.2092 -0.2092
  188DOPC   C2723163   3.902   2.917  13.652  0.2710 -0.2021  0.3591
  188DOPC   H7R23164   3.817   2.950  13.587 -0.0647 -0.1305  0.8324
  188DOPC   H7S23165   3.949   3.016  13.670 -0.5275  0.3904 -0.6939
  188DOPC   C2823166   3.844   2.872  13.787  0.4261  0.3105  0.0690
  188DOPC   H8R23167   3.795   2.773  13.770  0.9195  0.3530 -1.7214
  188DOPC   H8S23168   3.759   2.933  13.824  0.4380 -0.5409  1.5964
  188DOPC   C2923169   3.958   2.874  13.882  0.4228  0.1443 -0.0449
  188DOPC   H9R23170   4.037   2.941  13.848  0.3298  0.5608  0.5364
  188DOPC  C21023171   3.966   2.802  13.993 -0.3676 -0.1735 -0.4335
  188DOPC  H10R23172   4.047   2.819  14.064  0.7664 -1.4157 -1.3821
  188DOPC  C21123173   3.873   2.694  14.043 -0.0829 -0.5440 -0.0135
  188DOPC  H11R23174   3.928   2.604  14.078 -0.2282 -0.2819  0.9451
  188DOPC  H11S23175   3.802   2.669  13.962 -0.1217  1.5584 -0.6981
  188DOPC  C21223176   3.781   2.740  14.153  0.4486 -0.2998  0.7024
  188DOPC  H12R23177   3.710   2.661  14.188  0.6646 -0.8805 -0.1355
  188DOPC  H12S23178   3.719   2.820  14.106  2.4433  1.2125  0.5324
  188DOPC  C21323179   3.845   2.800  14.277 -0.1475  0.4740 -0.1359
  188DOPC  H13R23180   3.890   2.896  14.242  0.0841 -0.3934 -2.3793
  188DOPC  H13S23181   3.921   2.745  14.336 -0.3183  1.0975  0.6950
  188DOPC  C21423182   3.741   2.840  14.386  0.3012 -0.3847 -0.3616
  188DOPC  H14R23183   3.701   2.746  14.429 -0.9099  0.5257  0.5841
  188DOPC  H14S23184   3.649   2.894  14.353  0.1056  0.3233  1.2635
  188DOPC  C21523185   3.803   2.897  14.516  0.0157  0.9944 -0.4615
  188DOPC  H15R23186   3.716   2.908  14.584 -0.7236  0.3396 -1.2782
  188DOPC  H15S23187   3.843   2.998  14.495 -1.5383  1.8431  0.4927
  188DOPC  C21623188   3.907   2.815  14.590  0.2977  0.0935 -0.4278
  188DOPC  H16R23189   3.996   2.809  14.523 -0.5830  0.2674 -1.6390
  188DOPC  H16S23190   3.874   2.710  14.604 -0.8603  0.1707 -2.3041
  188DOPC  C21723191   3.945   2.879  14.721 -0.2264 -0.2338  0.3342
  188DOPC  H17R23192   3.850   2.876  14.778  0.0050 -1.4009  0.7017
  188DOPC  H17S23193   3.977   2.980  14.687 -1.8691 -0.5196 -2.3746
  188DOPC  C21823194   4.063   2.821  14.805 -0.5826  0.4545 -0.2576
  188DOPC  H18R23195   4.050   2.716  14.838 -0.8795  0.1847 -1.1865
  188DOPC  H18S23196   4.095   2.883  14.891  0.0212 -2.0523  1.4340
  188DOPC  H18T23197   4.153   2.813  14.741  0.5530 -1.4311  1.4518
  188DOPC   C3323198   3.551   3.182  13.528  0.5607 -0.4045 -0.4406
  188DOPC   H3X23199   3.491   3.091  13.545 -0.3713  0.2094 -0.3832
  188DOPC   H3Y23200   3.481   3.253  13.478  0.2940 -1.7361 -2.0479
  188DOPC   C3423201   3.601   3.252  13.654 -0.4945  0.9383  0.0645
  188DOPC   H4X23202   3.610   3.362  13.643  0.5577  0.9057  0.5192
  188DOPC   H4Y23203   3.698   3.206  13.680  0.8504  2.7923 -1.3852
  188DOPC   C3523204   3.501   3.246  13.774 -1.3508 -0.8974  0.0010
  188DOPC   H5X23205   3.473   3.141  13.798  1.1206 -1.5979  0.0591
  188DOPC   H5Y23206   3.411   3.305  13.745 -1.5194 -1.4301 -0.5829
  188DOPC   C3623207   3.553   3.322  13.895  0.5584  0.4885  0.4440
  188DOPC   H6X23208   3.598   3.412  13.847  0.2740 -0.3185 -1.4550
  188DOPC   H6Y23209   3.476   3.358  13.966 -0.7728 -1.5306  0.1121
  188DOPC   C3723210   3.668   3.250  13.974  0.3943  0.2536 -0.3451
  188DOPC   H7X23211   3.743   3.202  13.907 -0.0837 -1.9755  0.6168
  188DOPC   H7Y23212   3.737   3.323  14.020 -1.8231  2.0892  0.2779
  188DOPC   C3823213   3.619   3.141  14.075  0.6703 -0.1055  0.4096
  188DOPC   H8X23214   3.710   3.093  14.117  0.9856  1.4462  1.5874
  188DOPC   H8Y23215   3.558   3.065  14.021  1.1093  0.6183 -1.1881
  188DOPC   C3923216   3.543   3.203  14.194  0.4088 -0.4871  0.2402
  188DOPC   H9X23217   3.434   3.201  14.185  0.4661  0.0167 -0.5751
  188DOPC  C31023218   3.594   3.233  14.316 -0.0187 -0.1183 -0.4908
  188DOPC  H10X23219   3.530   3.273  14.396 -0.1300 -1.3193  0.0355
  188DOPC  C31123220   3.743   3.243  14.352 -0.1429  0.1463  0.3637
  188DOPC  H11X23221   3.801   3.298  14.275  1.0066  1.9937  2.4310
  188DOPC  H11Y23222   3.792   3.143  14.351 -3.0778 -1.4220 -0.8819
  188DOPC  C31223223   3.762   3.309  14.488 -0.0179 -0.4678  0.4910
  188DOPC  H12X23224   3.733   3.416  14.483  0.2184 -0.3184  1.9973
  188DOPC  H12Y23225   3.870   3.314  14.512 -0.3040  1.9999  1.5637
  188DOPC  C31323226   3.694   3.245  14.608 -0.1826  0.5897  0.3937
  188DOPC  H13X23227   3.586   3.269  14.600 -0.1197  0.4505 -0.9768
  188DOPC  H13Y23228   3.697   3.134  14.615  0.4221  0.6056  0.3853
  188DOPC  C31423229   3.748   3.296  14.745 -0.1438  0.1703  0.1725
  188DOPC  H14X23230   3.852   3.259  14.757 -0.1058 -0.8004 -2.4894
  188DOPC  H14Y23231   3.761   3.406  14.741 -2.8597  0.6746  2.3103
  188DOPC  C31523232   3.662   3.267  14.869 -0.3223  0.5493 -0.4055
  188DOPC  H15X23233   3.555   3.273  14.841 -0.1335  2.0328 -0.9299
  188DOPC  H15Y23234   3.688   3.348  14.941  1.5127 -0.3938  0.0656
  188DOPC  C31623235   3.707   3.126  14.925  1.0686  0.0063 -0.8139
  188DOPC  H16X23236   3.707   3.054  14.840 -1.4086  0.4675 -1.3054
  188DOPC  H16Y23237   3.814   3.133  14.952  0.7621  1.5892  0.1739
  188DOPC  C31723238   3.625   3.076  15.037 -1.2844 -0.5614 -0.3107
  188DOPC  H17X23239   3.522   3.074  14.998 -0.7716 -0.8854 -1.7032
  188DOPC  H17Y23240   3.657   2.970  15.053 -0.1552 -0.0088  1.4312
  188DOPC  C31823241   3.635   3.161  15.165 -0.3600  0.1569  0.2242
  188DOPC  H18X23242   3.738   3.149  15.207 -0.2119 -0.7394 -0.3934
  188DOPC  H18Y23243   3.627   3.272  15.167  0.4487  0.2508 -0.9551
  188DOPC  H18Z23244   3.565   3.121  15.242  0.3155  0.5077  1.0442
  189DOPC     N23245   4.886   0.457  12.274 -0.7711 -0.1491  0.1267
  189DOPC   C1223246   4.834   0.348  12.368 -0.0454 -0.0254 -0.6862
  189DOPC  H12A23247   4.922   0.314  12.421 -0.8078  0.0890  0.6853
  189DOPC  H12B23248   4.800   0.266  12.306 -1.2305  0.6768 -0.9995
  189DOPC   C1323249   4.989   0.395  12.191  0.1898 -0.1668 -0.2008
  189DOPC  H13A23250   5.036   0.461  12.119  0.2282  0.7728  0.6565
  189DOPC  H13B23251   5.069   0.377  12.262 -0.7727 -0.7054  0.7763
  189DOPC  H13C23252   4.970   0.301  12.142  1.9437 -0.0633 -1.1507
  189DOPC   C1423253   4.949   0.569  12.356  0.0660  0.2636 -0.6948
  189DOPC  H14A23254   4.875   0.624  12.413 -0.4283 -0.3968 -0.6835
  189DOPC  H14B23255   5.021   0.520  12.421 -0.3422  0.7419  0.1338
  189DOPC  H14C23256   5.000   0.642  12.296  3.6179 -2.1936 -0.9862
  189DOPC   C1523257   4.779   0.514  12.184 -0.0324 -0.0440 -0.0197
  189DOPC  H15A23258   4.709   0.447  12.134 -0.2400 -0.4577  0.8148
  189DOPC  H15B23259   4.830   0.575  12.111  1.9110  1.1433  2.2046
  189DOPC  H15C23260   4.708   0.567  12.245 -0.2323 -0.0543 -0.2411
  189DOPC   C1123261   4.724   0.384  12.461 -0.0649 -0.5421  0.0217
  189DOPC  H11A23262   4.721   0.303  12.537 -2.5412  0.6912  1.3911
  189DOPC  H11B23263   4.747   0.473  12.524 -2.7820  0.5776 -0.3840
  189DOPC     P23264   4.493   0.498  12.440 -0.0888  0.2323  0.4969
  189DOPC   O1323265   4.361   0.443  12.427  0.0997  0.3161  0.0730
  189DOPC   O1423266   4.522   0.614  12.356  0.4393 -0.2208 -0.0595
  189DOPC   O1223267   4.597   0.390  12.395 -0.1310 -0.2934 -0.1625
  189DOPC   O1123268   4.529   0.526  12.590 -0.1565  0.0237 -0.2273
  189DOPC    C123269   4.421   0.574  12.677 -0.3154  0.0930  0.1320
  189DOPC    HA23270   4.338   0.501  12.686 -2.8252  1.9761 -4.2042
  189DOPC    HB23271   4.375   0.669  12.640  1.0896  0.4461 -0.7987
  189DOPC    C223272   4.475   0.588  12.823  0.5648 -0.3306  0.1827
  189DOPC    HS23273   4.382   0.578  12.882  0.5186 -2.3901 -0.1591
  189DOPC   O2123274   4.545   0.708  12.833  0.2750 -0.2785  0.4503
  189DOPC   C2123275   4.557   0.750  12.959 -0.4572  0.0318  0.7218
  189DOPC   O2223276   4.510   0.696  13.055  0.2666  0.6268 -0.3933
  189DOPC   C2223277   4.629   0.890  12.946  0.1442  0.1533  0.3298
  189DOPC   H2R23278   4.575   0.942  12.864 -0.7969 -1.2579  0.0124
  189DOPC   H2S23279   4.731   0.883  12.903 -1.2589 -1.6810 -3.0628
  189DOPC    C323280   4.559   0.456  12.861  0.8116 -0.5393  0.7619
  189DOPC    HX23281   4.661   0.465  12.818  0.2136  0.0580 -0.5675
  189DOPC    HY23282   4.515   0.368  12.810 -0.8600 -0.2779  1.6826
  189DOPC   O3123283   4.582   0.433  13.002  0.5865  0.1621  0.8241
  189DOPC   C3123284   4.479   0.390  13.056  0.3804  0.4135  0.6647
  189DOPC   O3223285   4.372   0.370  12.993  0.4264  0.4850  0.2042
  189DOPC   C3223286   4.489   0.364  13.206 -0.3527  0.3360 -0.2473
  189DOPC   H2X23287   4.390   0.357  13.255  0.1976  1.2723  1.0473
  189DOPC   H2Y23288   4.560   0.281  13.227  0.7181  1.2580 -0.1437
  189DOPC   C2323289   4.630   0.972  13.079  0.1814  0.4621 -1.1922
  189DOPC   H3R23290   4.527   0.970  13.121  0.9642  1.1288  0.8902
  189DOPC   H3S23291   4.659   1.077  13.060  2.5070  0.2624  0.6571
  189DOPC   C2423292   4.732   0.926  13.180 -0.0605 -0.3123 -0.2259
  189DOPC   H4R23293   4.828   0.928  13.124  0.1536 -2.7710 -0.0603
  189DOPC   H4S23294   4.716   0.823  13.220  0.1565 -0.5428 -0.7340
  189DOPC   C2523295   4.754   1.027  13.289  0.0630 -0.7168 -0.0298
  189DOPC   H5R23296   4.782   1.128  13.252  0.0427  0.2941  2.4929
  189DOPC   H5S23297   4.835   0.995  13.358  0.7077  1.4512  0.3056
  189DOPC   C2623298   4.622   1.052  13.364  0.2182  0.6531  0.2178
  189DOPC   H6R23299   4.546   1.085  13.291  0.9413  1.2115 -0.3018
  189DOPC   H6S23300   4.637   1.147  13.420 -0.0929  1.1849 -0.5812
  189DOPC   C2723301   4.567   0.936  13.448  0.0568  0.9596 -0.1677
  189DOPC   H7R23302   4.582   0.840  13.395  0.8387  1.2308 -0.4493
  189DOPC   H7S23303   4.456   0.947  13.458 -0.0490 -0.4330  0.4652
  189DOPC   C2823304   4.646   0.917  13.579  0.1261  0.0455 -0.1116
  189DOPC   H8R23305   4.757   0.918  13.578  0.1812  2.5756  0.5966
  189DOPC   H8S23306   4.616   0.822  13.627 -0.3579  0.5290  0.5733
  189DOPC   C2923307   4.616   1.038  13.662  0.0388  0.5211 -0.3464
  189DOPC   H9R23308   4.655   1.131  13.617  1.0642  0.3655  0.1752
  189DOPC  C21023309   4.570   1.044  13.787 -0.0879 -0.1178 -0.6329
  189DOPC  H10R23310   4.582   1.140  13.841 -0.0702  0.3081 -1.3852
  189DOPC  C21123311   4.531   0.929  13.871  0.1508  0.1672  0.3063
  189DOPC  H11R23312   4.618   0.886  13.924 -0.4271 -0.4744  0.7406
  189DOPC  H11S23313   4.486   0.861  13.796  0.0645  2.4424 -1.8350
  189DOPC  C21223314   4.420   0.956  13.977 -0.9399  0.6464  0.2662
  189DOPC  H12R23315   4.382   0.857  14.008  2.6058 -0.9332  0.0625
  189DOPC  H12S23316   4.329   1.009  13.941 -1.2331  0.3268  0.5392
  189DOPC  C21323317   4.478   1.034  14.100 -0.2275 -0.1144 -0.0053
  189DOPC  H13R23318   4.499   1.140  14.074 -0.8223  0.0284  0.0808
  189DOPC  H13S23319   4.582   0.995  14.109  0.2925  0.5079 -2.4458
  189DOPC  C21423320   4.416   1.008  14.237 -0.0816  0.4447  0.1456
  189DOPC  H14R23321   4.418   0.897  14.247  0.3135  0.3401 -0.9592
  189DOPC  H14S23322   4.306   1.027  14.238 -0.5844 -1.5275 -3.1014
  189DOPC  C21523323   4.494   1.081  14.350 -0.1428  0.2303 -0.4970
  189DOPC  H15R23324   4.468   1.189  14.346  0.8124  0.7761  3.6047
  189DOPC  H15S23325   4.599   1.054  14.324  0.0715 -1.9310  2.1790
  189DOPC  C21623326   4.466   1.020  14.485 -0.9086 -0.0835 -0.4923
  189DOPC  H16R23327   4.565   1.017  14.535 -0.4182  0.3008 -1.4099
  189DOPC  H16S23328   4.439   0.913  14.476 -1.0364 -0.3005  1.8588
  189DOPC  C21723329   4.371   1.097  14.574  0.1264  0.2181 -0.2485
  189DOPC  H17R23330   4.271   1.095  14.526 -0.2642 -1.3813  0.5503
  189DOPC  H17S23331   4.418   1.197  14.584 -0.7693  0.6290 -0.0344
  189DOPC  C21823332   4.353   1.034  14.714  0.1191 -0.1874  0.6487
  189DOPC  H18R23333   4.305   0.934  14.703  1.5337 -0.9036  0.8129
  189DOPC  H18S23334   4.297   1.103  14.781  1.6933 -1.5600  3.5158
  189DOPC  H18T23335   4.450   1.009  14.760  0.4614 -0.6238 -0.2734
  189DOPC   C3323336   4.568   0.478  13.294  0.1804  0.3249  0.6496
  189DOPC   H3X23337   4.507   0.569  13.313 -0.3822 -0.1174  1.0142
  189DOPC   H3Y23338   4.647   0.526  13.233  0.5708  1.4567  1.9939
  189DOPC   C3423339   4.628   0.432  13.431  0.1712  0.0296 -0.3222
  189DOPC   H4X23340   4.722   0.373  13.421 -1.4356 -2.6603 -0.6887
  189DOPC   H4Y23341   4.552   0.359  13.467  0.1937 -0.1110 -0.5585
  189DOPC   C3523342   4.634   0.542  13.537  0.0923 -0.2138 -0.2229
  189DOPC   H5X23343   4.536   0.594  13.545 -0.5453 -1.4690  0.4815
  189DOPC   H5Y23344   4.701   0.622  13.501  0.6891 -0.5475  0.1310
  189DOPC   C3623345   4.645   0.490  13.683 -0.0021  0.1045  0.0892
  189DOPC   H6X23346   4.562   0.422  13.713  0.0425  0.5783  1.3235
  189DOPC   H6Y23347   4.744   0.442  13.690 -0.4926 -0.7063  1.8394
  189DOPC   C3723348   4.649   0.605  13.782  0.0793  0.2684  0.0235
  189DOPC   H7X23349   4.717   0.684  13.743  0.9523 -0.3514  0.2435
  189DOPC   H7Y23350   4.548   0.643  13.807 -0.7144  0.1722 -2.6961
  189DOPC   C3823351   4.715   0.572  13.921  0.6531  0.3338 -0.1346
  189DOPC   H8X23352   4.718   0.670  13.974  1.6190  0.4033 -0.2963
  189DOPC   H8Y23353   4.821   0.539  13.913  0.7010  0.4934 -0.1710
  189DOPC   C3923354   4.654   0.458  13.992  0.7340 -0.8749 -0.5095
  189DOPC   H9X23355   4.646   0.360  13.943  0.5674 -1.8783  1.4266
  189DOPC  C31023356   4.587   0.472  14.109  0.5404  0.1097 -0.8197
  189DOPC  H10X23357   4.545   0.386  14.163 -1.4594  2.2227  1.2065
  189DOPC  C31123358   4.580   0.590  14.206  0.2532 -0.1347 -0.1705
  189DOPC  H11X23359   4.473   0.620  14.211 -0.3170 -1.6625 -1.8963
  189DOPC  H11Y23360   4.647   0.675  14.182  2.3966 -1.7737 -0.3011
  189DOPC  C31223361   4.638   0.556  14.345  1.0307  0.3840 -0.1370
  189DOPC  H12X23362   4.748   0.560  14.328  1.2118 -0.5111  0.7521
  189DOPC  H12Y23363   4.618   0.451  14.373  1.3986 -0.0242 -1.3513
  189DOPC  C31323364   4.591   0.649  14.454 -0.5725  0.1745  0.3452
  189DOPC  H13X23365   4.630   0.748  14.423  1.3055 -0.0105  1.9377
  189DOPC  H13Y23366   4.480   0.654  14.459 -0.6265  0.3136 -0.8075
  189DOPC  C31423367   4.645   0.622  14.598  0.2718 -0.2265  0.1388
  189DOPC  H14X23368   4.612   0.524  14.637  1.9427 -0.3448  1.3376
  189DOPC  H14Y23369   4.756   0.616  14.598  0.2514 -2.6455 -2.3426
  189DOPC  C31523370   4.608   0.738  14.688 -0.8306 -0.4788 -0.4361
  189DOPC  H15X23371   4.502   0.725  14.719 -0.4854 -0.8268  0.6440
  189DOPC  H15Y23372   4.618   0.837  14.638  0.8775  0.2015  1.1355
  189DOPC  C31623373   4.700   0.745  14.807  0.3528  0.4263 -0.2798
  189DOPC  H16X23374   4.666   0.656  14.866  3.8971 -0.4621  0.6405
  189DOPC  H16Y23375   4.808   0.745  14.782  0.0474 -1.2652 -1.8330
  189DOPC  C31723376   4.674   0.869  14.905  0.0732  0.5200  0.0409
  189DOPC  H17X23377   4.698   0.968  14.860 -0.1343  0.0917 -1.0478
  189DOPC  H17Y23378   4.568   0.863  14.938 -0.9839 -1.5356 -3.1714
  189DOPC  C31823379   4.744   0.860  15.042  0.0230  0.5137  0.2756
  189DOPC  H18X23380   4.726   0.954  15.098 -0.2640  1.1363 -0.8143
  189DOPC  H18Y23381   4.718   0.766  15.095 -0.0834 -1.4560 -2.9451
  189DOPC  H18Z23382   4.853   0.853  15.018 -0.2332  1.5867 -1.3854
  190DOPC     N23383   5.213   1.820  11.608 -0.7257 -0.1723 -0.0471
  190DOPC   C1223384   5.068   1.805  11.648  0.0166 -0.4206  1.2435
  190DOPC  H12A23385   5.023   1.732  11.582  0.9612  0.0895  0.0067
  190DOPC  H12B23386   5.024   1.901  11.628  0.7128 -0.0229  1.5998
  190DOPC   C1323387   5.283   1.691  11.598 -0.0573 -0.2127 -0.7319
  190DOPC  H13A23388   5.276   1.646  11.697 -0.8247  1.8042  0.1943
  190DOPC  H13B23389   5.234   1.620  11.532 -2.4533  0.7697 -0.1339
  190DOPC  H13C23390   5.386   1.699  11.567 -0.1571 -0.2647 -1.0811
  190DOPC   C1423391   5.292   1.903  11.712  0.2096  0.1877 -0.4456
  190DOPC  H14A23392   5.392   1.918  11.673  0.8704 -0.4147  0.9607
  190DOPC  H14B23393   5.247   1.999  11.736 -2.7984 -0.9919 -0.9776
  190DOPC  H14C23394   5.303   1.849  11.804  0.9825 -1.9013 -1.6928
  190DOPC   C1523395   5.230   1.904  11.487 -0.0988  1.2036  0.5060
  190DOPC  H15A23396   5.334   1.912  11.459 -0.6620  2.0603 -1.5262
  190DOPC  H15B23397   5.191   2.004  11.499 -1.3628  0.7575  0.3351
  190DOPC  H15C23398   5.171   1.869  11.403 -3.0161 -0.9119  3.2092
  190DOPC   C1123399   5.037   1.768  11.798  0.4095  0.2002  0.2278
  190DOPC  H11A23400   5.070   1.851  11.864  0.9039 -0.0879  0.3509
  190DOPC  H11B23401   4.926   1.765  11.802  0.4559 -0.2415  2.9248
  190DOPC     P23402   5.185   1.617  11.968 -0.2403  0.1966  0.2398
  190DOPC   O1323403   5.303   1.708  11.970  0.0843 -0.1243 -0.1816
  190DOPC   O1423404   5.209   1.470  11.982 -0.2616 -0.0179  0.4621
  190DOPC   O1223405   5.097   1.642  11.833 -0.3012  0.5498 -0.0951
  190DOPC   O1123406   5.092   1.667  12.082  0.3569 -0.2843 -0.0727
  190DOPC    C123407   4.963   1.603  12.112 -0.3629 -0.1877  0.0104
  190DOPC    HA23408   4.939   1.519  12.043 -0.8424  0.8094 -1.0682
  190DOPC    HB23409   4.888   1.679  12.083 -0.3915 -0.0432  0.4688
  190DOPC    C223410   4.949   1.575  12.261  0.1509 -0.4894 -0.2444
  190DOPC    HS23411   4.953   1.676  12.308  1.2739 -0.4866 -0.3193
  190DOPC   O2123412   5.048   1.493  12.312  0.0750 -0.3341 -0.6043
  190DOPC   C2123413   5.155   1.540  12.380 -0.3191 -0.0774 -0.0315
  190DOPC   O2223414   5.172   1.658  12.404  0.0218 -0.3729  0.5088
  190DOPC   C2223415   5.226   1.420  12.440 -0.1799 -0.5281 -0.1555
  190DOPC   H2R23416   5.285   1.365  12.365  1.8646  0.5095  0.6116
  190DOPC   H2S23417   5.152   1.351  12.486  0.4176  0.9698  3.3704
  190DOPC    C323418   4.810   1.511  12.296  1.1008  0.0373  0.8517
  190DOPC    HX23419   4.789   1.434  12.219  2.0204  1.6731 -1.1200
  190DOPC    HY23420   4.727   1.583  12.283  0.9483 -0.4345 -0.9878
  190DOPC   O3123421   4.808   1.449  12.423  0.2204  0.1172  0.4826
  190DOPC   C3123422   4.824   1.527  12.528 -0.2700  0.3170 -0.5192
  190DOPC   O3223423   4.840   1.647  12.524 -0.5273 -0.5191  0.2658
  190DOPC   C3223424   4.831   1.440  12.657  0.1957 -0.0923  0.8879
  190DOPC   H2X23425   4.732   1.406  12.694 -1.0787  0.0721 -2.0629
  190DOPC   H2Y23426   4.897   1.353  12.638  0.8212  0.1357  1.9596
  190DOPC   C2323427   5.337   1.458  12.543  0.3626  0.1309  0.5776
  190DOPC   H3R23428   5.405   1.534  12.500 -1.7198  1.2811 -0.8515
  190DOPC   H3S23429   5.385   1.359  12.560 -2.5071 -1.1604  1.8646
  190DOPC   C2423430   5.288   1.519  12.667 -0.1097  0.5334 -0.3989
  190DOPC   H4R23431   5.216   1.451  12.718 -0.2975  0.2066 -1.0911
  190DOPC   H4S23432   5.219   1.600  12.634  0.9350  0.6423 -2.4337
  190DOPC   C2523433   5.390   1.566  12.764 -0.2022  0.3600 -0.0847
  190DOPC   H5R23434   5.412   1.675  12.754  1.2669  0.0450 -0.4793
  190DOPC   H5S23435   5.485   1.510  12.746 -0.7285 -0.3217 -0.8137
  190DOPC   C2623436   5.348   1.531  12.910 -0.0560  0.0968 -0.9473
  190DOPC   H6R23437   5.340   1.420  12.911  0.4243  0.0597 -0.5534
  190DOPC   H6S23438   5.247   1.575  12.925 -1.2076 -1.2808 -3.8628
  190DOPC   C2723439   5.459   1.579  13.006 -0.6102  0.0928  0.4741
  190DOPC   H7R23440   5.494   1.680  12.976  2.9479 -1.6452 -1.7578
  190DOPC   H7S23441   5.547   1.523  12.969 -1.7278  0.7582 -3.7221
  190DOPC   C2823442   5.424   1.565  13.159  0.0565 -0.7806  0.1504
  190DOPC   H8R23443   5.364   1.474  13.184 -1.5864  0.0329 -0.6615
  190DOPC   H8S23444   5.352   1.648  13.173  1.3627  0.9867 -2.6061
  190DOPC   C2923445   5.545   1.588  13.242  0.3828 -0.4477 -0.7840
  190DOPC   H9R23446   5.635   1.628  13.192  0.3236 -0.5996 -1.0104
  190DOPC  C21023447   5.548   1.564  13.375 -0.2475 -0.1614  0.6933
  190DOPC  H10R23448   5.630   1.615  13.428  0.3575  1.0589 -1.3055
  190DOPC  C21123449   5.429   1.524  13.458 -0.1553  0.0016 -0.2574
  190DOPC  H11R23450   5.439   1.416  13.484  2.0395  0.3795  0.7059
  190DOPC  H11S23451   5.332   1.541  13.407 -1.1941  0.8838  1.8987
  190DOPC  C21223452   5.428   1.597  13.594  0.1210  0.4102 -0.7092
  190DOPC  H12R23453   5.426   1.707  13.582 -0.8850  0.2479 -2.2909
  190DOPC  H12S23454   5.520   1.570  13.651  0.8326  1.0361 -1.5280
  190DOPC  C21323455   5.312   1.553  13.688  0.6517 -0.7186  0.0661
  190DOPC  H13R23456   5.331   1.448  13.718  1.4446 -0.2890  1.1169
  190DOPC  H13S23457   5.224   1.566  13.622  0.7426  0.3908  0.1517
  190DOPC  C21423458   5.312   1.640  13.816  0.0816  0.4631 -0.2165
  190DOPC  H14R23459   5.276   1.744  13.795 -1.5545 -0.4701 -2.4066
  190DOPC  H14S23460   5.418   1.645  13.849 -0.6249 -0.0254  2.3955
  190DOPC  C21523461   5.239   1.577  13.932  0.6246  0.1310 -0.0332
  190DOPC  H15R23462   5.286   1.480  13.960 -1.9204 -1.2210 -0.1083
  190DOPC  H15S23463   5.135   1.549  13.905  0.3923  2.5274 -1.8937
  190DOPC  C21623464   5.232   1.664  14.059 -0.1000  0.1439 -0.1171
  190DOPC  H16R23465   5.176   1.757  14.035  0.5504  0.9074  1.1705
  190DOPC  H16S23466   5.335   1.701  14.080  0.5278 -1.4301 -0.2888
  190DOPC  C21723467   5.183   1.586  14.181 -0.5082  0.2491 -0.2146
  190DOPC  H17R23468   5.251   1.500  14.199  0.4356  0.8534 -0.7631
  190DOPC  H17S23469   5.079   1.551  14.169  0.1434 -0.9385 -3.2368
  190DOPC  C21823470   5.186   1.669  14.308 -0.1933 -0.6069  0.2457
  190DOPC  H18R23471   5.116   1.751  14.282 -0.3354 -1.0279 -0.7475
  190DOPC  H18S23472   5.290   1.704  14.327  0.2739 -1.1952 -1.1408
  190DOPC  H18T23473   5.140   1.618  14.396  0.6559  0.4024  1.3082
  190DOPC   C3323474   4.901   1.538  12.762  0.5108  0.4443 -1.1743
  190DOPC   H3X23475   4.833   1.625  12.775  0.4813  0.1598  0.9753
  190DOPC   H3Y23476   5.001   1.575  12.730  0.9012  0.6567  0.2369
  190DOPC   C3423477   4.931   1.473  12.899 -0.1815  0.1205  1.0087
  190DOPC   H4X23478   5.007   1.392  12.890 -0.2461  0.0149  1.3624
  190DOPC   H4Y23479   4.842   1.413  12.928  0.5466 -0.8721  1.2455
  190DOPC   C3523480   4.969   1.558  13.015 -0.4842  0.0377 -0.5685
  190DOPC   H5X23481   4.871   1.597  13.049 -1.1668 -1.0895 -1.1982
  190DOPC   H5Y23482   5.039   1.639  12.983 -0.4968 -0.3237 -1.5538
  190DOPC   C3623483   5.037   1.473  13.123 -0.4112  0.2712  0.7846
  190DOPC   H6X23484   4.978   1.381  13.140 -1.2509  1.0948  2.5572
  190DOPC   H6Y23485   5.138   1.452  13.084 -0.1766  3.7964 -0.9462
  190DOPC   C3723486   5.040   1.548  13.258  0.5017  0.1100  0.5204
  190DOPC   H7X23487   5.068   1.478  13.340 -0.3163  1.1319  1.7228
  190DOPC   H7Y23488   5.109   1.635  13.254  1.6492 -0.7169  1.6588
  190DOPC   C3823489   4.904   1.618  13.299 -0.5412  0.6436 -0.0795
  190DOPC   H8X23490   4.829   1.537  13.296  1.1271 -0.9483 -1.5403
  190DOPC   H8Y23491   4.890   1.696  13.221  3.2561  0.7327 -0.8473
  190DOPC   C3923492   4.930   1.693  13.427  0.1427 -0.2261 -0.9449
  190DOPC   H9X23493   4.948   1.801  13.411 -3.3422  0.4286 -1.1331
  190DOPC  C31023494   4.938   1.638  13.553 -0.0568 -0.0140  0.3439
  190DOPC  H10X23495   4.929   1.700  13.644  1.2268 -0.2221  0.6378
  190DOPC  C31123496   4.918   1.489  13.571 -0.0300  0.2444  0.1593
  190DOPC  H11X23497   5.015   1.448  13.606 -0.3921 -1.2260 -0.4739
  190DOPC  H11Y23498   4.908   1.430  13.478  1.1505 -1.8464  1.2866
  190DOPC  C31223499   4.800   1.474  13.660 -0.1281  0.7381 -0.6770
  190DOPC  H12X23500   4.762   1.369  13.659 -0.2211  0.7409  0.5620
  190DOPC  H12Y23501   4.715   1.539  13.632  0.2720  1.0701 -1.1156
  190DOPC  C31323502   4.826   1.501  13.809 -0.4068  0.3492 -0.4817
  190DOPC  H13X23503   4.922   1.451  13.836 -0.1851  1.7198  1.5221
  190DOPC  H13Y23504   4.844   1.610  13.808 -0.6098  0.4135  0.7705
  190DOPC  C31423505   4.712   1.462  13.905  0.0989 -0.0061  0.2044
  190DOPC  H14X23506   4.623   1.522  13.877  0.1488 -0.1262 -0.2208
  190DOPC  H14Y23507   4.682   1.356  13.892 -3.0329  0.9020 -1.0392
  190DOPC  C31523508   4.745   1.497  14.051 -0.4889 -0.0290 -0.0391
  190DOPC  H15X23509   4.768   1.605  14.056 -2.2235  0.3710 -0.1995
  190DOPC  H15Y23510   4.846   1.454  14.071 -0.4783 -1.0180 -2.0110
  190DOPC  C31623511   4.644   1.469  14.160 -0.2320 -0.0968 -0.1086
  190DOPC  H16X23512   4.564   1.540  14.130  0.1099  0.0274 -0.7632
  190DOPC  H16Y23513   4.615   1.363  14.170  1.4328 -0.3925  2.5598
  190DOPC  C31723514   4.693   1.529  14.293 -0.4757  0.2945 -0.4138
  190DOPC  H17X23515   4.788   1.478  14.321 -0.6598 -0.2963 -0.8254
  190DOPC  H17Y23516   4.728   1.632  14.270 -0.8522  0.9188  1.6776
  190DOPC  C31823517   4.586   1.522  14.409  0.1907  0.1345  0.6740
  190DOPC  H18X23518   4.489   1.561  14.372  0.7756 -0.1516 -1.2814
  190DOPC  H18Y23519   4.575   1.417  14.443  0.1343  0.0044  0.2496
  190DOPC  H18Z23520   4.622   1.582  14.496 -0.3882 -1.2497  1.9024
  191DOPC     N23521   5.280   6.076  12.138 -0.0502  0.8545  0.3706
  191DOPC   C1223522   5.236   6.089  12.285  0.0784 -0.2464  0.3539
  191DOPC  H12A23523   5.150   6.154  12.286  1.3220  1.4979 -0.5275
  191DOPC  H12B23524   5.315   6.150  12.327  0.9699  0.2960 -1.9770
  191DOPC   C1323525   5.418   6.016  12.147  0.2479  0.3847 -0.2136
  191DOPC  H13A23526   5.454   5.993  12.048 -1.8321 -0.7469 -0.7788
  191DOPC  H13B23527   5.488   6.086  12.190  1.3939  0.1941 -1.6625
  191DOPC  H13C23528   5.435   5.934  12.214  4.1583  0.1749 -1.2313
  191DOPC   C1423529   5.286   6.212  12.072  0.0457 -0.8691 -0.1940
  191DOPC  H14A23530   5.351   6.272  12.133  1.0395 -1.4049 -0.7149
  191DOPC  H14B23531   5.325   6.200  11.972 -1.4444 -0.1049 -0.9044
  191DOPC  H14C23532   5.195   6.270  12.059  1.3614  0.7151 -3.7294
  191DOPC   C1523533   5.189   5.983  12.066  0.6722  0.3670  0.0959
  191DOPC  H15A23534   5.169   5.894  12.123  2.9947 -1.0442 -1.1561
  191DOPC  H15B23535   5.230   5.942  11.975  1.0186 -0.1065  0.4633
  191DOPC  H15C23536   5.102   6.042  12.042 -0.0078 -0.9518 -0.7793
  191DOPC   C1123537   5.226   5.962  12.375 -0.2393 -0.0716  0.2393
  191DOPC  H11A23538   5.324   5.910  12.368  0.6795  1.7415 -0.9216
  191DOPC  H11B23539   5.210   6.001  12.478 -3.1235 -2.4568  0.8498
  191DOPC     P23540   4.972   5.864  12.393 -0.0758  0.2364 -0.2811
  191DOPC   O1323541   4.938   5.721  12.380  0.2562 -0.0167  0.5961
  191DOPC   O1423542   4.888   5.971  12.336 -0.2372 -0.1856 -0.7049
  191DOPC   O1223543   5.120   5.879  12.340 -0.1033  0.6124  0.1928
  191DOPC   O1123544   4.993   5.883  12.541 -0.4261 -0.2143 -0.1155
  191DOPC    C123545   5.066   5.786  12.619 -0.4175  0.1698  0.0340
  191DOPC    HA23546   5.167   5.760  12.580  0.6421  0.0733  2.6158
  191DOPC    HB23547   5.006   5.693  12.627 -1.0080  0.4124 -1.3322
  191DOPC    C223548   5.111   5.832  12.762 -0.9504 -0.7663  0.1395
  191DOPC    HS23549   5.025   5.861  12.826 -1.2078  0.2728 -0.6481
  191DOPC   O2123550   5.212   5.935  12.743 -0.3828 -0.0694 -0.3349
  191DOPC   C2123551   5.180   6.058  12.732 -0.7330  0.6336  0.3921
  191DOPC   O2223552   5.072   6.106  12.724  0.8545 -0.1594 -0.4443
  191DOPC   C2223553   5.314   6.135  12.729  1.0128  0.4049  0.3941
  191DOPC   H2R23554   5.286   6.238  12.697  0.3287 -0.2577 -1.2346
  191DOPC   H2S23555   5.385   6.093  12.654  0.6203  2.8692 -1.4990
  191DOPC    C323556   5.185   5.722  12.847 -0.1026 -0.0111 -0.2566
  191DOPC    HX23557   5.274   5.678  12.797  0.6479 -1.0469  1.8400
  191DOPC    HY23558   5.112   5.644  12.877 -1.3543  1.0358 -0.4959
  191DOPC   O3123559   5.234   5.797  12.963 -0.3062  0.5409  0.1675
  191DOPC   C3123560   5.153   5.812  13.066  0.1606  0.5121  0.2820
  191DOPC   O3223561   5.034   5.788  13.066 -0.1543  0.1739 -0.0471
  191DOPC   C3223562   5.226   5.879  13.184 -0.3883 -0.2359 -0.4481
  191DOPC   H2X23563   5.332   5.892  13.156  0.0815 -0.6103  1.0694
  191DOPC   H2Y23564   5.187   5.983  13.186 -0.1241 -0.1313 -0.7763
  191DOPC   C2323565   5.383   6.126  12.867  0.0925 -0.2880  0.7364
  191DOPC   H3R23566   5.397   6.027  12.915  0.9038  0.0446  1.2010
  191DOPC   H3S23567   5.320   6.196  12.925  0.4933  2.8752 -2.3273
  191DOPC   C2423568   5.525   6.180  12.857 -0.4333 -0.2667 -0.2245
  191DOPC   H4R23569   5.529   6.291  12.854  2.1600 -0.2896 -0.0081
  191DOPC   H4S23570   5.568   6.149  12.759  1.0315  1.0401 -0.0296
  191DOPC   C2523571   5.607   6.141  12.975 -0.2286 -0.4227 -0.1879
  191DOPC   H5R23572   5.711   6.175  12.959  0.4774 -1.2326  2.2513
  191DOPC   H5S23573   5.613   6.030  12.975 -2.2289 -0.5776 -1.6406
  191DOPC   C2623574   5.556   6.193  13.104  0.2967 -0.4750 -0.2263
  191DOPC   H6R23575   5.462   6.142  13.132  0.3117 -0.9547 -1.0227
  191DOPC   H6S23576   5.530   6.298  13.081 -0.4781 -1.1122 -2.4779
  191DOPC   C2723577   5.658   6.171  13.216 -0.4981 -0.2196 -0.1073
  191DOPC   H7R23578   5.745   6.229  13.181 -0.8011 -0.7086 -1.7511
  191DOPC   H7S23579   5.703   6.070  13.224  1.8153  0.6136 -1.8280
  191DOPC   C2823580   5.611   6.220  13.354 -0.0839 -0.9110 -0.2402
  191DOPC   H8R23581   5.578   6.325  13.346 -0.3490 -1.0755 -1.4040
  191DOPC   H8S23582   5.700   6.227  13.421 -2.2695 -2.0554  3.0523
  191DOPC   C2923583   5.507   6.135  13.423 -0.3650 -0.2886  0.0818
  191DOPC   H9R23584   5.422   6.106  13.360  0.1023  1.7035 -1.5595
  191DOPC  C21023585   5.512   6.089  13.552  0.4234 -1.1037 -0.4084
  191DOPC  H10R23586   5.431   6.022  13.581 -0.0238 -0.8844 -1.1341
  191DOPC  C21123587   5.626   6.130  13.647  0.5585 -0.1406  0.4240
  191DOPC  H11R23588   5.645   6.239  13.649  0.0003 -0.0211 -0.2937
  191DOPC  H11S23589   5.719   6.087  13.605  1.4582 -0.4341  2.5937
  191DOPC  C21223590   5.599   6.086  13.793  0.3303 -0.7829  0.1019
  191DOPC  H12R23591   5.695   6.088  13.848 -1.1264  2.1195  2.8889
  191DOPC  H12S23592   5.569   5.979  13.801  3.0209 -1.5203  1.7280
  191DOPC  C21323593   5.506   6.174  13.874 -0.8750 -0.1827 -0.1722
  191DOPC  H13R23594   5.399   6.155  13.853 -1.4872 -0.6293  2.8268
  191DOPC  H13S23595   5.538   6.278  13.852  0.6003 -0.5502  0.1217
  191DOPC  C21423596   5.521   6.145  14.025 -0.0198  0.1046  0.7364
  191DOPC  H14R23597   5.617   6.182  14.067 -0.1162  0.4546  0.6565
  191DOPC  H14S23598   5.520   6.034  14.031 -1.2533  0.0685  0.1589
  191DOPC  C21523599   5.393   6.200  14.101 -0.0992 -0.0666  0.2741
  191DOPC  H15R23600   5.297   6.214  14.048 -0.7422 -1.3807  1.0383
  191DOPC  H15S23601   5.433   6.300  14.130  0.8765  0.3998 -2.4179
  191DOPC  C21623602   5.376   6.116  14.226 -0.0546 -0.4260 -0.2529
  191DOPC  H16R23603   5.479   6.095  14.262  0.3078  0.6529 -0.6256
  191DOPC  H16S23604   5.326   6.023  14.190 -0.3074 -1.3206  2.2039
  191DOPC  C21723605   5.298   6.186  14.335 -0.4905 -0.6453  0.1241
  191DOPC  H17R23606   5.202   6.215  14.288 -1.2002 -1.8504  0.7714
  191DOPC  H17S23607   5.363   6.274  14.352  0.8972 -2.0015  2.4544
  191DOPC  C21823608   5.266   6.101  14.459 -0.1987  0.5612 -0.3033
  191DOPC  H18R23609   5.356   6.097  14.524  0.1751  1.1434 -0.7818
  191DOPC  H18S23610   5.232   5.996  14.442  1.0137 -0.3256  2.2162
  191DOPC  H18T23611   5.184   6.148  14.518 -1.1852 -0.5688 -0.7197
  191DOPC   C3323612   5.203   5.802  13.318  0.4880  0.5823  0.5070
  191DOPC   H3X23613   5.219   5.695  13.292 -1.5565  0.4352 -0.3703
  191DOPC   H3Y23614   5.098   5.806  13.356 -0.3025 -2.7398 -0.9159
  191DOPC   C3423615   5.312   5.832  13.422 -0.2326 -0.2335  0.5308
  191DOPC   H4X23616   5.289   5.932  13.463  2.1887  2.9070 -4.7246
  191DOPC   H4Y23617   5.413   5.833  13.376 -1.2425 -1.6742 -1.9622
  191DOPC   C3523618   5.309   5.721  13.530 -0.1191 -0.8161  0.7938
  191DOPC   H5X23619   5.351   5.628  13.486  1.0218 -0.2648  0.6971
  191DOPC   H5Y23620   5.206   5.695  13.563  0.1610 -2.5291  0.4196
  191DOPC   C3623621   5.399   5.759  13.648 -0.3988  0.6084 -0.2968
  191DOPC   H6X23622   5.503   5.780  13.615 -1.0391  1.8509 -1.6113
  191DOPC   H6Y23623   5.350   5.842  13.703 -3.8352 -1.1652 -0.4231
  191DOPC   C3723624   5.408   5.634  13.748  0.1593 -0.6476 -0.0305
  191DOPC   H7X23625   5.302   5.615  13.775  0.2802 -1.8405 -0.3353
  191DOPC   H7Y23626   5.435   5.539  13.696 -2.5007 -1.3108 -0.3174
  191DOPC   C3823627   5.496   5.664  13.871  0.3576  0.6497 -0.4438
  191DOPC   H8X23628   5.484   5.769  13.907  0.0045  0.9893 -1.4982
  191DOPC   H8Y23629   5.604   5.661  13.848  0.0246  0.3311 -2.1396
  191DOPC   C3923630   5.469   5.561  13.975 -0.3296 -0.5941 -0.2619
  191DOPC   H9X23631   5.494   5.457  13.946 -1.3359 -0.9378  0.0315
  191DOPC  C31023632   5.407   5.582  14.093 -0.3289 -0.5983  0.1525
  191DOPC  H10X23633   5.379   5.499  14.159 -0.1457 -0.1267  0.8380
  191DOPC  C31123634   5.359   5.719  14.150  0.6951  0.3672 -0.2173
  191DOPC  H11X23635   5.283   5.755  14.077  0.9481  0.4356 -0.4521
  191DOPC  H11Y23636   5.448   5.786  14.147  0.8872  0.0870 -1.9107
  191DOPC  C31223637   5.313   5.706  14.298  0.2255  0.2202  0.2376
  191DOPC  H12X23638   5.230   5.633  14.308  0.0652  0.5388  1.4122
  191DOPC  H12Y23639   5.271   5.804  14.331 -0.2675  0.0823  0.0162
  191DOPC  C31323640   5.418   5.672  14.395  0.2050  0.5962 -0.0424
  191DOPC  H13X23641   5.447   5.565  14.391 -0.3685  0.3636  1.3615
  191DOPC  H13Y23642   5.498   5.747  14.375  2.2422 -2.0087 -2.5464
  191DOPC  C31423643   5.363   5.686  14.543  0.0989  0.8099 -0.7002
  191DOPC  H14X23644   5.317   5.785  14.563 -1.8593 -0.5359  2.0505
  191DOPC  H14Y23645   5.278   5.616  14.559  1.1037  0.1367  2.7069
  191DOPC  C31523646   5.459   5.653  14.653  0.0782 -0.5091 -0.0833
  191DOPC  H15X23647   5.555   5.708  14.640  0.7332 -1.2807  1.2767
  191DOPC  H15Y23648   5.486   5.545  14.647 -0.5745 -0.6441 -0.6848
  191DOPC  C31623649   5.398   5.696  14.789  0.6487  0.3272 -0.1056
  191DOPC  H16X23650   5.406   5.806  14.797 -1.8265  0.5972 -0.4546
  191DOPC  H16Y23651   5.288   5.680  14.789  0.5871  0.7423  0.2809
  191DOPC  C31723652   5.460   5.622  14.919  0.0896 -0.0819 -0.3921
  191DOPC  H17X23653   5.399   5.642  15.010  1.4826  3.5826 -0.0690
  191DOPC  H17Y23654   5.454   5.514  14.895  4.4595  0.0028 -2.8685
  191DOPC  C31823655   5.604   5.650  14.957 -0.0164  0.4250 -0.0725
  191DOPC  H18X23656   5.631   5.580  15.040 -0.4448 -0.1520 -0.4174
  191DOPC  H18Y23657   5.673   5.626  14.874  0.0777 -0.7796  0.3359
  191DOPC  H18Z23658   5.622   5.754  14.993  1.4282 -0.0224  0.5657
  192DOPC     N23659   3.130   6.573  12.253 -0.2364  0.0995 -0.9044
  192DOPC   C1223660   3.060   6.542  12.380 -0.5170  0.5954  0.1713
  192DOPC  H12A23661   3.037   6.437  12.390  0.0411  0.4158 -0.3502
  192DOPC  H12B23662   2.961   6.585  12.387 -0.6490  0.0363  2.2293
  192DOPC   C1323663   3.258   6.509  12.242  0.3540  0.4681 -0.8514
  192DOPC  H13A23664   3.255   6.403  12.218  0.4903  0.3361 -0.3118
  192DOPC  H13B23665   3.325   6.557  12.173  2.6265 -1.0393  0.1770
  192DOPC  H13C23666   3.314   6.512  12.335 -3.4937 -0.0676  1.7366
  192DOPC   C1423667   3.151   6.717  12.239  0.5466 -0.0854  1.0048
  192DOPC  H14A23668   3.203   6.762  12.323  0.0377  2.1148  0.2216
  192DOPC  H14B23669   3.211   6.744  12.154 -0.3976 -4.0945 -1.1481
  192DOPC  H14C23670   3.051   6.757  12.234  0.0544 -1.0777  2.1820
  192DOPC   C1523671   3.048   6.534  12.140  0.5275  0.0808  0.0784
  192DOPC  H15A23672   3.019   6.430  12.149 -2.5291  0.8666  0.6660
  192DOPC  H15B23673   3.090   6.564  12.046  0.6547 -1.6387 -0.4556
  192DOPC  H15C23674   2.949   6.577  12.149 -1.0919 -3.4618  1.4983
  192DOPC   C1123675   3.126   6.603  12.506 -0.2079 -0.5321 -0.2064
  192DOPC  H11A23676   3.058   6.574  12.589  0.2542  1.8664  1.1270
  192DOPC  H11B23677   3.227   6.559  12.523 -0.0785 -0.4939 -0.8443
  192DOPC     P23678   3.234   6.827  12.582 -0.4946  0.0534 -0.0862
  192DOPC   O1323679   3.186   6.968  12.589 -0.6732  0.0424 -0.8313
  192DOPC   O1423680   3.362   6.809  12.508 -0.4071  0.4907  0.6776
  192DOPC   O1223681   3.126   6.746  12.510  0.4759 -0.1496 -0.0406
  192DOPC   O1123682   3.243   6.770  12.726 -0.2374  0.2481  0.2044
  192DOPC    C123683   3.131   6.764  12.810  0.0521 -0.0219 -0.1452
  192DOPC    HA23684   3.105   6.656  12.820 -1.2601  0.2069 -0.8431
  192DOPC    HB23685   3.043   6.820  12.772  0.6340 -0.3844 -2.1146
  192DOPC    C223686   3.167   6.796  12.954  0.0451 -0.6279 -0.3198
  192DOPC    HS23687   3.080   6.803  13.023 -0.3364  0.8108 -0.8982
  192DOPC   O2123688   3.238   6.921  12.970  0.5290  0.4450 -0.0692
  192DOPC   C2123689   3.155   7.026  12.967  0.6984 -0.6984  0.0985
  192DOPC   O2223690   3.033   7.013  12.967  0.3033 -0.1915  0.0846
  192DOPC   C2223691   3.223   7.152  12.955 -0.4986  1.0435 -0.6337
  192DOPC   H2R23692   3.153   7.237  12.940 -0.0487  1.6525  0.5589
  192DOPC   H2S23693   3.296   7.143  12.872  0.8018 -0.0486  0.5799
  192DOPC    C323694   3.268   6.686  13.009  0.6428  0.6680  0.0455
  192DOPC    HX23695   3.362   6.698  12.952  1.0483 -0.0965  0.5335
  192DOPC    HY23696   3.236   6.581  12.993  2.8351  0.1263 -1.1746
  192DOPC   O3123697   3.310   6.705  13.143 -0.3776  0.3566  0.5025
  192DOPC   C3123698   3.219   6.668  13.226 -0.5205  0.1664 -0.7372
  192DOPC   O3223699   3.105   6.640  13.200 -0.3105  0.0247  0.1044
  192DOPC   C3223700   3.283   6.651  13.365 -0.0278 -0.0909 -0.2641
  192DOPC   H2X23701   3.346   6.560  13.359 -0.1865 -0.2120 -0.0912
  192DOPC   H2Y23702   3.351   6.739  13.373  1.6561 -0.9671 -3.3819
  192DOPC   C2323703   3.312   7.187  13.078 -0.3904 -0.1665 -0.1652
  192DOPC   H3R23704   3.362   7.285  13.066  0.6353 -0.6360  0.1133
  192DOPC   H3S23705   3.396   7.115  13.089 -0.7426 -0.6914 -0.8568
  192DOPC   C2423706   3.231   7.193  13.205 -0.1701 -0.3395 -0.2739
  192DOPC   H4R23707   3.187   7.093  13.223  1.9509 -1.5243 -1.3091
  192DOPC   H4S23708   3.151   7.270  13.201 -0.1599 -0.3704 -3.0652
  192DOPC   C2523709   3.316   7.235  13.323 -0.5352  0.2897  0.0886
  192DOPC   H5R23710   3.349   7.340  13.311  1.4643 -0.5813 -3.1545
  192DOPC   H5S23711   3.404   7.167  13.315 -1.0040 -0.2389 -0.7444
  192DOPC   C2623712   3.252   7.212  13.450  0.4046 -0.4513 -0.0462
  192DOPC   H6R23713   3.220   7.105  13.450  0.5680 -0.5020 -0.6247
  192DOPC   H6S23714   3.152   7.259  13.463 -0.1906 -1.4313 -0.8798
  192DOPC   C2723715   3.334   7.234  13.567  0.0554 -0.0453  0.3830
  192DOPC   H7R23716   3.363   7.341  13.575 -0.0883  0.0438 -0.2935
  192DOPC   H7S23717   3.429   7.177  13.562 -0.8791 -1.8223  1.7952
  192DOPC   C2823718   3.266   7.189  13.701  0.1825  0.3002 -0.1486
  192DOPC   H8R23719   3.159   7.216  13.693  0.0527 -0.1024  0.2056
  192DOPC   H8S23720   3.310   7.242  13.788 -0.2775  2.0518 -0.9338
  192DOPC   C2923721   3.267   7.043  13.729 -0.2137 -0.2351 -0.8132
  192DOPC   H9R23722   3.351   6.992  13.681 -1.0329 -2.7759  0.3093
  192DOPC  C21023723   3.201   6.979  13.825 -0.5191  0.4661  0.2034
  192DOPC  H10R23724   3.209   6.869  13.828 -2.6342  0.2744  1.5670
  192DOPC  C21123725   3.102   7.047  13.922 -0.3472  0.1847  0.1917
  192DOPC  H11R23726   3.002   7.039  13.875  0.2769 -1.7955 -0.9296
  192DOPC  H11S23727   3.129   7.154  13.930  0.0685  0.1246 -0.3152
  192DOPC  C21223728   3.086   6.992  14.058 -0.0145  0.1481  0.0218
  192DOPC  H12R23729   3.179   7.017  14.114 -0.6793  1.7956  0.4277
  192DOPC  H12S23730   3.072   6.882  14.052 -2.6041  0.4555 -1.0407
  192DOPC  C21323731   2.960   7.037  14.134 -0.2480 -0.2765 -0.0525
  192DOPC  H13R23732   2.935   6.970  14.220 -1.3536  0.8240  0.5070
  192DOPC  H13S23733   2.871   7.034  14.067 -0.7341  0.1664  0.5599
  192DOPC  C21423734   2.985   7.182  14.190  0.1940 -0.2661  1.2192
  192DOPC  H14R23735   2.955   7.248  14.106  0.6984 -3.3001 -1.5220
  192DOPC  H14S23736   3.093   7.208  14.191  0.5412 -0.4568 -3.7921
  192DOPC  C21523737   2.914   7.202  14.326 -0.7513  0.2871  0.6999
  192DOPC  H15R23738   2.969   7.134  14.394  0.2180  2.7919  2.6093
  192DOPC  H15S23739   2.806   7.179  14.312 -0.4177 -0.7831 -0.2174
  192DOPC  C21623740   2.933   7.345  14.383  0.2519 -0.1005 -0.1302
  192DOPC  H16R23741   2.879   7.411  14.312  1.5208 -0.0881 -1.1095
  192DOPC  H16S23742   3.040   7.372  14.378 -0.1286  1.4463 -0.3151
  192DOPC  C21723743   2.871   7.357  14.525 -0.4019  0.3340 -0.5664
  192DOPC  H17R23744   2.765   7.335  14.503 -0.3962 -0.9268  0.5836
  192DOPC  H17S23745   2.878   7.455  14.577 -1.1377 -1.1578  2.5855
  192DOPC  C21823746   2.916   7.259  14.632  1.0743  0.1053  0.0675
  192DOPC  H18R23747   2.901   7.158  14.587 -1.9494 -0.4982  2.1020
  192DOPC  H18S23748   2.849   7.264  14.721  1.9791  2.5479  0.6949
  192DOPC  H18T23749   3.021   7.285  14.656  1.3499  0.6279 -1.5753
  192DOPC   C3323750   3.181   6.639  13.479  0.0240  0.3090 -0.2138
  192DOPC   H3X23751   3.118   6.549  13.461 -0.7460  0.4364  1.6557
  192DOPC   H3Y23752   3.116   6.728  13.495  1.2432  1.0100  1.0580
  192DOPC   C3423753   3.240   6.606  13.618 -0.0901  0.9861 -0.5849
  192DOPC   H4X23754   3.310   6.679  13.663  2.5552 -1.2870 -0.7153
  192DOPC   H4Y23755   3.285   6.505  13.613 -0.6744  0.7175 -0.5624
  192DOPC   C3523756   3.125   6.589  13.718  1.1819  0.5517  0.2453
  192DOPC   H5X23757   3.057   6.503  13.695  0.5023  0.0454  3.6529
  192DOPC   H5Y23758   3.060   6.679  13.710  1.8608  1.0745  0.5380
  192DOPC   C3623759   3.171   6.571  13.866 -0.4801 -0.1104  0.1900
  192DOPC   H6X23760   3.238   6.482  13.875 -0.8286 -0.1719  3.5985
  192DOPC   H6Y23761   3.232   6.661  13.885 -1.0766  0.9350 -2.4329
  192DOPC   C3723762   3.055   6.555  13.973 -0.6873  0.0418 -0.0907
  192DOPC   H7X23763   3.004   6.654  13.974 -1.4994 -0.2923 -2.3237
  192DOPC   H7Y23764   2.983   6.477  13.938  0.4133 -0.5364 -1.1379
  192DOPC   C3823765   3.110   6.526  14.112  0.6373  0.3299 -0.1194
  192DOPC   H8X23766   3.195   6.455  14.100 -0.4133 -0.8267 -0.9779
  192DOPC   H8Y23767   3.051   6.477  14.192 -0.4796 -1.0413 -1.7108
  192DOPC   C3923768   3.170   6.652  14.173 -0.0076  0.1295  0.3336
  192DOPC   H9X23769   3.096   6.722  14.217 -1.5570 -1.3165  0.1428
  192DOPC  C31023770   3.298   6.680  14.188 -0.3695 -0.3683  0.2793
  192DOPC  H10X23771   3.315   6.759  14.263 -2.0300 -1.6710  2.1314
  192DOPC  C31123772   3.422   6.590  14.169 -0.2851 -0.4989  0.4462
  192DOPC  H11X23773   3.466   6.604  14.067  2.6845 -2.2221  1.3634
  192DOPC  H11Y23774   3.397   6.482  14.168 -2.1844 -0.0970  0.0164
  192DOPC  C31223775   3.535   6.619  14.270 -0.0381  0.0384 -0.3643
  192DOPC  H12X23776   3.559   6.726  14.284  0.9206 -0.2654  0.3742
  192DOPC  H12Y23777   3.627   6.574  14.227 -0.0084 -0.8007  0.5446
  192DOPC  C31323778   3.503   6.564  14.408 -0.1600 -0.3895  0.0416
  192DOPC  H13X23779   3.418   6.631  14.436 -1.5992 -2.1985  0.1955
  192DOPC  H13Y23780   3.467   6.461  14.391 -1.1258  0.1517 -1.3602
  192DOPC  C31423781   3.620   6.582  14.504  0.0371  0.2680 -0.8540
  192DOPC  H14X23782   3.704   6.519  14.468  0.6356 -0.0793  1.0134
  192DOPC  H14Y23783   3.653   6.688  14.499  0.5068  0.1855  0.2662
  192DOPC  C31523784   3.579   6.548  14.651  0.0673 -0.0745 -0.1828
  192DOPC  H15X23785   3.517   6.456  14.645  0.5890 -0.3735 -1.1717
  192DOPC  H15Y23786   3.513   6.628  14.692 -1.2203 -0.8791 -0.6180
  192DOPC  C31623787   3.703   6.532  14.740  0.2629 -0.5536  0.2275
  192DOPC  H16X23788   3.752   6.439  14.703 -0.3886 -1.3494  1.2903
  192DOPC  H16Y23789   3.768   6.621  14.729 -0.5344  0.0484  0.3034
  192DOPC  C31723790   3.676   6.514  14.891  0.3112  0.5088 -0.5498
  192DOPC  H17X23791   3.772   6.510  14.946 -0.4126  0.5014  0.7328
  192DOPC  H17Y23792   3.637   6.609  14.931  2.2917  1.4418 -0.7337
  192DOPC  C31823793   3.586   6.396  14.938 -0.3962 -0.4475  0.3874
  192DOPC  H18X23794   3.480   6.429  14.930  0.3617  2.2784  0.7086
  192DOPC  H18Y23795   3.598   6.313  14.865 -1.4495  1.3202 -1.9402
  192DOPC  H18Z23796   3.612   6.352  15.036 -0.1084 -2.1342 -0.4119
  193DOPC     N23797   1.742   1.380  12.166  0.0524 -0.5010 -0.1074
  193DOPC   C1223798   1.790   1.305  12.291 -0.5413  0.3948 -0.7875
  193DOPC  H12A23799   1.896   1.289  12.276 -0.2017  0.7818  1.0049
  193DOPC  H12B23800   1.734   1.213  12.295 -0.5964  0.3819 -1.6739
  193DOPC   C1323801   1.604   1.433  12.188  0.3124  0.4106 -0.4185
  193DOPC  H13A23802   1.566   1.490  12.104 -0.9128  0.8593  0.4031
  193DOPC  H13B23803   1.542   1.347  12.209  0.6210  0.2647 -0.0949
  193DOPC  H13C23804   1.600   1.505  12.269  1.4770  0.2493 -0.2048
  193DOPC   C1423805   1.736   1.286  12.053  0.4213 -0.2486 -0.0336
  193DOPC  H14A23806   1.712   1.333  11.958 -1.7798  0.2600  0.7107
  193DOPC  H14B23807   1.824   1.227  12.032  0.2877  0.3940 -2.7569
  193DOPC  H14C23808   1.659   1.211  12.068  1.0903 -1.0380 -0.4416
  193DOPC   C1523809   1.831   1.497  12.132 -0.4398  0.4685 -0.3679
  193DOPC  H15A23810   1.936   1.471  12.130 -0.3938 -0.2129  3.3242
  193DOPC  H15B23811   1.831   1.570  12.212  2.3020  1.1957 -0.9260
  193DOPC  H15C23812   1.801   1.546  12.041 -1.3332 -1.2210 -1.0286
  193DOPC   C1123813   1.774   1.378  12.429  0.1193  0.6854 -0.4203
  193DOPC  H11A23814   1.668   1.393  12.457 -0.0846 -1.2369 -0.0384
  193DOPC  H11B23815   1.822   1.317  12.508  1.0691  2.6437  0.6143
  193DOPC     P23816   1.992   1.525  12.481 -0.3097  0.1403 -0.3567
  193DOPC   O1323817   2.017   1.671  12.470 -0.4609  0.1798 -0.0485
  193DOPC   O1423818   2.085   1.436  12.402  0.2899 -0.1768 -0.2953
  193DOPC   O1223819   1.839   1.499  12.440  0.3819  0.7815 -0.2225
  193DOPC   O1123820   1.997   1.481  12.637  0.1178 -0.0694  0.3528
  193DOPC    C123821   1.896   1.531  12.727 -0.1005 -0.0880 -0.1346
  193DOPC    HA23822   1.870   1.449  12.797 -2.5190 -1.0339 -2.0191
  193DOPC    HB23823   1.797   1.548  12.681 -0.3293  0.7952  0.6487
  193DOPC    C223824   1.935   1.665  12.799 -0.4208 -0.3654 -0.1110
  193DOPC    HS23825   1.928   1.746  12.723 -0.9500 -0.2242  0.0847
  193DOPC   O2123826   2.070   1.654  12.857  0.0561 -0.4544 -0.0080
  193DOPC   C2123827   2.157   1.756  12.826 -0.5413 -0.5876  0.0004
  193DOPC   O2223828   2.119   1.860  12.774 -0.5884 -0.1637 -0.1080
  193DOPC   C2223829   2.303   1.719  12.872  0.9467 -0.0210  0.1760
  193DOPC   H2R23830   2.345   1.644  12.802 -0.1851 -0.4023 -0.1147
  193DOPC   H2S23831   2.301   1.683  12.977  2.5883 -0.0766  0.2183
  193DOPC    C323832   1.830   1.699  12.914 -0.2161  0.0376 -0.1524
  193DOPC    HX23833   1.824   1.626  12.997 -2.1993 -0.4728 -0.7045
  193DOPC    HY23834   1.734   1.716  12.862 -0.9551  0.8162  1.4106
  193DOPC   O3123835   1.870   1.824  12.976 -0.0171 -0.6031  0.0294
  193DOPC   C3123836   1.850   1.942  12.911  0.7733 -0.6972  0.7819
  193DOPC   O3223837   1.796   1.947  12.802  0.4065  0.6547  0.3379
  193DOPC   C3223838   1.895   2.055  13.003 -0.6922  0.5271 -0.2430
  193DOPC   H2X23839   1.902   2.026  13.110 -0.9092 -3.4529 -1.1529
  193DOPC   H2Y23840   1.999   2.076  12.971 -0.1201 -1.3669  0.2674
  193DOPC   C2323841   2.401   1.839  12.863  0.0186 -0.1602 -0.2385
  193DOPC   H3R23842   2.386   1.888  12.765  0.1072 -0.0951 -0.2200
  193DOPC   H3S23843   2.507   1.806  12.869 -0.1460 -0.8174 -0.7556
  193DOPC   C2423844   2.377   1.944  12.976  0.4518  0.5865 -0.3886
  193DOPC   H4R23845   2.269   1.971  12.974  0.4281  0.4945 -0.3721
  193DOPC   H4S23846   2.442   2.033  12.964  1.0793 -0.0226 -1.8447
  193DOPC   C2523847   2.412   1.899  13.124 -0.1967 -0.5781 -0.0695
  193DOPC   H5R23848   2.521   1.882  13.132 -0.2305 -0.5681  0.4785
  193DOPC   H5S23849   2.367   1.800  13.146 -0.0683 -1.1574 -2.2045
  193DOPC   C2623850   2.383   2.003  13.238 -0.2388  0.4945  0.5209
  193DOPC   H6R23851   2.277   2.031  13.219 -0.5034 -1.2130 -0.8101
  193DOPC   H6S23852   2.454   2.086  13.220  1.1874 -0.8842 -0.5234
  193DOPC   C2723853   2.407   1.935  13.375  0.5517  0.5517 -0.2668
  193DOPC   H7R23854   2.507   1.887  13.363  1.0989  1.8652 -1.2135
  193DOPC   H7S23855   2.336   1.851  13.390 -0.2413  1.3181  0.3545
  193DOPC   C2823856   2.415   2.024  13.499  0.3911 -0.5985  0.2802
  193DOPC   H8R23857   2.475   2.116  13.486  0.2426 -0.4083  0.8973
  193DOPC   H8S23858   2.469   1.973  13.582  1.4792 -1.1874 -0.7518
  193DOPC   C2923859   2.276   2.062  13.541  0.4206 -0.0335 -0.5465
  193DOPC   H9R23860   2.218   2.125  13.471  1.7552  2.2459  0.2878
  193DOPC  C21023861   2.224   2.037  13.668 -0.3988 -0.8401 -0.3122
  193DOPC  H10R23862   2.119   2.070  13.675 -0.2826 -0.5817  0.2942
  193DOPC  C21123863   2.277   1.974  13.793 -0.4172  0.6616  0.3897
  193DOPC  H11R23864   2.371   1.919  13.771  0.3765  2.2035 -0.2109
  193DOPC  H11S23865   2.205   1.895  13.823 -0.0638 -0.1854 -0.9154
  193DOPC  C21223866   2.301   2.051  13.926  0.5588 -0.0595  0.0118
  193DOPC  H12R23867   2.385   2.120  13.903  1.9270 -1.4544  0.6244
  193DOPC  H12S23868   2.334   1.978  14.004  1.7171  0.0370 -0.3810
  193DOPC  C21323869   2.173   2.123  13.978 -0.0773  0.5094  0.3365
  193DOPC  H13R23870   2.091   2.051  13.999  1.9050 -0.9971  3.7491
  193DOPC  H13S23871   2.135   2.199  13.907  2.5517  1.8721  0.2561
  193DOPC  C21423872   2.183   2.186  14.118  0.1977 -0.6545 -0.2646
  193DOPC  H14R23873   2.260   2.266  14.121 -0.0028 -0.4876  1.2023
  193DOPC  H14S23874   2.235   2.115  14.186  0.9502  0.1241 -0.0148
  193DOPC  C21523875   2.047   2.222  14.176  0.3716  0.5049 -0.7611
  193DOPC  H15R23876   1.980   2.134  14.178  1.5702 -0.4186  0.3336
  193DOPC  H15S23877   2.006   2.288  14.096 -0.5448  1.3998  0.4077
  193DOPC  C21623878   2.039   2.316  14.300 -0.1675  0.6297  0.2698
  193DOPC  H16R23879   1.931   2.334  14.311 -0.6869 -1.5166 -0.7067
  193DOPC  H16S23880   2.098   2.406  14.270 -1.1714  0.8768 -1.0377
  193DOPC  C21723881   2.087   2.252  14.427  0.2543 -0.6089 -0.1272
  193DOPC  H17R23882   2.195   2.227  14.420  0.4872 -0.7795  2.8979
  193DOPC  H17S23883   2.034   2.155  14.441  1.3969 -1.2611 -0.1927
  193DOPC  C21823884   2.076   2.340  14.550 -0.0960 -0.0847  0.2499
  193DOPC  H18R23885   2.095   2.286  14.645  0.8791  0.7592  0.5503
  193DOPC  H18S23886   1.981   2.395  14.566  0.8396  1.1633  1.8743
  193DOPC  H18T23887   2.144   2.426  14.533 -2.6844  1.7348 -1.7733
  193DOPC   C3323888   1.822   2.195  12.975 -0.1019  0.2826  0.1791
  193DOPC   H3X23889   1.720   2.181  13.016  0.1224  0.7346  0.9136
  193DOPC   H3Y23890   1.831   2.234  12.871 -0.8474 -2.0420 -0.8197
  193DOPC   C3423891   1.892   2.310  13.053 -0.5117  0.4108 -0.2618
  193DOPC   H4X23892   1.821   2.394  13.040 -1.0173  0.2723  1.3890
  193DOPC   H4Y23893   1.989   2.337  13.006  0.2379  0.7706  1.4010
  193DOPC   C3523894   1.896   2.304  13.203  0.1100  0.5264 -0.3915
  193DOPC   H5X23895   1.969   2.224  13.226 -0.6529 -0.3592 -0.9602
  193DOPC   H5Y23896   1.799   2.269  13.245  0.5971  1.0330  1.1927
  193DOPC   C3623897   1.924   2.430  13.272 -0.4355 -0.8281  0.0280
  193DOPC   H6X23898   1.986   2.495  13.208  0.8520 -1.4993  0.5598
  193DOPC   H6Y23899   1.830   2.488  13.287 -0.6932 -1.2282  0.0003
  193DOPC   C3723900   2.005   2.413  13.403  0.5865 -0.2565 -0.0905
  193DOPC   H7X23901   2.109   2.380  13.382  0.7548 -0.9878  1.7135
  193DOPC   H7Y23902   2.018   2.515  13.446 -1.7185 -0.8002  2.1195
  193DOPC   C3823903   1.943   2.316  13.507 -0.2444 -0.0970  0.3871
  193DOPC   H8X23904   2.020   2.308  13.587  0.0870 -1.2077 -0.0386
  193DOPC   H8Y23905   1.922   2.219  13.458  0.2553  0.2679 -0.5754
  193DOPC   C3923906   1.810   2.370  13.552  1.1982  0.2369 -0.8763
  193DOPC   H9X23907   1.736   2.412  13.482  0.3617 -0.5628 -0.4894
  193DOPC  C31023908   1.773   2.385  13.675 -0.0663  0.0533 -0.4878
  193DOPC  H10X23909   1.673   2.424  13.698  0.6112  1.3448  0.3852
  193DOPC  C31123910   1.855   2.355  13.796  0.1447  0.2282 -0.3004
  193DOPC  H11X23911   1.920   2.437  13.833  0.7150 -0.5507  0.4626
  193DOPC  H11Y23912   1.930   2.276  13.776  0.2942 -0.6359  3.0487
  193DOPC  C31223913   1.783   2.290  13.917 -0.0197  0.4894 -0.1397
  193DOPC  H12X23914   1.846   2.212  13.965  3.1262  1.8020 -1.8751
  193DOPC  H12Y23915   1.702   2.224  13.878  0.6570  0.0973 -0.9189
  193DOPC  C31323916   1.724   2.396  14.014  0.0652 -0.0828  0.0558
  193DOPC  H13X23917   1.807   2.444  14.070  0.2120  3.1781 -2.6382
  193DOPC  H13Y23918   1.675   2.480  13.960 -0.9839 -0.6532  0.1008
  193DOPC  C31423919   1.640   2.311  14.107  0.3594  0.3452  0.5218
  193DOPC  H14X23920   1.547   2.268  14.063  1.4704 -1.0026 -0.5944
  193DOPC  H14Y23921   1.703   2.220  14.114  1.5614  0.8877 -2.1553
  193DOPC  C31523922   1.626   2.376  14.239 -0.2167 -0.1972  0.0201
  193DOPC  H15X23923   1.544   2.450  14.231 -1.9081 -2.1018 -1.3032
  193DOPC  H15Y23924   1.719   2.430  14.268  0.2225 -1.9493  2.1246
  193DOPC  C31623925   1.609   2.293  14.363  0.0183  0.3215  0.1635
  193DOPC  H16X23926   1.512   2.239  14.357  0.6239 -0.6689 -0.9218
  193DOPC  H16Y23927   1.688   2.216  14.368 -0.4350 -0.0946  1.2767
  193DOPC  C31723928   1.646   2.367  14.493  0.9522  0.1435  0.4113
  193DOPC  H17X23929   1.745   2.416  14.479  1.0816  1.1874  4.1149
  193DOPC  H17Y23930   1.577   2.453  14.506  0.5017 -0.4497  2.0999
  193DOPC  C31823931   1.640   2.283  14.621  0.2551  0.2947 -0.4793
  193DOPC  H18X23932   1.544   2.231  14.640 -0.4054  1.5639 -0.1949
  193DOPC  H18Y23933   1.722   2.209  14.636  0.6915  1.1361  1.6488
  193DOPC  H18Z23934   1.645   2.356  14.705 -1.3581  1.9744 -1.7511
  194DOPC     N23935   4.335   2.105  11.914 -0.3055  0.0446 -0.2640
  194DOPC   C1223936   4.428   2.022  12.006  0.7318  0.7008  0.1845
  194DOPC  H12A23937   4.519   1.988  11.957  1.1862  1.6659  0.3267
  194DOPC  H12B23938   4.374   1.931  12.026  1.4053  0.5300  1.3006
  194DOPC   C1323939   4.412   2.220  11.860  0.1175  0.1367 -0.0385
  194DOPC  H13A23940   4.426   2.298  11.934  0.9844 -0.7040  0.7092
  194DOPC  H13B23941   4.518   2.204  11.845  0.1388 -1.2373  1.3542
  194DOPC  H13C23942   4.368   2.259  11.769 -1.5148  0.8276  0.9948
  194DOPC   C1423943   4.225   2.161  11.998  0.2029 -0.4074  0.0251
  194DOPC  H14A23944   4.162   2.222  11.934  1.6214 -0.8684 -1.9202
  194DOPC  H14B23945   4.167   2.077  12.034  3.7630 -3.0280  0.2182
  194DOPC  H14C23946   4.258   2.214  12.085 -1.6274  1.3001 -0.2389
  194DOPC   C1523947   4.289   2.014  11.807 -0.5296 -0.5323  0.2363
  194DOPC  H15A23948   4.221   1.941  11.848 -1.5231  0.5160  0.4890
  194DOPC  H15B23949   4.373   1.963  11.761 -0.0595 -0.1449  0.6537
  194DOPC  H15C23950   4.244   2.076  11.731  1.8203  0.8660 -0.1042
  194DOPC   C1123951   4.459   2.075  12.148  0.1618  0.3148 -0.0334
  194DOPC  H11A23952   4.365   2.079  12.206 -0.2867 -0.4964 -0.6672
  194DOPC  H11B23953   4.525   2.005  12.204 -2.7289 -1.2596  1.6850
  194DOPC     P23954   4.670   2.227  12.125  0.6849 -0.1529  0.5251
  194DOPC   O1323955   4.694   2.373  12.109  0.3472  0.3236  0.4065
  194DOPC   O1423956   4.708   2.141  12.011 -0.4800 -0.5505  0.4482
  194DOPC   O1223957   4.514   2.209  12.161  0.2573  1.0612  0.0447
  194DOPC   O1123958   4.750   2.181  12.254  0.5653  0.0173 -0.2092
  194DOPC    C123959   4.682   2.223  12.378 -0.0547  0.4339 -0.6518
  194DOPC    HA23960   4.597   2.153  12.393  1.0642 -0.7764  0.3992
  194DOPC    HB23961   4.649   2.329  12.386  0.2514  0.5146 -0.4244
  194DOPC    C223962   4.770   2.214  12.510  0.0901 -0.0303 -0.3862
  194DOPC    HS23963   4.851   2.291  12.503 -0.9893  1.1543 -0.1110
  194DOPC   O2123964   4.817   2.077  12.519 -0.0272 -0.1683 -0.4065
  194DOPC   C2123965   4.933   2.056  12.587 -0.5127  0.0386  0.1132
  194DOPC   O2223966   5.016   2.144  12.616 -0.4481  0.1949  0.4323
  194DOPC   C2223967   4.948   1.909  12.626  1.2283 -0.3473 -0.7739
  194DOPC   H2R23968   4.949   1.843  12.536 -2.9380 -2.6838  0.6148
  194DOPC   H2S23969   4.859   1.897  12.691  1.3061  3.7065  0.4000
  194DOPC    C323970   4.679   2.242  12.631  0.1395 -0.1088 -0.3105
  194DOPC    HX23971   4.606   2.158  12.623  0.2019 -0.1501 -0.4460
  194DOPC    HY23972   4.624   2.336  12.609 -0.2656 -0.7013 -1.9434
  194DOPC   O3123973   4.744   2.249  12.757 -0.4650 -0.0666  0.3553
  194DOPC   C3123974   4.798   2.372  12.781  0.2927  0.1764  0.6820
  194DOPC   O3223975   4.780   2.469  12.715  0.4002 -0.1878 -0.5620
  194DOPC   C3223976   4.874   2.357  12.918  0.0020  0.3875  0.1394
  194DOPC   H2X23977   4.836   2.276  12.985  0.9662  0.9411  1.4103
  194DOPC   H2Y23978   4.982   2.346  12.892  0.4818  3.2791  0.5703
  194DOPC   C2323979   5.077   1.886  12.712 -0.3343  0.2949 -0.5642
  194DOPC   H3R23980   5.160   1.931  12.653  1.0515  1.4014  2.0800
  194DOPC   H3S23981   5.100   1.778  12.704 -1.1600  0.1657 -1.3395
  194DOPC   C2423982   5.056   1.945  12.858 -0.2708  0.6281  0.5253
  194DOPC   H4R23983   4.989   1.884  12.922  0.6888 -1.1660 -0.1036
  194DOPC   H4S23984   5.012   2.047  12.849 -1.0480  0.1605 -1.3853
  194DOPC   C2523985   5.190   1.961  12.927  0.5917  0.6376  0.1614
  194DOPC   H5R23986   5.257   2.023  12.864  0.9905  0.5015  0.4496
  194DOPC   H5S23987   5.233   1.861  12.947 -2.3132 -0.5715  0.9401
  194DOPC   C2623988   5.181   2.039  13.063 -0.0342 -0.1701 -0.1866
  194DOPC   H6R23989   5.086   2.006  13.110  1.1999 -1.3171  1.6314
  194DOPC   H6S23990   5.162   2.146  13.039  1.4970 -0.0677 -1.0480
  194DOPC   C2723991   5.294   2.014  13.159  0.3357 -0.2089  0.4483
  194DOPC   H7R23992   5.390   2.046  13.112 -0.4283  0.5677 -0.6253
  194DOPC   H7S23993   5.310   1.904  13.152  0.4607 -0.1400 -0.4315
  194DOPC   C2823994   5.278   2.057  13.305  0.5681  0.1703 -0.1031
  194DOPC   H8R23995   5.195   2.131  13.308 -2.9172 -3.4254  0.5991
  194DOPC   H8S23996   5.366   2.112  13.344 -0.0027  1.1463 -0.1756
  194DOPC   C2923997   5.255   1.938  13.399  0.4224 -0.0095 -0.2836
  194DOPC   H9R23998   5.312   1.849  13.366  2.6554  0.6598  1.4977
  194DOPC  C21023999   5.162   1.929  13.496  0.0366 -0.5738  0.3699
  194DOPC  H10R24000   5.150   1.835  13.552  2.6128 -0.1350  1.8637
  194DOPC  C21124001   5.076   2.041  13.539  0.1397 -0.7578 -0.5084
  194DOPC  H11R24002   4.967   2.022  13.544  0.0204  0.2892  2.2118
  194DOPC  H11S24003   5.087   2.131  13.474  0.9245 -1.2432 -1.0623
  194DOPC  C21224004   5.111   2.089  13.683  0.6707  0.7157 -0.6640
  194DOPC  H12R24005   5.055   2.183  13.702 -0.0638  0.2030 -0.2402
  194DOPC  H12S24006   5.216   2.125  13.691  0.1254  1.9077  3.8816
  194DOPC  C21324007   5.078   1.998  13.806 -0.4411  1.0125 -0.2914
  194DOPC  H13R24008   5.092   2.071  13.889 -0.8183  1.2153 -0.4052
  194DOPC  H13S24009   5.152   1.915  13.807 -2.1111 -0.5580  1.9079
  194DOPC  C21424010   4.938   1.941  13.796  0.2571 -0.3086 -0.1655
  194DOPC  H14R24011   4.920   1.880  13.705  1.1786  0.1725 -0.6798
  194DOPC  H14S24012   4.869   2.027  13.781  2.3102  1.5585  0.5528
  194DOPC  C21524013   4.900   1.859  13.921 -0.3278  0.3388 -0.0155
  194DOPC  H15R24014   4.967   1.771  13.925 -1.8140 -0.7979  1.0001
  194DOPC  H15S24015   4.799   1.819  13.898  0.8340 -1.7399 -1.8885
  194DOPC  C21624016   4.884   1.942  14.049 -0.1516  0.0427  0.7055
  194DOPC  H16R24017   4.805   2.016  14.024  0.9154  0.3619 -2.2233
  194DOPC  H16S24018   4.977   1.997  14.074 -0.3521  1.0558 -0.6603
  194DOPC  C21724019   4.843   1.859  14.166  0.4320  0.7064 -0.0990
  194DOPC  H17R24020   4.926   1.789  14.190 -0.9084 -0.5772  0.9726
  194DOPC  H17S24021   4.756   1.802  14.128 -0.1966  0.8664  1.0469
  194DOPC  C21824022   4.804   1.939  14.288  0.0864  0.2653 -0.0851
  194DOPC  H18R24023   4.756   1.874  14.363  2.3279  0.0911  1.2984
  194DOPC  H18S24024   4.756   2.038  14.274 -1.5490 -0.6644 -1.4563
  194DOPC  H18T24025   4.895   1.971  14.343 -0.1934 -0.6439  0.9216
  194DOPC   C3324026   4.864   2.495  12.992 -1.3388 -0.5967  0.2728
  194DOPC   H3X24027   4.764   2.509  13.039 -2.0773  1.0060 -1.6403
  194DOPC   H3Y24028   4.857   2.587  12.930 -0.0447  0.7495  2.0075
  194DOPC   C3424029   4.980   2.524  13.091  0.3822 -0.1412  0.0506
  194DOPC   H4X24030   4.978   2.628  13.130 -0.7569 -0.1791  0.1348
  194DOPC   H4Y24031   5.071   2.505  13.031  0.3012 -0.6740  0.0935
  194DOPC   C3524032   4.972   2.423  13.200  0.0717 -0.0440 -0.1476
  194DOPC   H5X24033   4.984   2.322  13.155  1.9232  0.5214 -1.0244
  194DOPC   H5Y24034   4.869   2.416  13.242 -0.5178 -0.3596 -1.6044
  194DOPC   C3624035   5.064   2.453  13.324  0.0436  0.3679  0.0416
  194DOPC   H6X24036   5.088   2.360  13.379  0.1988 -1.6247 -3.1229
  194DOPC   H6Y24037   5.159   2.484  13.275 -1.2515  0.8058 -2.3585
  194DOPC   C3724038   5.009   2.557  13.428  0.2516  1.2469 -0.2647
  194DOPC   H7X24039   5.089   2.585  13.500  1.3002 -1.0442 -0.4525
  194DOPC   H7Y24040   4.970   2.650  13.381 -0.7083  0.2919 -1.4193
  194DOPC   C3824041   4.899   2.485  13.498  0.2140  0.5800 -0.6765
  194DOPC   H8X24042   4.925   2.381  13.526 -4.1638 -0.5304 -0.0827
  194DOPC   H8Y24043   4.810   2.476  13.433  0.4228 -2.1248 -0.6880
  194DOPC   C3924044   4.860   2.552  13.632  0.1648 -0.2793 -0.3991
  194DOPC   H9X24045   4.863   2.662  13.631 -2.5514 -0.1517 -0.3251
  194DOPC  C31024046   4.804   2.495  13.742 -0.1474 -0.0691  0.3310
  194DOPC  H10X24047   4.779   2.553  13.833 -0.2636 -1.0409  0.9304
  194DOPC  C31124048   4.774   2.345  13.765  0.2961  0.1888  0.1502
  194DOPC  H11X24049   4.873   2.295  13.758  0.2147 -0.0009  0.3482
  194DOPC  H11Y24050   4.707   2.293  13.694  1.5747  0.3703 -1.2479
  194DOPC  C31224051   4.714   2.314  13.894  0.2205  0.5972 -0.0149
  194DOPC  H12X24052   4.682   2.207  13.901  1.9737  0.1404  2.4125
  194DOPC  H12Y24053   4.625   2.377  13.915  0.9702  1.0911  1.8746
  194DOPC  C31324054   4.806   2.328  14.015  0.2960  0.3091 -0.6922
  194DOPC  H13X24055   4.858   2.230  14.020 -0.4401 -0.0709 -0.3102
  194DOPC  H13Y24056   4.879   2.409  13.993 -0.8279  1.1419 -1.4683
  194DOPC  C31424057   4.724   2.357  14.142 -0.7102  0.4584 -0.2208
  194DOPC  H14X24058   4.676   2.456  14.125 -0.4341  0.4466 -1.1443
  194DOPC  H14Y24059   4.657   2.271  14.162 -2.1178  0.8104 -2.9166
  194DOPC  C31524060   4.807   2.356  14.273 -0.5546 -0.0776  0.1051
  194DOPC  H15X24061   4.900   2.417  14.267  0.2860 -1.3868 -0.7263
  194DOPC  H15Y24062   4.842   2.251  14.288 -0.0073  0.1405  0.3617
  194DOPC  C31624063   4.733   2.410  14.391  0.2403 -0.2457 -0.0092
  194DOPC  H16X24064   4.700   2.515  14.381  1.4535  0.2560  1.0604
  194DOPC  H16Y24065   4.636   2.356  14.405 -0.9246  1.7944  0.1346
  194DOPC  C31724066   4.807   2.403  14.521  0.6335 -1.3107 -0.7123
  194DOPC  H17X24067   4.742   2.381  14.609  1.3276 -1.0576 -0.1250
  194DOPC  H17Y24068   4.882   2.321  14.506 -0.3623 -2.3503 -0.1748
  194DOPC  C31824069   4.890   2.536  14.540  0.0652  0.3794 -0.3869
  194DOPC  H18X24070   4.835   2.626  14.506  0.5653  0.1385 -1.8917
  194DOPC  H18Y24071   4.915   2.540  14.649  0.6552  0.6549 -0.5263
  194DOPC  H18Z24072   4.981   2.532  14.476 -0.0273 -2.5210 -0.4786
  195DOPC     N24073   6.170   5.799  12.198  0.2547  0.4025  0.1197
  195DOPC   C1224074   6.019   5.814  12.220  0.0656 -0.0297 -1.2638
  195DOPC  H12A24075   5.975   5.718  12.196  0.7766 -1.5646  2.7401
  195DOPC  H12B24076   5.985   5.895  12.157  0.2810  0.8834 -0.2325
  195DOPC   C1324077   6.228   5.687  12.281  0.8799  0.4560 -0.3165
  195DOPC  H13A24078   6.217   5.710  12.386  1.0334  2.4698 -0.7039
  195DOPC  H13B24079   6.186   5.590  12.259  3.0850 -1.0514  1.5466
  195DOPC  H13C24080   6.333   5.674  12.260  0.4873 -0.5188 -1.8235
  195DOPC   C1424081   6.250   5.920  12.217 -0.1524 -0.4524 -0.0602
  195DOPC  H14A24082   6.257   5.983  12.129  2.5723 -1.3070 -0.5613
  195DOPC  H14B24083   6.202   5.979  12.294 -1.4246 -0.4806 -0.8082
  195DOPC  H14C24084   6.352   5.901  12.248  0.2983  2.0211  0.1585
  195DOPC   C1524085   6.193   5.756  12.057 -0.0682 -0.4734  0.1949
  195DOPC  H15A24086   6.297   5.730  12.049  0.3267 -0.0568  2.8810
  195DOPC  H15B24087   6.158   5.829  11.986  2.3565 -0.9751 -1.6391
  195DOPC  H15C24088   6.143   5.664  12.030  0.3486 -0.4766 -0.5838
  195DOPC   C1124089   5.962   5.853  12.364 -0.2052  0.2023 -0.0575
  195DOPC  H11A24090   5.851   5.861  12.364 -0.2507 -0.3029 -0.8959
  195DOPC  H11B24091   5.993   5.765  12.425 -0.9081 -0.2758 -0.3831
  195DOPC     P24092   5.975   6.119  12.357 -0.0820 -0.1926  0.2949
  195DOPC   O1324093   5.939   6.105  12.213 -0.0244  0.0980  0.5303
  195DOPC   O1424094   6.076   6.226  12.386  0.0996 -0.0972 -0.3766
  195DOPC   O1224095   6.026   5.976  12.410  0.0455 -0.3589 -0.3889
  195DOPC   O1124096   5.850   6.142  12.448 -0.2962 -0.7631 -0.0914
  195DOPC    C124097   5.863   6.128  12.593 -0.1785 -0.6912  0.5734
  195DOPC    HA24098   5.905   6.036  12.639  1.8758  0.4560  1.1061
  195DOPC    HB24099   5.761   6.134  12.637  0.5070  2.1637  1.9923
  195DOPC    C224100   5.937   6.249  12.663 -0.3324  0.6380  0.8360
  195DOPC    HS24101   6.045   6.238  12.636 -0.5759 -0.1816  0.1492
  195DOPC   O2124102   5.913   6.246  12.809  0.3007  0.2200  0.2842
  195DOPC   C2124103   6.005   6.182  12.874  0.5477  0.2351 -0.0529
  195DOPC   O2224104   6.108   6.129  12.830 -0.0944 -0.2161 -0.0650
  195DOPC   C2224105   5.966   6.176  13.024  1.1864  0.0696 -0.2863
  195DOPC   H2R24106   5.895   6.094  13.050  1.5533  0.3768  1.9094
  195DOPC   H2S24107   5.901   6.266  13.035  0.9654 -0.2208  1.0006
  195DOPC    C324108   5.892   6.391  12.604  0.4027 -0.1614  0.0841
  195DOPC    HX24109   5.786   6.405  12.634  0.4843  0.0892  0.2545
  195DOPC    HY24110   5.901   6.389  12.494  1.0245  1.6045  0.0690
  195DOPC   O3124111   5.966   6.500  12.667  0.4829 -0.0587 -0.7004
  195DOPC   C3124112   6.040   6.576  12.588  0.0910 -0.5426 -0.0050
  195DOPC   O3224113   6.062   6.558  12.469 -0.0298 -0.6855  0.0660
  195DOPC   C3224114   6.081   6.692  12.669 -0.4419  0.1426  0.6548
  195DOPC   H2X24115   6.086   6.774  12.593 -4.1375 -2.0564 -2.3157
  195DOPC   H2Y24116   6.002   6.711  12.745 -1.5143  1.1674 -0.6536
  195DOPC   C2324117   6.090   6.171  13.117  0.7476  0.1018  0.2246
  195DOPC   H3R24118   6.150   6.256  13.081  1.4734  0.4482  2.1260
  195DOPC   H3S24119   6.139   6.072  13.104  1.6609  0.5932 -0.1061
  195DOPC   C2424120   6.057   6.196  13.263 -0.7815 -0.3790  0.1255
  195DOPC   H4R24121   5.958   6.159  13.297 -1.1983  1.2107  0.7623
  195DOPC   H4S24122   6.050   6.302  13.294 -1.0538 -0.4781  0.4082
  195DOPC   C2524123   6.161   6.128  13.363 -0.0242 -0.1540 -0.2949
  195DOPC   H5R24124   6.265   6.164  13.346  0.3151 -0.4787  0.9928
  195DOPC   H5S24125   6.156   6.020  13.337 -1.1881  0.3845 -2.5619
  195DOPC   C2624126   6.128   6.174  13.510 -0.4462  0.3188 -0.2367
  195DOPC   H6R24127   6.025   6.157  13.547 -0.4156  2.6448  1.1382
  195DOPC   H6S24128   6.140   6.282  13.487 -0.5067  0.7935  1.8086
  195DOPC   C2724129   6.233   6.142  13.612 -0.2969  0.1543 -0.6363
  195DOPC   H7R24130   6.321   6.208  13.595 -0.4058  0.8490  1.2180
  195DOPC   H7S24131   6.250   6.033  13.598 -0.9434  0.0780 -0.8179
  195DOPC   C2824132   6.182   6.172  13.761 -0.3807 -0.4411  0.4269
  195DOPC   H8R24133   6.101   6.097  13.778  0.5345 -1.4221  0.5970
  195DOPC   H8S24134   6.148   6.277  13.771 -0.8184 -0.5258 -0.1087
  195DOPC   C2924135   6.302   6.166  13.857  0.0917 -0.2236 -0.1117
  195DOPC   H9R24136   6.401   6.187  13.814 -0.4375  0.0090 -1.2598
  195DOPC  C21024137   6.298   6.155  13.993  0.2072 -0.3783  0.0265
  195DOPC  H10R24138   6.393   6.177  14.043 -0.6573  0.9887  1.1627
  195DOPC  C21124139   6.175   6.141  14.076 -0.0239 -0.4824 -0.6383
  195DOPC  H11R24140   6.122   6.055  14.030  1.1849 -1.4425 -0.2865
  195DOPC  H11S24141   6.110   6.231  14.075 -0.7082 -0.9113  0.9992
  195DOPC  C21224142   6.208   6.106  14.217 -0.0530 -0.3639  0.1200
  195DOPC  H12R24143   6.268   6.012  14.222  0.8108 -0.0643 -2.5886
  195DOPC  H12S24144   6.115   6.080  14.272 -1.4268 -4.3996 -3.5057
  195DOPC  C21324145   6.269   6.230  14.294  0.1653 -0.1715 -0.3212
  195DOPC  H13R24146   6.193   6.310  14.280  0.2184 -0.1226 -0.3282
  195DOPC  H13S24147   6.370   6.254  14.253  1.0458  4.6766  3.7211
  195DOPC  C21424148   6.284   6.205  14.448 -0.3440 -0.7853 -0.0311
  195DOPC  H14R24149   6.344   6.112  14.458  1.2358  0.3595  2.0348
  195DOPC  H14S24150   6.185   6.186  14.496 -1.5673 -1.5501 -2.6534
  195DOPC  C21524151   6.356   6.319  14.520  0.2714  0.4864 -0.0456
  195DOPC  H15R24152   6.352   6.408  14.454  3.3900  0.8650  0.1169
  195DOPC  H15S24153   6.465   6.298  14.518  0.0252 -0.7877 -0.9243
  195DOPC  C21624154   6.313   6.354  14.660  0.5722  0.5622  0.2393
  195DOPC  H16R24155   6.216   6.406  14.665  0.0447  0.2826 -3.6769
  195DOPC  H16S24156   6.393   6.423  14.693  1.4485  1.3613 -3.1709
  195DOPC  C21724157   6.315   6.227  14.753  0.6155 -0.0735  0.2814
  195DOPC  H17R24158   6.422   6.200  14.766  0.2178 -1.5053  0.7679
  195DOPC  H17S24159   6.254   6.145  14.711 -2.4866  0.9036  2.5561
  195DOPC  C21824160   6.253   6.250  14.889  0.5732  0.2973  0.1736
  195DOPC  H18R24161   6.262   6.163  14.958 -0.3235 -0.3672 -0.5190
  195DOPC  H18S24162   6.147   6.282  14.886  0.5102  0.1032  0.2796
  195DOPC  H18T24163   6.302   6.337  14.938 -0.9057  0.7721  0.8598
  195DOPC   C3324164   6.216   6.679  12.735 -0.8751 -0.0567 -0.8905
  195DOPC   H3X24165   6.236   6.782  12.772 -1.8187  0.1746 -0.9957
  195DOPC   H3Y24166   6.298   6.669  12.660  0.1176 -1.5109  0.3412
  195DOPC   C3424167   6.216   6.584  12.856  0.0566 -0.1522  0.3270
  195DOPC   H4X24168   6.190   6.482  12.821  1.9146 -0.3049 -0.7562
  195DOPC   H4Y24169   6.144   6.616  12.934  1.2071  1.8563  0.6422
  195DOPC   C3524170   6.356   6.577  12.918  0.6798  0.5949 -0.3473
  195DOPC   H5X24171   6.400   6.678  12.930  0.5365  0.6855 -0.5667
  195DOPC   H5Y24172   6.420   6.525  12.844  0.2409  0.9492 -0.9907
  195DOPC   C3624173   6.355   6.492  13.057  0.0798 -0.2563  0.0127
  195DOPC   H6X24174   6.301   6.400  13.029 -2.4757  1.7046 -2.0132
  195DOPC   H6Y24175   6.464   6.479  13.072  0.4950  0.8693 -1.7998
  195DOPC   C3724176   6.301   6.571  13.173  0.0564 -0.8270  0.3953
  195DOPC   H7X24177   6.348   6.672  13.174 -0.2706 -0.6594 -0.2690
  195DOPC   H7Y24178   6.193   6.581  13.152  0.2337 -0.4183 -0.3780
  195DOPC   C3824179   6.316   6.499  13.302  0.0145 -0.2059  0.5865
  195DOPC   H8X24180   6.270   6.401  13.280 -1.7684  0.4359  1.2437
  195DOPC   H8Y24181   6.254   6.551  13.379  0.4980  1.9517 -0.4186
  195DOPC   C3924182   6.454   6.491  13.354  0.1652  0.2567 -0.2761
  195DOPC   H9X24183   6.535   6.490  13.279  0.4370  0.9121 -0.0015
  195DOPC  C31024184   6.486   6.508  13.485  0.1910  0.0145 -0.1762
  195DOPC  H10X24185   6.589   6.490  13.517  0.5773 -1.3437 -2.0151
  195DOPC  C31124186   6.389   6.538  13.596  0.2153  0.3477 -0.2077
  195DOPC  H11X24187   6.309   6.463  13.585  0.1128  0.3834  0.2697
  195DOPC  H11Y24188   6.336   6.635  13.586 -0.1098  0.1827 -0.1012
  195DOPC  C31224189   6.436   6.522  13.740 -0.0251 -0.1877 -0.8380
  195DOPC  H12X24190   6.526   6.585  13.758 -0.7162  1.1308 -1.8558
  195DOPC  H12Y24191   6.456   6.414  13.755  3.1820  0.3896 -0.2374
  195DOPC  C31324192   6.323   6.566  13.836  0.3038 -0.2292  0.0583
  195DOPC  H13X24193   6.301   6.675  13.828 -2.3438 -0.6855  0.3377
  195DOPC  H13Y24194   6.239   6.506  13.796  1.5061 -2.0765  0.2106
  195DOPC  C31424195   6.352   6.530  13.989  0.2773  1.0968 -0.4623
  195DOPC  H14X24196   6.364   6.421  14.007  2.5242  1.6231  1.7311
  195DOPC  H14Y24197   6.448   6.571  14.024  2.0135 -2.2962 -0.8144
  195DOPC  C31524198   6.235   6.564  14.087  0.3199  0.7990 -0.3517
  195DOPC  H15X24199   6.159   6.484  14.078  1.1047  0.0221 -0.2015
  195DOPC  H15Y24200   6.190   6.656  14.043 -0.9703 -0.5801 -2.0134
  195DOPC  C31624201   6.288   6.586  14.228  0.0758 -0.3434 -0.4178
  195DOPC  H16X24202   6.351   6.505  14.271 -0.5095 -0.7173 -0.2535
  195DOPC  H16Y24203   6.362   6.669  14.229 -0.5121  0.1861 -0.1300
  195DOPC  C31724204   6.177   6.604  14.344 -0.4355  0.0050 -0.3394
  195DOPC  H17X24205   6.081   6.616  14.289 -0.9363 -0.9658  0.2921
  195DOPC  H17Y24206   6.172   6.512  14.406  1.8623 -0.4661 -0.7485
  195DOPC  C31824207   6.222   6.717  14.430 -0.1223  0.8053  0.3855
  195DOPC  H18X24208   6.292   6.686  14.510  1.2112  0.3145 -0.9234
  195DOPC  H18Y24209   6.274   6.788  14.362 -1.1835 -0.8903 -2.3963
  195DOPC  H18Z24210   6.139   6.775  14.476 -1.3148 -1.1602  0.8453
  196DOPC     N24211   1.876   2.062  12.495 -0.2468  0.0198  0.2449
  196DOPC   C1224212   1.994   2.045  12.587 -0.4697 -0.6103  0.1518
  196DOPC  H12A24213   2.078   1.995  12.541  1.6311  1.7616  1.0944
  196DOPC  H12B24214   1.969   1.991  12.677  0.5249 -1.2410  0.0613
  196DOPC   C1324215   1.763   2.132  12.558  1.2313 -0.2232 -0.5190
  196DOPC  H13A24216   1.733   2.079  12.647  0.4738  2.3609  0.8360
  196DOPC  H13B24217   1.781   2.235  12.583 -0.7177 -0.4068  1.9900
  196DOPC  H13C24218   1.669   2.137  12.507  0.9466  1.6337  0.1279
  196DOPC   C1424219   1.828   1.928  12.442  0.2806 -0.2303 -0.7579
  196DOPC  H14A24220   1.737   1.929  12.384 -0.9418 -1.2536  1.0594
  196DOPC  H14B24221   1.893   1.876  12.372  1.7851  1.4285 -0.6609
  196DOPC  H14C24222   1.807   1.856  12.520 -1.5734  0.9660 -0.1183
  196DOPC   C1524223   1.914   2.144  12.369  0.7227 -0.2201 -0.8409
  196DOPC  H15A24224   1.972   2.087  12.297 -0.0727 -3.3699  0.8303
  196DOPC  H15B24225   1.968   2.233  12.398  1.0320 -1.2357  2.0491
  196DOPC  H15C24226   1.825   2.172  12.314 -1.0575 -2.5750  0.6530
  196DOPC   C1124227   2.069   2.177  12.629  0.9177 -0.6574 -0.6156
  196DOPC  H11A24228   1.988   2.249  12.652 -0.7501 -1.5697 -3.1208
  196DOPC  H11B24229   2.114   2.157  12.728  1.2770 -0.8640 -0.8153
  196DOPC     P24230   2.283   2.147  12.491 -0.0283  0.0829  0.2405
  196DOPC   O1324231   2.362   2.236  12.406 -0.0669  0.5858  0.3033
  196DOPC   O1424232   2.238   2.015  12.437 -0.4253  0.1738 -0.0224
  196DOPC   O1224233   2.154   2.227  12.531 -0.1051  0.0830  0.7927
  196DOPC   O1124234   2.360   2.116  12.626 -0.2284 -0.0594  0.4679
  196DOPC    C124235   2.395   2.221  12.716 -0.6186 -0.2719  0.2316
  196DOPC    HA24236   2.371   2.188  12.819 -0.7431 -1.1041 -0.0573
  196DOPC    HB24237   2.345   2.320  12.704  0.5771  0.5261  1.5756
  196DOPC    C224238   2.552   2.242  12.706  0.7871  0.1805  0.1979
  196DOPC    HS24239   2.566   2.239  12.596 -0.4469 -0.8101  0.0548
  196DOPC   O2124240   2.611   2.124  12.762  0.5943 -0.1929 -0.0652
  196DOPC   C2124241   2.722   2.085  12.703 -1.1301  0.2586  0.7543
  196DOPC   O2224242   2.774   2.135  12.603  0.5224  0.5223  0.4450
  196DOPC   C2224243   2.773   1.958  12.770  0.0045 -0.4648 -0.4229
  196DOPC   H2R24244   2.872   1.938  12.724  1.5110  2.5694  1.1504
  196DOPC   H2S24245   2.713   1.870  12.739  0.5237 -0.5119 -1.3294
  196DOPC    C324246   2.610   2.367  12.771  0.2260  0.5995 -0.4373
  196DOPC    HX24247   2.552   2.374  12.865 -1.5606  0.1478 -1.4510
  196DOPC    HY24248   2.575   2.462  12.725 -1.7749  0.6092  0.9616
  196DOPC   O3124249   2.749   2.360  12.810 -0.5748  0.0206  0.5421
  196DOPC   C3124250   2.824   2.408  12.704 -0.5786  0.4033  0.0273
  196DOPC   O3224251   2.780   2.430  12.595 -0.2313  0.0469 -0.7118
  196DOPC   C3224252   2.965   2.432  12.764 -0.3531  1.3504 -0.1282
  196DOPC   H2X24253   2.991   2.346  12.829  0.3563 -0.2377 -2.4028
  196DOPC   H2Y24254   3.037   2.431  12.679  0.7538  0.7083  0.8006
  196DOPC   C2324255   2.781   1.977  12.918 -0.9174 -1.2142 -0.6602
  196DOPC   H3R24256   2.800   1.878  12.965 -0.8909 -1.1107 -0.4517
  196DOPC   H3S24257   2.683   2.014  12.954 -0.2360  0.5094 -0.4616
  196DOPC   C2424258   2.883   2.075  12.967 -0.4631 -0.0002 -0.6378
  196DOPC   H4R24259   2.859   2.176  12.928 -0.2947  0.2059 -0.2119
  196DOPC   H4S24260   2.983   2.048  12.926  1.2410  3.8157  0.5580
  196DOPC   C2524261   2.879   2.087  13.124 -0.7506  0.0407  1.2008
  196DOPC   H5R24262   2.938   2.178  13.145 -0.0361  0.2620 -1.4521
  196DOPC   H5S24263   2.931   2.004  13.177  0.3603  0.7513  1.2650
  196DOPC   C2624264   2.745   2.120  13.189 -0.1126  0.3434 -0.4397
  196DOPC   H6R24265   2.682   2.032  13.214 -0.3282  0.4410 -0.6317
  196DOPC   H6S24266   2.687   2.190  13.125  0.6169  1.3707 -0.0147
  196DOPC   C2724267   2.768   2.206  13.316 -0.0607 -0.4277 -0.4490
  196DOPC   H7R24268   2.670   2.229  13.363  0.9503  0.0006  1.5676
  196DOPC   H7S24269   2.809   2.307  13.296 -2.3027  0.5507 -0.4210
  196DOPC   C2824270   2.855   2.148  13.429 -0.0857 -0.4055 -0.0623
  196DOPC   H8R24271   2.953   2.126  13.382 -0.1104 -0.9088  0.1121
  196DOPC   H8S24272   2.820   2.046  13.457  0.9695 -0.4205  1.2893
  196DOPC   C2924273   2.895   2.228  13.554 -0.1100 -0.2361  0.5988
  196DOPC   H9R24274   2.979   2.296  13.537 -0.3132  0.0597  0.7606
  196DOPC  C21024275   2.860   2.211  13.679  1.0304  0.5110 -0.0414
  196DOPC  H10R24276   2.905   2.271  13.759 -0.6867  0.4527  1.0097
  196DOPC  C21124277   2.761   2.103  13.722 -0.5284 -0.3711 -0.8313
  196DOPC  H11R24278   2.824   2.031  13.778 -1.0246 -0.6547 -0.6392
  196DOPC  H11S24279   2.706   2.040  13.649 -3.0565 -0.0312  0.6789
  196DOPC  C21224280   2.639   2.143  13.815  0.0049  0.2387 -0.4688
  196DOPC  H12R24281   2.603   2.051  13.866 -0.8249  1.6093  1.5292
  196DOPC  H12S24282   2.559   2.186  13.752 -2.2869 -0.7140  1.6297
  196DOPC  C21324283   2.667   2.238  13.941 -0.1417  0.8774  0.4204
  196DOPC  H13R24284   2.572   2.288  13.968 -2.1202 -2.2421 -0.1698
  196DOPC  H13S24285   2.734   2.314  13.895 -0.1107 -0.6140 -2.1963
  196DOPC  C21424286   2.734   2.166  14.064 -0.0904  0.4434  0.7125
  196DOPC  H14R24287   2.834   2.125  14.036  0.3289 -0.5626  3.4385
  196DOPC  H14S24288   2.674   2.082  14.104 -0.9220  0.7672  0.1699
  196DOPC  C21524289   2.750   2.258  14.180  0.1806 -0.2961 -0.3566
  196DOPC  H15R24290   2.790   2.357  14.146  0.6448  0.3279  1.8438
  196DOPC  H15S24291   2.825   2.220  14.252  0.1010 -0.9052 -0.5911
  196DOPC  C21624292   2.613   2.268  14.246 -0.7200 -0.3008 -0.2363
  196DOPC  H16R24293   2.592   2.168  14.289 -1.0246  0.3306  1.1617
  196DOPC  H16S24294   2.522   2.285  14.185 -2.5461  0.7702  2.5642
  196DOPC  C21724295   2.612   2.381  14.359  0.2978 -0.1375  0.3131
  196DOPC  H17R24296   2.520   2.443  14.349  2.7012  3.3801 -1.7680
  196DOPC  H17S24297   2.692   2.455  14.339  0.6372 -0.4084  0.6697
  196DOPC  C21824298   2.622   2.335  14.502  0.0214 -0.3145  0.3611
  196DOPC  H18R24299   2.545   2.259  14.530 -0.4418 -0.1398 -0.4184
  196DOPC  H18S24300   2.608   2.426  14.564  0.3358  0.0251 -0.0694
  196DOPC  H18T24301   2.723   2.291  14.506 -0.1524 -1.2588 -2.8889
  196DOPC   C3324302   2.973   2.561  12.839  0.2653 -0.5908 -0.4836
  196DOPC   H3X24303   2.888   2.575  12.910  0.3536 -0.6751 -0.3610
  196DOPC   H3Y24304   2.970   2.654  12.778 -1.0123  0.7374  1.4721
  196DOPC   C3424305   3.093   2.569  12.933  0.4133  0.8794 -0.0653
  196DOPC   H4X24306   3.158   2.649  12.893  1.8244  0.2399  0.8781
  196DOPC   H4Y24307   3.160   2.481  12.922 -0.2002  0.3048  0.7137
  196DOPC   C3524308   3.053   2.599  13.081 -0.1867 -0.1634  0.3867
  196DOPC   H5X24309   2.980   2.529  13.125 -1.5200  1.2223  0.4844
  196DOPC   H5Y24310   3.011   2.700  13.058  1.0383  0.2071 -0.3414
  196DOPC   C3624311   3.179   2.625  13.170  0.3276 -0.4395 -0.0593
  196DOPC   H6X24312   3.225   2.525  13.185 -2.8688 -1.9039  0.8941
  196DOPC   H6Y24313   3.236   2.706  13.119 -0.9785  1.9835  2.0768
  196DOPC   C3724314   3.134   2.676  13.310  0.1898  0.0158 -0.4054
  196DOPC   H7X24315   3.219   2.724  13.362 -0.5964 -1.0022  2.0028
  196DOPC   H7Y24316   3.062   2.759  13.295 -0.3133 -0.0884  1.1889
  196DOPC   C3824317   3.059   2.574  13.394 -0.3758  0.6240 -0.5270
  196DOPC   H8X24318   3.084   2.467  13.377  1.0111  0.3533  2.5578
  196DOPC   H8Y24319   2.951   2.576  13.368 -0.6178 -1.7364  0.0585
  196DOPC   C3924320   3.085   2.595  13.544 -0.0482  0.2829 -0.5261
  196DOPC   H9X24321   3.181   2.557  13.581 -1.0655 -1.7983  0.1648
  196DOPC  C31024322   3.009   2.666  13.623 -0.8313  0.5804  0.0601
  196DOPC  H10X24323   3.036   2.660  13.729  2.2065  0.0102 -0.6371
  196DOPC  C31124324   2.887   2.750  13.582  0.2003 -0.2861 -0.0887
  196DOPC  H11X24325   2.833   2.714  13.492  0.1701 -1.2398  0.3038
  196DOPC  H11Y24326   2.917   2.856  13.569  2.4604 -0.7949  0.5193
  196DOPC  C31224327   2.765   2.745  13.680  0.8721  0.4506 -0.4565
  196DOPC  H12X24328   2.718   2.644  13.684 -0.4530  1.0588 -0.0661
  196DOPC  H12Y24329   2.677   2.804  13.647  0.3241  0.1182  0.3951
  196DOPC  C31324330   2.792   2.806  13.820  0.0614 -0.3648  0.6698
  196DOPC  H13X24331   2.893   2.851  13.817 -0.0908  0.0628  1.5928
  196DOPC  H13Y24332   2.715   2.883  13.840 -1.2174 -1.5093  0.3641
  196DOPC  C31424333   2.792   2.711  13.939  0.3654  0.5160 -0.0914
  196DOPC  H14X24334   2.692   2.664  13.952  0.5974  0.2996  0.9907
  196DOPC  H14Y24335   2.877   2.639  13.939  1.3895  1.6917  0.1429
  196DOPC  C31524336   2.804   2.786  14.076  0.9316  0.2242 -0.0451
  196DOPC  H15X24337   2.714   2.851  14.080  0.9931  0.3957 -1.1238
  196DOPC  H15Y24338   2.893   2.850  14.088  0.0544  1.4241  0.2009
  196DOPC  C31624339   2.803   2.693  14.198  0.5844  0.2307  0.2374
  196DOPC  H16X24340   2.716   2.627  14.218  0.3297  1.2344  2.7826
  196DOPC  H16Y24341   2.892   2.628  14.203 -0.5411 -1.2778  1.4236
  196DOPC  C31724342   2.822   2.787  14.321  0.1301  0.3696 -0.4957
  196DOPC  H17X24343   2.921   2.837  14.314  0.3990 -0.3412 -2.3589
  196DOPC  H17Y24344   2.744   2.866  14.321 -1.1809 -0.7006 -3.9848
  196DOPC  C31824345   2.826   2.721  14.455  0.2081  0.4640  0.7418
  196DOPC  H18X24346   2.850   2.790  14.539  1.2876  0.4462  0.4635
  196DOPC  H18Y24347   2.725   2.685  14.486  0.8041  0.2014  2.4990
  196DOPC  H18Z24348   2.895   2.634  14.462 -1.8870 -1.2022  1.7483
  197DOPC     N24349   6.093   1.257  12.080 -0.0399 -0.5933 -0.3986
  197DOPC   C1224350   5.990   1.248  12.192  0.2205  1.0489 -0.6464
  197DOPC  H12A24351   6.036   1.270  12.287 -0.6169  2.7191 -0.5845
  197DOPC  H12B24352   5.953   1.148  12.209  1.1427  0.7623 -0.2441
  197DOPC   C1324353   6.059   1.182  11.953 -0.4780 -0.4849  0.2946
  197DOPC  H13A24354   6.064   1.077  11.979 -0.1772 -0.4150  0.5278
  197DOPC  H13B24355   5.962   1.211  11.916  0.5820  2.0062 -0.7643
  197DOPC  H13C24356   6.124   1.204  11.869 -2.5021 -1.6402 -1.6696
  197DOPC   C1424357   6.214   1.181  12.131  0.1833 -0.3270  0.1902
  197DOPC  H14A24358   6.191   1.080  12.159  0.2010 -0.1318  0.9343
  197DOPC  H14B24359   6.297   1.182  12.062  0.2463  0.8449  0.2577
  197DOPC  H14C24360   6.244   1.232  12.221 -0.6196  1.1028 -0.3103
  197DOPC   C1524361   6.131   1.397  12.046 -0.0489  0.2647  0.5023
  197DOPC  H15A24362   6.123   1.472  12.123  0.0137  2.0565 -1.1604
  197DOPC  H15B24363   6.063   1.429  11.969 -1.3906 -0.5310  1.3200
  197DOPC  H15C24364   6.231   1.410  12.006  0.0692  1.3378  1.1073
  197DOPC   C1124365   5.862   1.334  12.186  0.5702 -0.6172  0.7984
  197DOPC  H11A24366   5.820   1.330  12.288 -0.6897 -0.8017  0.2964
  197DOPC  H11B24367   5.879   1.442  12.164 -2.7244 -0.2544 -0.4547
  197DOPC     P24368   5.679   1.172  12.072  0.3220 -0.0525 -0.1507
  197DOPC   O1324369   5.753   1.065  12.001  0.4402 -0.2366  0.3097
  197DOPC   O1424370   5.548   1.210  12.018  1.2285  0.0817 -0.0795
  197DOPC   O1224371   5.770   1.302  12.080 -0.0721 -0.1727  0.1101
  197DOPC   O1124372   5.655   1.121  12.223  0.0897  0.0225  0.0637
  197DOPC    C124373   5.540   1.047  12.273  0.5486  0.5961 -0.5553
  197DOPC    HA24374   5.568   0.945  12.304 -0.3405  0.8675  1.2642
  197DOPC    HB24375   5.461   1.040  12.195  1.3832 -0.2706 -1.3461
  197DOPC    C224376   5.493   1.113  12.401  0.4160  0.0316 -0.2278
  197DOPC    HS24377   5.469   1.219  12.377 -0.6662 -0.0087  0.5327
  197DOPC   O2124378   5.596   1.102  12.502  0.5808 -0.4818  0.6544
  197DOPC   C2124379   5.647   1.218  12.535 -0.4671  0.6756 -0.9097
  197DOPC   O2224380   5.629   1.324  12.478  0.4623 -0.1069 -0.3674
  197DOPC   C2224381   5.725   1.210  12.668 -0.2166 -0.8505  0.4024
  197DOPC   H2R24382   5.794   1.297  12.665 -1.5560  0.2154 -1.7056
  197DOPC   H2S24383   5.777   1.113  12.678  2.9830  0.6006 -0.7797
  197DOPC    C324384   5.357   1.037  12.445 -0.2125  0.2166  0.1084
  197DOPC    HX24385   5.398   0.935  12.464  2.5419  0.8114 -1.9852
  197DOPC    HY24386   5.297   1.024  12.353  2.5255 -1.4808 -1.5724
  197DOPC   O3124387   5.288   1.104  12.550  0.1042 -0.4744  0.1409
  197DOPC   C3124388   5.220   1.024  12.636 -1.0220  0.1786  0.3637
  197DOPC   O3224389   5.212   0.900  12.622  0.1753 -0.0090 -0.5745
  197DOPC   C3224390   5.165   1.105  12.757  0.1259  0.3159  0.2587
  197DOPC   H2X24391   5.181   1.212  12.732  0.7928  0.0338 -0.5837
  197DOPC   H2Y24392   5.059   1.079  12.739 -0.5601  2.3156  1.1355
  197DOPC   C2324393   5.629   1.221  12.797 -0.5252 -0.7407  0.0613
  197DOPC   H3R24394   5.563   1.132  12.800  0.0945 -1.1981  0.3051
  197DOPC   H3S24395   5.573   1.317  12.797 -0.0233 -0.4156 -1.2947
  197DOPC   C2424396   5.710   1.223  12.933 -0.5493  0.0198 -0.1673
  197DOPC   H4R24397   5.778   1.311  12.930 -1.2021  0.5371  0.1679
  197DOPC   H4S24398   5.774   1.132  12.927 -0.2467  0.1834  0.5458
  197DOPC   C2524399   5.628   1.226  13.062  0.1127  0.2271 -0.0353
  197DOPC   H5R24400   5.560   1.138  13.064 -0.2082  0.4782  0.4487
  197DOPC   H5S24401   5.555   1.310  13.068 -1.5073 -0.9791 -1.8143
  197DOPC   C2624402   5.712   1.221  13.182 -0.2924 -0.0354  0.5719
  197DOPC   H6R24403   5.788   1.301  13.192 -0.8388  0.5744 -0.1427
  197DOPC   H6S24404   5.773   1.128  13.174 -1.8439 -1.1630  1.3371
  197DOPC   C2724405   5.634   1.218  13.313  0.0298  0.3125 -0.3516
  197DOPC   H7R24406   5.525   1.209  13.292  0.0178  3.0390 -2.0114
  197DOPC   H7S24407   5.641   1.314  13.368  1.5729  0.0109  0.0250
  197DOPC   C2824408   5.670   1.102  13.411 -0.0014  0.3616 -0.3460
  197DOPC   H8R24409   5.660   1.005  13.357  1.6320 -0.3284  0.5367
  197DOPC   H8S24410   5.589   1.110  13.487  0.8518  1.4679  0.4660
  197DOPC   C2924411   5.810   1.110  13.475  0.4859 -0.1633 -0.2057
  197DOPC   H9R24412   5.886   1.121  13.397 -0.1562 -1.1230 -0.9961
  197DOPC  C21024413   5.843   1.090  13.607  0.0613 -0.2367  0.1488
  197DOPC  H10R24414   5.950   1.111  13.625  0.4718 -0.1508 -2.1161
  197DOPC  C21124415   5.756   1.062  13.726  0.4280 -0.7114  0.0547
  197DOPC  H11R24416   5.807   0.985  13.787 -0.9678 -1.2275  0.6038
  197DOPC  H11S24417   5.657   1.030  13.685  0.1100 -1.0785  1.0673
  197DOPC  C21224418   5.719   1.190  13.808 -0.7162 -0.5631  0.2463
  197DOPC  H12R24419   5.672   1.265  13.740 -1.5497 -0.4107  0.9695
  197DOPC  H12S24420   5.816   1.215  13.857 -0.9448 -1.3482  1.1235
  197DOPC  C21324421   5.635   1.160  13.932  0.4792  0.8412  0.0635
  197DOPC  H13R24422   5.664   1.225  14.018  0.4836  0.6378  0.2146
  197DOPC  H13S24423   5.641   1.055  13.967  0.6125  1.0203  0.5928
  197DOPC  C21424424   5.489   1.197  13.898  0.2424  0.0164 -0.0102
  197DOPC  H14R24425   5.438   1.120  13.835  1.7679 -2.3876  1.5819
  197DOPC  H14S24426   5.484   1.299  13.854 -0.9471  0.3832  0.9100
  197DOPC  C21524427   5.401   1.211  14.025  0.7366  0.5332 -0.1606
  197DOPC  H15R24428   5.297   1.236  13.996  0.4171  1.4920  1.6526
  197DOPC  H15S24429   5.429   1.308  14.071 -4.8731  1.8396  1.3017
  197DOPC  C21624430   5.414   1.109  14.136 -0.2447  0.1095  0.0000
  197DOPC  H16R24431   5.510   1.056  14.154 -0.9656 -1.7425 -1.1707
  197DOPC  H16S24432   5.339   1.031  14.110 -0.5714  1.0041 -1.8877
  197DOPC  C21724433   5.374   1.165  14.273 -0.3664  0.1871  0.0907
  197DOPC  H17R24434   5.273   1.209  14.260 -0.1427  0.1781 -2.0995
  197DOPC  H17S24435   5.437   1.254  14.290 -0.0852 -0.0562  0.3314
  197DOPC  C21824436   5.376   1.056  14.382  0.1999 -0.1440  0.6396
  197DOPC  H18R24437   5.313   0.971  14.347  0.4079 -0.4081  0.9007
  197DOPC  H18S24438   5.330   1.094  14.476 -1.3486  0.0939 -0.1771
  197DOPC  H18T24439   5.476   1.014  14.405 -0.3529 -3.1807 -1.7930
  197DOPC   C3324440   5.224   1.068  12.890  0.2220 -0.1433 -0.3152
  197DOPC   H3X24441   5.321   1.121  12.884  0.5515 -0.7158 -0.0870
  197DOPC   H3Y24442   5.252   0.961  12.899 -1.6588 -0.7570 -1.0703
  197DOPC   C3424443   5.145   1.126  13.008 -0.3818 -0.4647  0.3750
  197DOPC   H4X24444   5.042   1.085  13.019 -0.6701  0.5339  1.6297
  197DOPC   H4Y24445   5.134   1.235  12.995  0.5349 -0.5190 -1.0676
  197DOPC   C3524446   5.210   1.081  13.136 -0.5297 -0.2233  0.2226
  197DOPC   H5X24447   5.320   1.089  13.120 -0.5647 -1.6525 -1.0054
  197DOPC   H5Y24448   5.189   0.974  13.157 -1.0139  0.3369  2.9611
  197DOPC   C3624449   5.168   1.158  13.256 -0.0764 -0.2480  0.3234
  197DOPC   H6X24450   5.205   1.260  13.232 -0.7528 -0.6608 -2.9609
  197DOPC   H6Y24451   5.057   1.163  13.258 -0.0679  0.5543 -0.4962
  197DOPC   C3724452   5.232   1.107  13.383  1.1898 -0.6039 -0.2169
  197DOPC   H7X24453   5.196   1.005  13.409 -3.2551  1.7976  5.2394
  197DOPC   H7Y24454   5.342   1.108  13.398  1.1139 -0.1388  0.3337
  197DOPC   C3824455   5.175   1.196  13.495 -0.1543 -0.1929  0.6091
  197DOPC   H8X24456   5.065   1.211  13.489  0.0676  1.3576 -0.1511
  197DOPC   H8Y24457   5.199   1.302  13.471 -2.4349 -0.0663 -1.5039
  197DOPC   C3924458   5.210   1.167  13.639  0.0934 -0.1566  1.0595
  197DOPC   H9X24459   5.317   1.168  13.664  0.6003  0.2422 -0.9276
  197DOPC  C31024460   5.128   1.127  13.742  0.4017 -0.6851 -0.0170
  197DOPC  H10X24461   5.176   1.112  13.840  0.9131 -0.9819 -0.3056
  197DOPC  C31124462   4.971   1.103  13.733 -1.1623 -0.6487  0.9721
  197DOPC  H11X24463   4.947   1.051  13.637  2.2516  1.6411 -1.3349
  197DOPC  H11Y24464   4.923   1.203  13.728 -0.9541 -0.5714  0.4863
  197DOPC  C31224465   4.919   1.031  13.866  0.0372 -0.1072  0.7517
  197DOPC  H12X24466   4.993   0.948  13.871  1.0629  0.7390  0.1454
  197DOPC  H12Y24467   4.824   0.975  13.850 -0.1495  0.2136  0.7306
  197DOPC  C31324468   4.938   1.105  13.996  0.0690 -0.7999  0.0231
  197DOPC  H13X24469   5.041   1.145  14.008  1.1407 -2.9075 -1.5435
  197DOPC  H13Y24470   4.872   1.194  13.998  0.0492 -0.7942  2.6926
  197DOPC  C31424471   4.933   1.017  14.126 -0.5585  0.5654 -0.0061
  197DOPC  H14X24472   4.830   0.975  14.130 -0.9566  1.6276  1.3349
  197DOPC  H14Y24473   5.012   0.940  14.116 -2.0560 -0.9339 -0.7642
  197DOPC  C31524474   4.952   1.100  14.254 -0.4594 -0.3341  0.2566
  197DOPC  H15X24475   4.864   1.167  14.260 -1.7960 -1.9559 -0.3712
  197DOPC  H15Y24476   5.045   1.160  14.246 -1.0385  0.7419  1.3080
  197DOPC  C31624477   4.966   1.020  14.383  0.5206  0.0162  0.8601
  197DOPC  H16X24478   4.874   0.962  14.404 -0.2218  0.8293 -0.0895
  197DOPC  H16Y24479   5.051   0.951  14.363  0.5565  0.3952 -0.3623
  197DOPC  C31724480   4.983   1.097  14.514 -0.4230 -0.2121  0.1491
  197DOPC  H17X24481   4.998   1.028  14.600 -3.1033  0.4108  1.1902
  197DOPC  H17Y24482   5.077   1.154  14.496  0.8543 -2.5019 -0.9634
  197DOPC  C31824483   4.870   1.194  14.554  0.1741  0.6263 -0.3085
  197DOPC  H18X24484   4.824   1.251  14.471 -2.6459  0.2595  0.8640
  197DOPC  H18Y24485   4.782   1.139  14.594  0.3200  0.3643 -0.3436
  197DOPC  H18Z24486   4.900   1.264  14.635 -3.5718  0.3847  1.5034
  198DOPC     N24487   1.314   1.144  11.703  0.1203 -0.0299  0.3769
  198DOPC   C1224488   1.316   1.219  11.834 -0.2211 -0.7542  0.6055
  198DOPC  H12A24489   1.242   1.184  11.904  0.9968 -3.5152  0.6377
  198DOPC  H12B24490   1.291   1.319  11.802 -1.8449 -1.6697 -1.1683
  198DOPC   C1324491   1.417   1.206  11.607 -0.7505  0.0496  0.3478
  198DOPC  H13A24492   1.515   1.184  11.648 -1.2812 -2.1333  0.5832
  198DOPC  H13B24493   1.423   1.144  11.519 -1.8952 -0.6577  0.7400
  198DOPC  H13C24494   1.408   1.309  11.580  2.0169 -0.2361 -2.1406
  198DOPC   C1424495   1.170   1.153  11.644 -0.0010 -0.0857 -0.3650
  198DOPC  H14A24496   1.100   1.125  11.722 -0.5686 -2.1182 -1.5404
  198DOPC  H14B24497   1.136   1.246  11.600 -2.7320 -0.2170  1.1917
  198DOPC  H14C24498   1.147   1.073  11.575 -0.8077  0.2942 -0.5596
  198DOPC   C1524499   1.340   1.000  11.731  0.4951 -0.6933  0.1465
  198DOPC  H15A24500   1.428   0.987  11.792  1.6786 -1.1891 -1.5924
  198DOPC  H15B24501   1.357   0.943  11.641 -1.4229 -0.4527 -0.4153
  198DOPC  H15C24502   1.252   0.961  11.780 -1.6729  1.6976 -1.5535
  198DOPC   C1124503   1.455   1.216  11.915  0.0825 -0.3617 -0.7345
  198DOPC  H11A24504   1.528   1.258  11.842 -1.2423  1.4344 -1.1152
  198DOPC  H11B24505   1.446   1.292  11.995  1.2969  1.6632 -2.4152
  198DOPC     P24506   1.414   1.041  12.106 -0.0930  0.1388 -0.2397
  198DOPC   O1324507   1.486   0.924  12.159 -0.6607  0.4402 -0.3517
  198DOPC   O1424508   1.269   1.027  12.085  0.0044 -0.0539 -0.3397
  198DOPC   O1224509   1.482   1.083  11.967 -0.5071  0.5492 -0.1641
  198DOPC   O1124510   1.443   1.162  12.200  0.2373  0.2475 -0.0916
  198DOPC    C124511   1.337   1.229  12.277 -0.0950 -0.0276 -0.0937
  198DOPC    HA24512   1.235   1.185  12.269 -0.8279  0.7787  3.3044
  198DOPC    HB24513   1.334   1.332  12.236 -0.3401 -0.1723 -0.4492
  198DOPC    C224514   1.382   1.233  12.422 -0.3866  0.2743 -0.4708
  198DOPC    HS24515   1.488   1.266  12.413 -0.8501  1.3683 -2.3484
  198DOPC   O2124516   1.371   1.098  12.484 -0.0617  0.7526 -0.0093
  198DOPC   C2124517   1.464   1.055  12.568 -0.3751 -0.3477 -0.4100
  198DOPC   O2224518   1.571   1.110  12.598 -0.4886 -0.1278  0.2844
  198DOPC   C2224519   1.422   0.916  12.630 -0.7678 -0.5010  0.7651
  198DOPC   H2R24520   1.465   0.836  12.566  1.1463  0.8861  0.2313
  198DOPC   H2S24521   1.311   0.925  12.630 -0.6493  1.4708  0.4848
  198DOPC    C324522   1.298   1.331  12.507 -0.2654 -0.2253 -0.3547
  198DOPC    HX24523   1.190   1.306  12.502 -0.3114 -0.5440  1.4350
  198DOPC    HY24524   1.303   1.432  12.461  1.6070  1.5946  3.3514
  198DOPC   O3124525   1.332   1.335  12.648 -0.6082  0.5894  0.4151
  198DOPC   C3124526   1.420   1.426  12.678 -0.0280  0.0018 -0.2081
  198DOPC   O3224527   1.482   1.498  12.603 -0.0936 -0.2671  0.0843
  198DOPC   C3224528   1.442   1.425  12.833  0.4247 -0.6049  0.6421
  198DOPC   H2X24529   1.504   1.510  12.869 -1.8353  0.0548  3.4187
  198DOPC   H2Y24530   1.339   1.439  12.872  0.2178  0.8534 -0.3450
  198DOPC   C2324531   1.484   0.904  12.771  0.4340  0.3288  0.3355
  198DOPC   H3R24532   1.457   0.993  12.831 -1.6778 -0.4847  0.6854
  198DOPC   H3S24533   1.595   0.912  12.766  0.3367  0.8326 -2.0920
  198DOPC   C2424534   1.433   0.778  12.831  0.3647  0.0298 -0.0551
  198DOPC   H4R24535   1.505   0.720  12.894 -0.4741 -0.5637  0.3753
  198DOPC   H4S24536   1.413   0.705  12.750  0.4071 -0.8051  0.6588
  198DOPC   C2524537   1.301   0.807  12.905 -0.2664 -0.1093  0.9194
  198DOPC   H5R24538   1.247   0.713  12.928 -0.5199  0.0034  0.7984
  198DOPC   H5S24539   1.245   0.870  12.832 -0.2631 -0.9220  0.1974
  198DOPC   C2624540   1.321   0.871  13.042  0.4003  0.1849 -0.8986
  198DOPC   H6R24541   1.359   0.975  13.037  1.7285 -0.2134  0.5156
  198DOPC   H6S24542   1.392   0.807  13.097 -0.5150 -1.8260 -1.9414
  198DOPC   C2724543   1.196   0.874  13.133 -0.0626  0.0806  0.6881
  198DOPC   H7R24544   1.152   0.773  13.146 -1.9384  0.9776  1.7361
  198DOPC   H7S24545   1.112   0.933  13.091 -0.3388 -0.4844  0.4460
  198DOPC   C2824546   1.218   0.929  13.276  0.3314 -0.3769  0.1882
  198DOPC   H8R24547   1.262   1.031  13.266  0.8584 -0.7573 -1.7809
  198DOPC   H8S24548   1.299   0.866  13.321  0.8912  1.2488  1.6025
  198DOPC   C2924549   1.098   0.926  13.363  0.0461  0.0323  0.4404
  198DOPC   H9R24550   1.011   0.984  13.330  0.1177  0.7397  1.4314
  198DOPC  C21024551   1.077   0.849  13.471 -0.7087  0.0632 -0.0091
  198DOPC  H10R24552   0.982   0.868  13.523 -1.8615  1.0708 -2.3453
  198DOPC  C21124553   1.183   0.758  13.536 -0.2383 -0.6792  0.0591
  198DOPC  H11R24554   1.289   0.774  13.508  0.0983 -1.0887  1.0569
  198DOPC  H11S24555   1.154   0.651  13.521 -0.1689 -0.4979 -1.5186
  198DOPC  C21224556   1.194   0.782  13.689  0.8061  0.2736 -1.0379
  198DOPC  H12R24557   1.227   0.685  13.732 -0.4800  0.0733 -0.4437
  198DOPC  H12S24558   1.100   0.810  13.741  1.5861  1.6015 -0.2839
  198DOPC  C21324559   1.290   0.893  13.732 -0.2801  0.2548  0.5164
  198DOPC  H13R24560   1.241   0.991  13.715  1.2334  1.3691  2.1723
  198DOPC  H13S24561   1.379   0.882  13.666 -1.7810 -1.0696 -1.4278
  198DOPC  C21424562   1.333   0.890  13.885  0.0064  0.1796  0.7408
  198DOPC  H14R24563   1.378   0.986  13.918 -1.6475  1.2942 -0.0594
  198DOPC  H14S24564   1.404   0.808  13.907  2.4545  2.3881  1.5485
  198DOPC  C21524565   1.208   0.866  13.980  0.4047  0.5457 -0.0716
  198DOPC  H15R24566   1.161   0.771  13.947  0.2644  0.0047  1.6170
  198DOPC  H15S24567   1.131   0.946  13.968 -0.4521  0.0443  1.7512
  198DOPC  C21624568   1.235   0.836  14.130  0.3075  0.6918 -0.6977
  198DOPC  H16R24569   1.312   0.758  14.148  0.5453  1.3079  1.2850
  198DOPC  H16S24570   1.144   0.803  14.183  2.0976 -1.2074  1.4055
  198DOPC  C21724571   1.303   0.952  14.200  0.5976 -0.0148  0.6957
  198DOPC  H17R24572   1.253   1.049  14.179 -2.0034 -0.7331  3.0115
  198DOPC  H17S24573   1.404   0.950  14.154  0.1716 -1.7200 -0.2601
  198DOPC  C21824574   1.317   0.942  14.355 -0.6354 -0.0920 -0.3662
  198DOPC  H18R24575   1.222   0.955  14.411 -1.3100  1.2671 -1.7698
  198DOPC  H18S24576   1.376   1.030  14.391 -1.8009  0.4104  0.3914
  198DOPC  H18T24577   1.362   0.844  14.379  0.1651  0.4994  0.6416
  198DOPC   C3324578   1.493   1.288  12.890  0.6366  0.1204 -0.7302
  198DOPC   H3X24579   1.580   1.248  12.835 -0.5818  0.1481 -2.8093
  198DOPC   H3Y24580   1.408   1.218  12.873 -2.3020  3.1186  0.3063
  198DOPC   C3424581   1.511   1.288  13.043 -0.5982 -0.3137 -0.3798
  198DOPC   H4X24582   1.497   1.180  13.066  1.7463 -0.6678 -0.4293
  198DOPC   H4Y24583   1.434   1.345  13.100 -0.4686 -0.9426  0.4372
  198DOPC   C3524584   1.655   1.331  13.089 -0.0329  0.7591  0.2981
  198DOPC   H5X24585   1.672   1.434  13.053  1.9622 -0.3380 -2.2458
  198DOPC   H5Y24586   1.733   1.276  13.032 -0.1730 -0.2038  0.9983
  198DOPC   C3624587   1.669   1.329  13.231 -0.2221 -0.3591 -0.4694
  198DOPC   H6X24588   1.758   1.392  13.254 -0.6954  1.0136 -2.1586
  198DOPC   H6Y24589   1.578   1.371  13.280  0.5228 -0.0345  0.6740
  198DOPC   C3724590   1.691   1.188  13.290 -0.5551  0.2434  0.1991
  198DOPC   H7X24591   1.610   1.116  13.265  0.4594 -1.0084  0.4163
  198DOPC   H7Y24592   1.785   1.146  13.249  1.1566  1.8250  2.2288
  198DOPC   C3824593   1.697   1.188  13.451 -0.4655 -0.5446  0.4455
  198DOPC   H8X24594   1.750   1.284  13.471 -0.0628 -0.4848 -0.8343
  198DOPC   H8Y24595   1.768   1.106  13.478  0.1774  0.3663  1.6246
  198DOPC   C3924596   1.561   1.187  13.525 -0.3702 -0.2118  0.0325
  198DOPC   H9X24597   1.477   1.182  13.455 -0.4707 -2.0021  0.2329
  198DOPC  C31024598   1.545   1.172  13.657  0.3373  0.2429  0.8028
  198DOPC  H10X24599   1.446   1.167  13.703  0.2130 -1.2418  0.4304
  198DOPC  C31124600   1.649   1.153  13.761 -0.2546  0.9589 -0.0065
  198DOPC  H11X24601   1.753   1.156  13.720 -1.5824  1.0140 -3.7383
  198DOPC  H11Y24602   1.637   1.055  13.812  0.5293 -0.0468 -1.6719
  198DOPC  C31224603   1.650   1.260  13.866 -0.6524  0.2996 -0.0648
  198DOPC  H12X24604   1.672   1.358  13.818 -0.2489  0.3047  0.1272
  198DOPC  H12Y24605   1.731   1.234  13.938 -0.2488 -2.2427 -1.3016
  198DOPC  C31324606   1.518   1.274  13.944 -0.3979 -0.3531 -0.4176
  198DOPC  H13X24607   1.432   1.313  13.887 -0.9689 -0.5023  0.3222
  198DOPC  H13Y24608   1.483   1.173  13.976 -1.6915  0.2204  0.0264
  198DOPC  C31424609   1.544   1.356  14.075 -0.2170 -0.1282  0.4394
  198DOPC  H14X24610   1.638   1.323  14.124 -0.3790  1.6429  2.0813
  198DOPC  H14Y24611   1.580   1.457  14.045  2.9043 -1.1088  0.5466
  198DOPC  C31524612   1.417   1.345  14.163  0.2346  0.1144 -0.3780
  198DOPC  H15X24613   1.394   1.238  14.186 -0.2222 -0.0936 -1.7031
  198DOPC  H15Y24614   1.327   1.371  14.103  0.6037 -0.4344 -1.1840
  198DOPC  C31624615   1.426   1.426  14.300 -0.3494 -0.3881 -0.3408
  198DOPC  H16X24616   1.524   1.412  14.352  0.2813  3.3860 -0.1724
  198DOPC  H16Y24617   1.435   1.532  14.266  1.2740 -0.5598 -0.5556
  198DOPC  C31724618   1.307   1.420  14.391  0.0250  0.1558  0.7176
  198DOPC  H17X24619   1.220   1.462  14.335  0.6618  1.6520  0.7859
  198DOPC  H17Y24620   1.281   1.317  14.423  0.3729 -0.0521  0.3417
  198DOPC  C31824621   1.324   1.519  14.502  0.3063 -0.5346  0.5150
  198DOPC  H18X24622   1.235   1.520  14.570  0.4036  0.0689  0.6375
  198DOPC  H18Y24623   1.407   1.491  14.570 -0.2917 -0.0656  1.4615
  198DOPC  H18Z24624   1.331   1.620  14.457 -0.1793 -1.2076 -1.1720
  199DOPC     N24625   0.252   1.101  12.039 -0.4992 -0.5661  0.0134
  199DOPC   C1224626   0.234   1.100  12.187  0.2262 -0.6801  0.1111
  199DOPC  H12A24627   0.166   1.180  12.212  0.9173  0.0045 -0.1685
  199DOPC  H12B24628   0.329   1.115  12.236  1.2192  0.8256 -2.1004
  199DOPC   C1324629   0.341   0.981  12.000 -0.1715 -0.4120 -0.2389
  199DOPC  H13A24630   0.347   0.969  11.893  0.6048 -0.2280 -0.2231
  199DOPC  H13B24631   0.440   0.989  12.041  0.4830 -4.1950 -0.7115
  199DOPC  H13C24632   0.299   0.890  12.041 -1.4987  1.0236  1.8110
  199DOPC   C1424633   0.325   1.217  11.988 -0.3414 -0.1429 -0.5175
  199DOPC  H14A24634   0.270   1.305  12.016 -3.9179 -2.0555 -0.9178
  199DOPC  H14B24635   0.417   1.232  12.042 -1.2714  0.7017  0.8893
  199DOPC  H14C24636   0.348   1.217  11.882 -3.1167  0.8969 -1.2133
  199DOPC   C1524637   0.126   1.074  11.967  0.5193 -0.2249  0.8278
  199DOPC  H15A24638   0.043   1.137  11.996 -0.5610 -0.5938 -1.2533
  199DOPC  H15B24639   0.101   0.969  11.975  0.1181 -0.3711 -1.4431
  199DOPC  H15C24640   0.134   1.082  11.859  0.4523 -0.4676  0.8049
  199DOPC   C1124641   0.166   0.972  12.241  0.6840  0.4309  0.3795
  199DOPC  H11A24642   0.217   0.879  12.210  0.8163  0.2382  1.1413
  199DOPC  H11B24643   0.168   0.978  12.352 -0.1998 -0.9513  0.4998
  199DOPC     P24644  -0.059   0.852  12.160 -0.4425  0.0411  0.1025
  199DOPC   O1324645   0.029   0.779  12.069 -0.3060 -0.4478 -0.1758
  199DOPC   O1424646  -0.187   0.892  12.109  0.1104  0.5124  0.8633
  199DOPC   O1224647   0.021   0.969  12.215  0.8079  0.0488  0.9469
  199DOPC   O1124648  -0.069   0.771  12.290 -0.3457 -0.1334 -0.0819
  199DOPC    C124649  -0.152   0.802  12.400 -1.3111  0.5182  0.2393
  199DOPC    HA24650  -0.209   0.710  12.425  2.4547 -1.8431  0.9896
  199DOPC    HB24651  -0.230   0.879  12.379 -1.3508  0.7296  1.1038
  199DOPC    C224652  -0.071   0.839  12.523  0.4650 -0.7812 -0.6518
  199DOPC    HS24653  -0.022   0.936  12.500  1.4656 -1.2455 -0.5213
  199DOPC   O2124654   0.035   0.744  12.550 -0.6922  0.1980 -0.0311
  199DOPC   C2124655   0.144   0.793  12.608 -0.3114 -0.0730 -0.3879
  199DOPC   O2224656   0.160   0.913  12.631 -0.0973 -0.6309 -0.0262
  199DOPC   C2224657   0.236   0.680  12.639  0.1177  0.0982 -0.2114
  199DOPC   H2R24658   0.319   0.682  12.565  1.9234 -0.4688  1.7020
  199DOPC   H2S24659   0.184   0.583  12.623  0.2896 -0.0546  0.1325
  199DOPC    C324660  -0.164   0.851  12.645  0.3134 -0.4196 -0.1383
  199DOPC    HX24661  -0.191   0.747  12.670  0.0493 -0.7607 -1.7399
  199DOPC    HY24662  -0.253   0.912  12.616  0.1273 -0.5788  0.1034
  199DOPC   O3124663  -0.098   0.905  12.763 -0.8732 -0.3479 -0.0822
  199DOPC   C3124664  -0.115   1.030  12.789  0.4316 -0.2128  0.0816
  199DOPC   O3224665  -0.186   1.108  12.722  0.9158  0.4269  0.0920
  199DOPC   C3224666  -0.036   1.067  12.917 -0.6895 -0.1926  0.2106
  199DOPC   H2X24667   0.001   0.971  12.957  1.2792  1.2940  2.2069
  199DOPC   H2Y24668   0.055   1.128  12.895 -1.7893  1.9257  1.1757
  199DOPC   C2324669   0.292   0.695  12.787 -0.4086  0.2184 -0.1632
  199DOPC   H3R24670   0.321   0.801  12.805 -2.0006  0.7160 -0.3293
  199DOPC   H3S24671   0.377   0.628  12.811 -0.6145  0.9507  3.0560
  199DOPC   C2424672   0.194   0.663  12.901  0.3513  0.3786  0.2793
  199DOPC   H4R24673   0.165   0.560  12.873  1.2984  0.6037 -1.6294
  199DOPC   H4S24674   0.094   0.709  12.883  0.0246 -1.1893 -2.4473
  199DOPC   C2524675   0.251   0.672  13.041  0.0279 -0.5945  0.2228
  199DOPC   H5R24676   0.244   0.780  13.065 -0.6166 -0.8155  1.1088
  199DOPC   H5S24677   0.357   0.641  13.031 -0.1808 -1.3759  0.3419
  199DOPC   C2624678   0.182   0.586  13.146 -0.6218 -0.3252 -0.5625
  199DOPC   H6R24679   0.164   0.479  13.123 -3.7119 -0.5668  2.2184
  199DOPC   H6S24680   0.086   0.638  13.170 -0.2793 -0.4777  1.2356
  199DOPC   C2724681   0.271   0.582  13.275 -0.9450 -1.1809  0.3207
  199DOPC   H7R24682   0.317   0.682  13.290  0.0151 -1.8466  2.1272
  199DOPC   H7S24683   0.355   0.513  13.254 -0.9644 -0.5265 -2.2313
  199DOPC   C2824684   0.188   0.527  13.398  0.2919  0.1782  0.7379
  199DOPC   H8R24685   0.255   0.463  13.460  1.1800  0.4824  0.1240
  199DOPC   H8S24686   0.113   0.454  13.359  2.6372 -1.4088 -1.1541
  199DOPC   C2924687   0.126   0.628  13.486  0.8403 -0.5665  0.3057
  199DOPC   H9R24688   0.017   0.636  13.494  0.8449 -0.0398 -0.1302
  199DOPC  C21024689   0.190   0.719  13.566  0.4891  0.2125  0.6446
  199DOPC  H10R24690   0.129   0.792  13.621  0.0911 -0.1765  0.7233
  199DOPC  C21124691   0.336   0.725  13.593 -0.4198 -0.3483 -0.2894
  199DOPC  H11R24692   0.367   0.832  13.592  0.9032 -0.7127 -0.8701
  199DOPC  H11S24693   0.408   0.673  13.526 -0.3339 -0.3746 -0.1764
  199DOPC  C21224694   0.375   0.674  13.733 -0.1535 -0.1508  0.3357
  199DOPC  H12R24695   0.317   0.724  13.813  0.8801  1.3915  0.1611
  199DOPC  H12S24696   0.480   0.701  13.757 -0.2990  0.3854  0.3701
  199DOPC  C21324697   0.354   0.519  13.757  0.6059 -0.3685  0.5508
  199DOPC  H13R24698   0.431   0.471  13.692  0.4991  3.3483 -2.7134
  199DOPC  H13S24699   0.253   0.479  13.733  1.0057 -0.3982 -1.2481
  199DOPC  C21424700   0.380   0.493  13.908 -0.0927  0.4209  0.1484
  199DOPC  H14R24701   0.290   0.522  13.967  1.8783  1.0935  3.0294
  199DOPC  H14S24702   0.464   0.563  13.931 -0.2544  0.3817  0.8851
  199DOPC  C21524703   0.414   0.350  13.956 -0.1241 -0.1541 -0.3330
  199DOPC  H15R24704   0.496   0.321  13.887  0.0440 -0.9790  0.1977
  199DOPC  H15S24705   0.330   0.284  13.925 -1.1970  1.3108 -0.6136
  199DOPC  C21624706   0.452   0.336  14.104  0.3962 -0.4458 -0.5340
  199DOPC  H16R24707   0.515   0.247  14.125  1.8654  0.8941  0.9797
  199DOPC  H16S24708   0.369   0.316  14.175  0.2811 -1.8196 -1.0139
  199DOPC  C21724709   0.539   0.450  14.150 -0.2228  0.0083  0.7766
  199DOPC  H17R24710   0.486   0.547  14.136 -0.0863  0.0129  0.2729
  199DOPC  H17S24711   0.631   0.440  14.089 -0.1830 -0.4354  0.9029
  199DOPC  C21824712   0.578   0.441  14.294  0.2542  0.7405 -0.8788
  199DOPC  H18R24713   0.503   0.415  14.372 -1.1817  3.3055 -1.3083
  199DOPC  H18S24714   0.633   0.529  14.334  0.0091 -0.8820  3.6929
  199DOPC  H18T24715   0.655   0.361  14.294  0.5587  1.0229 -2.2713
  199DOPC   C3324716  -0.117   1.145  13.019  0.5904 -0.3684 -0.4389
  199DOPC   H3X24717  -0.186   1.214  12.966  0.8382 -0.0274 -0.3213
  199DOPC   H3Y24718  -0.051   1.202  13.087 -1.2159 -2.7076  3.6363
  199DOPC   C3424719  -0.209   1.063  13.119 -0.1584  0.0220 -0.0829
  199DOPC   H4X24720  -0.145   1.011  13.193  1.3163  0.0239 -1.3048
  199DOPC   H4Y24721  -0.261   0.979  13.068  0.5978 -0.2667 -0.3877
  199DOPC   C3524722  -0.310   1.157  13.195 -0.5200  0.4047 -0.2686
  199DOPC   H5X24723  -0.362   1.221  13.121 -1.6602  0.5435  0.6207
  199DOPC   H5Y24724  -0.260   1.204  13.282 -0.0475  0.3591 -0.5124
  199DOPC   C3624725  -0.431   1.071  13.258  0.2663  0.4241  0.5028
  199DOPC   H6X24726  -0.486   1.022  13.175  0.2213 -1.9820  1.8959
  199DOPC   H6Y24727  -0.379   0.987  13.308  0.5581  0.1273 -0.2701
  199DOPC   C3724728  -0.529   1.149  13.354  0.1220 -0.1142  0.2575
  199DOPC   H7X24729  -0.557   1.245  13.306  0.0287 -0.5824 -0.6641
  199DOPC   H7Y24730  -0.624   1.092  13.366  0.5139 -0.5772  1.2186
  199DOPC   C3824731  -0.472   1.194  13.486 -0.2933 -0.4135  0.7259
  199DOPC   H8X24732  -0.532   1.279  13.527 -2.4490 -2.1554  1.4217
  199DOPC   H8Y24733  -0.365   1.217  13.467 -0.7114  0.5481 -0.6201
  199DOPC   C3924734  -0.488   1.088  13.589 -0.1330 -0.1036  0.0273
  199DOPC   H9X24735  -0.500   0.988  13.544 -2.3823 -0.5650  1.4536
  199DOPC  C31024736  -0.496   1.104  13.719  0.3113 -0.3031  0.5610
  199DOPC  H10X24737  -0.529   1.015  13.775 -0.6654 -0.9809 -1.0172
  199DOPC  C31124738  -0.501   1.236  13.797  0.6172 -0.3772  0.0252
  199DOPC  H11X24739  -0.480   1.328  13.739 -2.1245 -0.2818 -0.9735
  199DOPC  H11Y24740  -0.423   1.233  13.875  2.3858 -0.6547 -1.6737
  199DOPC  C31224741  -0.631   1.270  13.866 -0.2460  0.3480 -0.0022
  199DOPC  H12X24742  -0.715   1.262  13.793  2.4857  0.0655 -3.3676
  199DOPC  H12Y24743  -0.625   1.374  13.904  1.7120  0.7204 -1.1923
  199DOPC  C31324744  -0.653   1.169  13.987 -0.2337 -0.6413  0.2938
  199DOPC  H13X24745  -0.705   1.077  13.953 -1.0486 -0.1975  0.3264
  199DOPC  H13Y24746  -0.550   1.147  14.023  0.4477  0.6323 -0.7488
  199DOPC  C31424747  -0.739   1.237  14.099  0.5256 -0.3372 -0.0399
  199DOPC  H14X24748  -0.691   1.319  14.157  1.6840 -1.2122  0.2778
  199DOPC  H14Y24749  -0.828   1.285  14.053  1.3982 -0.0375 -1.4709
  199DOPC  C31524750  -0.782   1.129  14.198 -0.0557  0.0690  0.2649
  199DOPC  H15X24751  -0.686   1.113  14.252  1.6320 -1.3036 -2.8292
  199DOPC  H15Y24752  -0.794   1.031  14.147  1.6384 -0.1533  0.2299
  199DOPC  C31624753  -0.896   1.168  14.289 -0.1464 -0.5171 -0.6791
  199DOPC  H16X24754  -0.860   1.262  14.337 -1.0079  0.2473 -1.4969
  199DOPC  H16Y24755  -0.991   1.179  14.233 -0.0969 -0.3345 -0.7262
  199DOPC  C31724756  -0.916   1.061  14.397 -0.0722  0.3301 -0.1224
  199DOPC  H17X24757  -0.944   0.972  14.335  1.3305  0.5923 -1.1805
  199DOPC  H17Y24758  -0.821   1.036  14.450 -0.2853 -1.8559 -0.6640
  199DOPC  C31824759  -1.028   1.087  14.499  0.0869 -0.6144  0.5337
  199DOPC  H18X24760  -1.049   0.995  14.557  0.6035  0.6662  2.8553
  199DOPC  H18Y24761  -0.988   1.167  14.565 -1.3582  0.7431 -0.1771
  199DOPC  H18Z24762  -1.120   1.130  14.454 -1.2450 -0.7668  2.9383
  200DOPC     N24763   3.617   2.897  12.440 -0.1009  0.5951 -0.1941
  200DOPC   C1224764   3.735   2.804  12.469  0.9021 -0.0252 -0.6894
  200DOPC  H12A24765   3.798   2.847  12.546 -0.4431  1.2262 -0.2331
  200DOPC  H12B24766   3.796   2.809  12.380 -1.0235 -1.4887 -2.1701
  200DOPC   C1324767   3.563   2.945  12.566 -0.3677  0.5429  0.3771
  200DOPC  H13A24768   3.476   3.006  12.548  0.5462  1.5776 -0.7237
  200DOPC  H13B24769   3.535   2.862  12.629  1.6024  1.4764  2.6620
  200DOPC  H13C24770   3.628   3.013  12.619  0.7536  0.0816 -0.3636
  200DOPC   C1424771   3.518   2.827  12.350  0.0107 -0.0520 -0.1894
  200DOPC  H14A24772   3.475   2.746  12.408 -1.2866  0.1874 -0.7890
  200DOPC  H14B24773   3.429   2.883  12.325 -1.0893 -1.2561  0.8740
  200DOPC  H14C24774   3.566   2.781  12.265  0.1721  0.1401 -0.2038
  200DOPC   C1524775   3.658   3.025  12.364 -0.1491  0.3081 -0.3214
  200DOPC  H15A24776   3.705   3.093  12.434 -0.7578  0.1270  0.2753
  200DOPC  H15B24777   3.572   3.086  12.343 -0.8453  0.0851  1.7219
  200DOPC  H15C24778   3.713   3.008  12.273 -1.8070  0.4978 -1.4035
  200DOPC   C1124779   3.705   2.658  12.511 -0.3795  0.0242  0.2286
  200DOPC  H11A24780   3.777   2.626  12.588  0.1056 -1.7377 -0.9012
  200DOPC  H11B24781   3.610   2.666  12.569 -0.9097  2.1336 -0.8266
  200DOPC     P24782   3.823   2.491  12.343 -0.4196 -0.2611 -0.2011
  200DOPC   O1324783   3.917   2.580  12.279  0.0681 -0.3565  0.5411
  200DOPC   O1424784   3.772   2.380  12.253  0.2645 -0.3500  0.5338
  200DOPC   O1224785   3.699   2.571  12.400  0.1327 -0.2675 -0.2109
  200DOPC   O1124786   3.891   2.430  12.474  0.1569 -0.1850  0.2478
  200DOPC    C124787   3.840   2.311  12.534 -0.3138  0.0034 -0.7320
  200DOPC    HA24788   3.874   2.217  12.484 -0.6326 -0.0615 -0.8284
  200DOPC    HB24789   3.731   2.307  12.514 -0.1625  0.7054 -1.8079
  200DOPC    C224790   3.865   2.316  12.692 -0.1157 -0.5006 -0.1708
  200DOPC    HS24791   3.792   2.386  12.738  0.3535 -1.0212  1.4374
  200DOPC   O2124792   4.004   2.341  12.708 -0.0549 -0.1808  0.4126
  200DOPC   C2124793   4.032   2.419  12.816  0.1015  0.1031  0.7349
  200DOPC   O2224794   3.959   2.454  12.899 -0.0036  0.2012  0.0551
  200DOPC   C2224795   4.181   2.441  12.836  0.4266 -0.1994 -0.0030
  200DOPC   H2R24796   4.189   2.484  12.939  0.0902  0.2792 -0.1738
  200DOPC   H2S24797   4.216   2.523  12.770 -0.0536 -0.0787 -0.1085
  200DOPC    C324798   3.827   2.181  12.753 -0.5261 -0.7066 -0.1318
  200DOPC    HX24799   3.875   2.096  12.701 -0.0130 -1.3776  1.3720
  200DOPC    HY24800   3.718   2.160  12.745 -0.2703 -1.7446 -0.9852
  200DOPC   O3124801   3.867   2.160  12.892  0.1036  0.7462  0.2597
  200DOPC   C3124802   3.782   2.215  12.980  0.0700  0.8222  0.4703
  200DOPC   O3224803   3.681   2.279  12.953 -0.2194  0.7903  0.5066
  200DOPC   C3224804   3.828   2.181  13.120 -0.1040 -0.0906 -0.0681
  200DOPC   H2X24805   3.818   2.072  13.144 -0.3303  0.2844  1.6832
  200DOPC   H2Y24806   3.938   2.196  13.118 -0.0635 -0.5028 -1.8585
  200DOPC   C2324807   4.269   2.310  12.834  0.4814  0.5591 -0.0992
  200DOPC   H3R24808   4.377   2.336  12.832  0.4565  0.6612 -0.1381
  200DOPC   H3S24809   4.247   2.269  12.734  2.5471  0.5817 -0.6234
  200DOPC   C2424810   4.238   2.206  12.943 -0.6408  0.3732 -0.1567
  200DOPC   H4R24811   4.302   2.117  12.924 -0.3726  0.8720 -1.7530
  200DOPC   H4S24812   4.129   2.184  12.941 -0.4434 -0.6450 -0.4296
  200DOPC   C2524813   4.283   2.257  13.081  0.2109 -0.4031  0.1189
  200DOPC   H5R24814   4.233   2.353  13.107 -0.3883 -0.1260 -1.8652
  200DOPC   H5S24815   4.393   2.270  13.078  0.2115 -0.4663 -0.1749
  200DOPC   C2624816   4.253   2.153  13.193 -1.2545  0.3643 -0.9163
  200DOPC   H6R24817   4.297   2.053  13.172 -1.7222  0.3104 -1.6267
  200DOPC   H6S24818   4.143   2.141  13.184 -1.2479 -0.0733 -0.4724
  200DOPC   C2724819   4.311   2.206  13.320 -0.0785 -0.1751  0.7571
  200DOPC   H7R24820   4.261   2.305  13.327 -0.5322 -0.3169 -0.3275
  200DOPC   H7S24821   4.421   2.219  13.309 -0.1421  0.3054  0.6345
  200DOPC   C2824822   4.290   2.128  13.445  0.4323  0.3865  0.5339
  200DOPC   H8R24823   4.332   2.186  13.530  1.4908 -1.7455  1.5653
  200DOPC   H8S24824   4.351   2.036  13.433  1.8662  1.6521 -3.1959
  200DOPC   C2924825   4.137   2.112  13.455 -0.7194 -0.0180 -0.6139
  200DOPC   H9R24826   4.086   2.208  13.473  2.6923  2.0940 -1.3040
  200DOPC  C21024827   4.074   2.000  13.500  0.2246 -0.4417  0.5516
  200DOPC  H10R24828   3.966   2.007  13.520  0.3478  1.3278  0.6964
  200DOPC  C21124829   4.141   1.876  13.550 -0.0225 -0.6522  0.2649
  200DOPC  H11R24830   4.248   1.895  13.574 -0.5805  0.8114  1.8889
  200DOPC  H11S24831   4.135   1.799  13.471 -0.1989  1.2281 -1.6359
  200DOPC  C21224832   4.071   1.822  13.675  0.2017 -0.2315 -0.2421
  200DOPC  H12R24833   4.126   1.734  13.716 -0.8545  0.5515  3.1608
  200DOPC  H12S24834   3.969   1.781  13.659  0.4515 -2.4856  3.0693
  200DOPC  C21324835   4.055   1.914  13.800 -0.2280  0.9071  0.3039
  200DOPC  H13R24836   3.982   1.995  13.782 -1.3982 -0.1301  0.2057
  200DOPC  H13S24837   4.154   1.958  13.826  2.1211 -3.2711 -0.5391
  200DOPC  C21424838   4.003   1.835  13.917 -0.0175  0.3597  0.4347
  200DOPC  H14R24839   4.080   1.760  13.947  0.7731  0.3722 -1.4025
  200DOPC  H14S24840   3.909   1.788  13.881  0.4402  0.9176 -1.6209
  200DOPC  C21524841   3.965   1.933  14.033 -0.0784 -0.0442 -0.8843
  200DOPC  H15R24842   3.868   1.980  14.006 -0.0457  0.1190 -0.7144
  200DOPC  H15S24843   4.044   2.011  14.031  0.0985 -0.2307 -2.1555
  200DOPC  C21624844   3.969   1.860  14.169  0.0443  0.3124  0.2780
  200DOPC  H16R24845   4.064   1.803  14.170  0.9702  1.7649 -0.7684
  200DOPC  H16S24846   3.886   1.787  14.177  0.0792  0.3747  1.2423
  200DOPC  C21724847   3.962   1.955  14.291 -0.0565  0.0833 -0.6968
  200DOPC  H17R24848   3.862   2.004  14.293 -0.8352 -1.4701  1.0093
  200DOPC  H17S24849   4.042   2.033  14.292 -0.6810  0.7247  0.4220
  200DOPC  C21824850   3.991   1.892  14.428 -0.0173  0.6252  0.2885
  200DOPC  H18R24851   4.094   1.850  14.425 -0.3885 -0.2815 -0.2131
  200DOPC  H18S24852   3.920   1.817  14.471 -1.5448  1.6698 -0.3273
  200DOPC  H18T24853   3.998   1.975  14.502  1.3342  1.3716 -0.6533
  200DOPC   C3324854   3.764   2.270  13.228  0.3768  0.1767 -0.4941
  200DOPC   H3X24855   3.655   2.254  13.243  0.2656  0.9667 -0.4135
  200DOPC   H3Y24856   3.791   2.377  13.214 -0.2433  0.1244 -2.3350
  200DOPC   C3424857   3.828   2.236  13.367  0.2531  1.4216 -0.3473
  200DOPC   H4X24858   3.935   2.268  13.369  1.5078 -2.2652  2.4599
  200DOPC   H4Y24859   3.822   2.125  13.361  2.0554  1.2080  0.8718
  200DOPC   C3524860   3.757   2.297  13.485  0.0931  0.5126 -0.4096
  200DOPC   H5X24861   3.652   2.261  13.488 -0.2267  1.5036  0.8327
  200DOPC   H5Y24862   3.763   2.405  13.463  3.7576  0.8325  1.3207
  200DOPC   C3624863   3.828   2.285  13.623  0.5066  0.2924  0.0142
  200DOPC   H6X24864   3.871   2.183  13.632 -0.4818 -0.1983 -0.5763
  200DOPC   H6Y24865   3.917   2.351  13.622  0.8261 -0.1357 -0.3497
  200DOPC   C3724866   3.738   2.290  13.748 -0.3190  0.0400 -0.9075
  200DOPC   H7X24867   3.641   2.334  13.718  0.7496  1.9858 -1.7338
  200DOPC   H7Y24868   3.721   2.185  13.779  1.5050 -0.4342 -1.3648
  200DOPC   C3824869   3.796   2.384  13.857  0.0517  0.4196  0.0846
  200DOPC   H8X24870   3.832   2.482  13.820  2.1902 -0.2803  0.1352
  200DOPC   H8Y24871   3.885   2.334  13.902 -0.1930  0.8628  1.0972
  200DOPC   C3924872   3.697   2.414  13.967 -0.1569  0.5540 -0.7082
  200DOPC   H9X24873   3.626   2.493  13.936  0.4712  1.2551 -0.3895
  200DOPC  C31024874   3.686   2.372  14.096 -0.1321 -0.6485 -0.1693
  200DOPC  H10X24875   3.614   2.424  14.161  1.2394  2.1931 -0.7740
  200DOPC  C31124876   3.782   2.270  14.159  0.8981 -0.4350  0.4495
  200DOPC  H11X24877   3.861   2.236  14.089 -0.1529  0.1094 -1.0596
  200DOPC  H11Y24878   3.719   2.186  14.193  3.8151 -3.2820 -0.6584
  200DOPC  C31224879   3.858   2.347  14.271  0.3590  0.3274  0.1678
  200DOPC  H12X24880   3.910   2.435  14.227 -0.1369  1.1679  1.2339
  200DOPC  H12Y24881   3.939   2.278  14.304 -1.6966 -1.9212  0.8012
  200DOPC  C31324882   3.762   2.393  14.377 -0.0174  0.1597  0.3672
  200DOPC  H13X24883   3.699   2.476  14.339  3.4154  1.7165 -2.4577
  200DOPC  H13Y24884   3.698   2.304  14.394  1.6489 -0.6801  2.7067
  200DOPC  C31424885   3.810   2.429  14.519  0.2422 -1.0344  0.3041
  200DOPC  H14X24886   3.874   2.520  14.514 -1.3873  0.1729  0.1993
  200DOPC  H14Y24887   3.721   2.450  14.582  0.1362 -0.5839  0.0149
  200DOPC  C31524888   3.899   2.323  14.574 -0.0018 -0.8919 -0.2393
  200DOPC  H15X24889   3.982   2.314  14.500  2.2095  0.7864  1.8920
  200DOPC  H15Y24890   3.848   2.224  14.572 -1.5516 -0.1258 -0.0202
  200DOPC  C31624891   3.955   2.336  14.711  0.1839 -0.7716  0.2515
  200DOPC  H16X24892   4.006   2.433  14.729  0.9529 -1.2751  0.8941
  200DOPC  H16Y24893   3.872   2.338  14.785 -0.0215 -0.8150  0.0222
  200DOPC  C31724894   4.053   2.221  14.760 -1.0595  0.1171  0.0978
  200DOPC  H17X24895   4.132   2.216  14.682 -1.9203  0.4030 -0.8154
  200DOPC  H17Y24896   4.104   2.251  14.854 -0.6084 -1.9369  0.5583
  200DOPC  C31824897   3.972   2.098  14.784 -0.3143 -0.2634  0.2543
  200DOPC  H18X24898   4.035   2.015  14.822  0.5914 -1.1529 -2.9004
  200DOPC  H18Y24899   3.897   2.116  14.864 -1.9016  2.1656 -1.6346
  200DOPC  H18Z24900   3.934   2.058  14.688  0.3889 -1.4861  0.4649
  201SOD    SOD24901   1.870   6.169  19.786 -0.1602  0.4827 -0.0020
  202SOD    SOD24902   2.342   5.607  10.811  0.2852 -0.0716 -0.3096
  203SOD    SOD24903   6.673   1.692  18.711  0.3368  0.7143  0.4325
  204SOD    SOD24904   5.190   4.448  11.392 -0.0307  0.1639  0.1462
  205SOD    SOD24905   4.270   1.812  17.760  0.1434  0.0892 -0.3472
  206SOD    SOD24906   3.038   5.231   9.847 -0.2717 -0.4108 -0.0109
  207SOD    SOD24907   2.531   0.367   9.779  0.0871 -0.1161  0.0686
  208SOD    SOD24908   2.838   4.028  19.760  0.0438  0.2711 -0.6915
  209SOD    SOD24909   5.674   3.186  11.148  0.1486 -0.4921 -0.2229
  210SOD    SOD24910   4.914   1.440  17.729 -0.0679 -0.2154 -0.1201
  211SOD    SOD24911   0.258   2.727  17.408  0.0159  0.5073  0.0830
  212SOD    SOD24912   1.341   0.494  20.107 -0.3573 -0.9449  0.1157
  213SOD    SOD24913   1.844   5.229  10.743 -0.1135  0.1071 -0.1299
  214SOD    SOD24914   1.841   5.621  19.426  0.2664  0.0753  0.0540
  215SOD    SOD24915   6.656   3.332  18.346  0.0051 -0.0020 -0.2019
  216SOD    SOD24916   5.407   1.857  20.228 -0.4136  0.0220  0.0059
  217SOD    SOD24917   1.528   6.031  10.672 -0.2331  0.2350  0.0165
  218SOD    SOD24918   3.055   3.726  18.906  0.5492 -0.3917 -0.0653
  219SOD    SOD24919   1.996   3.620  17.820 -0.2072 -0.1556  0.5096
  220SOD    SOD24920   3.709   3.987  13.227  0.0088 -0.0284 -0.4940
  221SOD    SOD24921   4.725   1.505  11.632  0.0761 -0.0365  0.3679
  222SOD    SOD24922   0.920   1.860  17.146 -0.2801  0.3861 -0.3782
  223SOD    SOD24923   6.608   3.853  11.873  0.1728 -0.1555  0.0458
  224SOD    SOD24924   5.753   2.521   9.609  0.1335  0.2861 -0.1531
  225SOD    SOD24925   1.523   6.508  10.258  0.5200  0.0189 -0.0759
  226SOD    SOD24926   2.649   0.308  20.557  0.2426  0.3233 -0.1895
  227CLA    CLA24927   5.360   5.288  11.601 -0.3469  0.0406 -0.0478
  228CLA    CLA24928   3.472   6.220   9.639  0.1163 -0.0486 -0.2504
  229CLA    CLA24929   3.958   1.423  11.463 -0.1244 -0.5043  0.4536
  230CLA    CLA24930   4.079   2.407  20.202  0.3867  0.0694  0.0371
  231CLA    CLA24931   5.203   1.293  18.538 -0.1980 -0.0521 -0.1642
  232CLA    CLA24932   1.093   0.747  18.066 -0.1644  0.2165  0.1693
  233CLA    CLA24933   1.738   6.225  18.190  0.1095 -0.3330 -0.1483
  234CLA    CLA24934   4.500   1.221  17.537  0.0404  0.2683 -0.0395
  235CLA    CLA24935   2.849   6.134  11.050 -0.3060  0.1961  0.2540
  236CLA    CLA24936   6.453   4.764  18.785  0.0731 -0.2062 -0.0993
  237CLA    CLA24937   3.103   3.391  19.329 -0.0422 -0.0799 -0.3983
  238CLA    CLA24938   3.652   4.356  12.331  0.3956  0.1975  0.4003
  239CLA    CLA24939   1.514   4.623  11.056  0.1959 -0.3186  0.0946
  240CLA    CLA24940   0.158   0.591  19.689  0.1871  0.1322 -0.0611
  241CLA    CLA24941   0.924   5.624  10.221  0.1547  0.0434 -0.0237
  242CLA    CLA24942   1.655   2.085  18.035 -0.1106 -0.2435  0.0935
  243CLA    CLA24943   2.801   2.987  11.145 -0.2874  0.1424 -0.0807
  244CLA    CLA24944   1.199   1.649  11.269 -0.2543 -0.0239 -0.3869
  245CLA    CLA24945   3.407   0.912  11.154  0.0568  0.0838 -0.4331
  246CLA    CLA24946   2.710   0.615  19.639 -0.1323 -0.2454  0.2907
  247CLA    CLA24947   5.873   5.840  11.923 -0.0376 -0.0384 -0.1851
  248CLA    CLA24948   2.454   0.694   9.426 -0.3486  0.2545 -0.1074
  249CLA    CLA24949   1.713   4.204  12.039 -0.1643 -0.4209 -0.1582
  250CLA    CLA24950   1.939   5.015  19.563 -0.1658  0.1331 -0.0660
  251CLA    CLA24951   5.410   4.477  20.466  0.3074  0.1305  0.2498
  252CLA    CLA24952   4.789   3.000   9.699 -0.2217  0.2933 -0.2170
  253TIP3   OH224953   5.607   6.426  18.405 -0.0657 -0.0647 -0.4384
  253TIP3    H124954   5.621   6.376  18.486  1.0642  1.2984  0.2531
  253TIP3    H224955   5.579   6.512  18.435  0.3642  0.4534 -1.5063
  254TIP3   OH224956   2.655   1.854  19.208 -0.1019 -0.1631  0.3818
  254TIP3    H124957   2.580   1.910  19.230 -0.4169 -0.2447 -0.4236
  254TIP3    H224958   2.728   1.914  19.198 -0.1546 -0.0347  0.7503
  255TIP3   OH224959   3.940   0.097  17.736  0.2040  0.5109  0.6726
  255TIP3    H124960   4.024   0.110  17.692 -0.8549  0.6837 -1.4764
  255TIP3    H224961   3.885   0.168  17.704 -1.5461 -1.1367 -0.2122
  256TIP3   OH224962   0.692   5.621  17.978  0.3311 -0.3841 -0.5924
  256TIP3    H124963   0.653   5.708  17.976 -0.9921 -0.9568 -0.4455
  256TIP3    H224964   0.765   5.629  18.040 -0.1616  0.4514 -0.1089
  257TIP3   OH224965   2.669   3.441  19.684  0.4251 -0.3812 -0.3154
  257TIP3    H124966   2.697   3.365  19.633  1.9890  0.0262 -0.1035
  257TIP3    H224967   2.581   3.418  19.714  0.7143 -1.9462 -0.5613
  258TIP3   OH224968   4.639   2.100  20.668 -0.0883 -0.3934 -0.4876
  258TIP3    H124969   4.593   2.055  20.596 -2.8579 -0.4608  1.1743
  258TIP3    H224970   4.614   2.192  20.659  0.8120 -0.1375 -0.4756
  259TIP3   OH224971   5.686   0.399  18.942 -0.2262 -0.4739 -0.0293
  259TIP3    H124972   5.705   0.334  18.875  2.4618  0.9058 -0.7771
  259TIP3    H224973   5.591   0.404  18.946 -0.5723 -4.3496  0.0724
  260TIP3   OH224974   5.335   1.161  17.578  0.6191 -0.3172  0.4565
  260TIP3    H124975   5.422   1.121  17.581  1.3984  1.1374 -1.0335
  260TIP3    H224976   5.352   1.255  17.582 -1.0314 -0.0291  1.9398
  261TIP3   OH224977   2.086   6.260  19.670  0.0743  0.1770  0.1119
  261TIP3    H124978   2.092   6.294  19.581  0.9542 -0.2994 -0.0326
  261TIP3    H224979   2.124   6.328  19.725 -0.2382  0.3671  0.0907
  262TIP3   OH224980   5.303   2.046  18.954 -0.3242 -0.0689 -0.0259
  262TIP3    H124981   5.352   2.113  18.905 -0.1462  0.6932  1.1614
  262TIP3    H224982   5.369   1.980  18.977 -0.1989  0.0981  0.0944
  263TIP3   OH224983   2.546   1.026  19.096  0.2125  0.0600 -0.0217
  263TIP3    H124984   2.617   1.023  19.160  0.7297 -0.6405 -0.6172
  263TIP3    H224985   2.588   1.055  19.015 -0.0734 -0.8466 -0.5060
  264TIP3   OH224986   4.856   3.428  19.336 -0.2285 -0.1231 -0.4701
  264TIP3    H124987   4.895   3.341  19.344 -1.3787 -0.5101  1.7780
  264TIP3    H224988   4.770   3.412  19.297  0.4698  0.3396 -2.3009
  265TIP3   OH224989   1.917   1.595  20.010  0.6683 -0.3219 -0.2761
  265TIP3    H124990   1.962   1.555  19.936  0.6996  0.0369 -0.4560
  265TIP3    H224991   1.968   1.571  20.087  0.4539 -0.9702 -0.3337
  266TIP3   OH224992   2.053   4.459  17.844  0.0581  0.1059 -0.3085
  266TIP3    H124993   2.011   4.463  17.758  1.1247 -0.0737 -0.8503
  266TIP3    H224994   2.145   4.475  17.826  0.4186 -0.7486  0.7009
  267TIP3   OH224995   1.089   6.092  18.039  0.0413 -0.5646 -0.1397
  267TIP3    H124996   0.997   6.063  18.039  0.0019 -0.4472 -0.4643
  267TIP3    H224997   1.128   6.049  18.115 -0.6461  0.5296  0.8730
  268TIP3   OH224998   0.448   4.989  19.721  0.1388 -0.2966  0.0115
  268TIP3    H124999   0.375   4.929  19.735 -1.5260  1.7765  0.5984
  268TIP3    H225000   0.459   4.992  19.626  0.4710 -1.6969 -0.0294
  269TIP3   OH225001   5.849   5.912  19.346  0.3432 -0.0010 -0.2938
  269TIP3    H125002   5.776   5.855  19.321  1.8410 -1.9629 -0.4625
  269TIP3    H225003   5.831   5.935  19.437 -1.2550  0.8977 -0.7885
  270TIP3   OH225004   3.502   2.827  20.781  0.0302  0.2501 -0.0717
  270TIP3    H125005   3.594   2.855  20.771  1.4017 -3.0940  1.6717
  270TIP3    H225006   3.480   2.788  20.697  0.4344  0.5109 -0.3064
  271TIP3   OH225007   6.005   3.341  19.148 -0.0955  0.0533  0.6501
  271TIP3    H125008   5.935   3.281  19.121  1.3055 -0.8969 -1.1084
  271TIP3    H225009   6.005   3.408  19.080 -1.0846  1.6493  2.1533
  272TIP3   OH225010   5.199   1.828  20.073  0.2219 -0.3167  0.4258
  272TIP3    H125011   5.109   1.817  20.102 -0.2402 -0.5334 -1.0223
  272TIP3    H225012   5.193   1.882  19.994  0.9793 -2.9886 -1.6022
  273TIP3   OH225013   4.545   3.601  18.911 -0.0356  1.0672 -0.5388
  273TIP3    H125014   4.497   3.637  18.985 -2.9580 -0.6084 -1.4827
  273TIP3    H225015   4.555   3.676  18.851  0.0236  1.8231  0.3925
  274TIP3   OH225016   0.672   3.888  19.304  0.1044 -0.6778 -0.3738
  274TIP3    H125017   0.598   3.942  19.275  0.9745  0.8604  0.1738
  274TIP3    H225018   0.678   3.903  19.398  1.4443 -0.3293 -0.4916
  275TIP3   OH225019   3.433   1.688  17.480 -0.1707 -0.4438  0.2465
  275TIP3    H125020   3.492   1.631  17.430 -1.8970 -2.6582  0.5809
  275TIP3    H225021   3.367   1.715  17.416  0.7475  1.4732  0.0354
  276TIP3   OH225022   3.662   3.491  18.892 -0.1869  0.8102  0.1915
  276TIP3    H125023   3.673   3.550  18.817 -0.8952  0.4699 -0.1885
  276TIP3    H225024   3.729   3.520  18.955  0.7956  0.7475 -0.7836
  277TIP3   OH225025   4.656   0.176  19.244 -0.1060  0.0290  0.0027
  277TIP3    H125026   4.620   0.264  19.256  1.8338  0.8019  0.6538
  277TIP3    H225027   4.582   0.123  19.215 -0.9682  2.2678 -2.2657
  278TIP3   OH225028   2.759   2.485  18.830 -0.2528  0.1774  0.3938
  278TIP3    H125029   2.704   2.417  18.790  0.5342 -0.4245  0.3035
  278TIP3    H225030   2.754   2.469  18.924  0.5130 -0.4798  0.3330
  279TIP3   OH225031   1.279   2.122  20.021 -0.3334  0.1930 -0.3217
  279TIP3    H125032   1.327   2.079  20.091  1.6569  0.2014 -1.5948
  279TIP3    H225033   1.188   2.093  20.032  0.6656 -3.3436 -0.3602
  280TIP3   OH225034   0.803   4.486  17.171  0.1432  0.2334 -0.5636
  280TIP3    H125035   0.781   4.560  17.228  0.4808 -1.5028  2.0199
  280TIP3    H225036   0.724   4.432  17.171  0.8302 -0.8064  0.0269
  281TIP3   OH225037   5.441   5.425  19.441 -0.2702  0.4412 -0.4707
  281TIP3    H125038   5.454   5.342  19.396  0.5539  0.4901 -0.3409
  281TIP3    H225039   5.523   5.440  19.489 -1.2284  0.2082  1.3520
  282TIP3   OH225040   3.830   4.838  18.673  0.2775 -0.7359  0.3556
  282TIP3    H125041   3.902   4.898  18.655  0.0669  0.4347  2.8730
  282TIP3    H225042   3.869   4.769  18.727 -0.1895 -0.8255  0.5894
  283TIP3   OH225043   5.025   6.139  18.954  0.0821  0.0316 -0.4886
  283TIP3    H125044   4.935   6.164  18.977  0.3924 -0.1260  0.9643
  283TIP3    H225045   5.078   6.168  19.028  1.3752  0.8861 -1.7074
  284TIP3   OH225046   1.160   1.819  11.549 -0.1365  0.7592  0.2988
  284TIP3    H125047   1.066   1.805  11.537  0.2088 -1.4678 -0.2014
  284TIP3    H225048   1.201   1.775  11.474  1.2959  2.0961  0.2491
  285TIP3   OH225049   0.070   2.532  12.752 -0.1833  0.3260  0.4377
  285TIP3    H125050   0.082   2.594  12.824 -2.7182  0.1413  1.1113
  285TIP3    H225051   0.073   2.586  12.673  2.3795  0.5628  0.6035
  286TIP3   OH225052   0.693   0.088  10.695 -0.3235 -0.3756 -0.0331
  286TIP3    H125053   0.751   0.071  10.620  0.1544 -1.1858  0.5025
  286TIP3    H225054   0.641   0.164  10.669  0.6163  0.0401 -0.7381
  287TIP3   OH225055   6.587   0.380   9.436 -0.0922 -0.2439 -0.0919
  287TIP3    H125056   6.582   0.404   9.343  0.3970 -0.6674 -0.2318
  287TIP3    H225057   6.519   0.314   9.447 -1.1578  0.8697  0.1987
  288TIP3   OH225058   3.094   2.860  11.781 -0.2933  0.0558 -0.3801
  288TIP3    H125059   3.067   2.901  11.864 -1.1843  1.0160 -1.1171
  288TIP3    H225060   3.170   2.911  11.754 -0.1208 -0.1337 -0.2548
  289TIP3   OH225061   5.497   1.890  11.216  0.3625 -0.3853 -0.5797
  289TIP3    H125062   5.440   1.903  11.140  1.1171 -0.5251 -1.1809
  289TIP3    H225063   5.557   1.964  11.214  0.0720 -0.1125  0.1855
  290TIP3   OH225064   4.217   5.444  13.239  0.0626 -0.1440 -0.7124
  290TIP3    H125065   4.312   5.449  13.227  0.3316 -3.4420 -1.1410
  290TIP3    H225066   4.189   5.383  13.170 -2.1884 -0.1491  0.1428
  291TIP3   OH225067   2.009   0.885  11.884 -0.1899  0.1202 -0.3337
  291TIP3    H125068   1.955   0.962  11.867 -2.4464 -1.3230 -0.0719
  291TIP3    H225069   1.979   0.852  11.969  2.1919  0.0902  0.5822
  292TIP3   OH225070   3.809   2.907  11.570 -0.4203  0.3155  0.4018
  292TIP3    H125071   3.785   2.995  11.598  0.0860  0.6790 -0.2722
  292TIP3    H225072   3.857   2.870  11.643  0.8876  1.2429  0.0535
  293TIP3   OH225073   0.913   0.974  10.610 -0.2290  0.9234  0.1573
  293TIP3    H125074   0.965   0.933  10.541  1.1852  0.2046  1.6074
  293TIP3    H225075   0.974   0.990  10.682 -1.4613  2.5073  0.9377
  294TIP3   OH225076   3.311   3.066  11.854  0.0773  0.7420  0.5019
  294TIP3    H125077   3.394   3.087  11.811  0.8616  0.2310  1.7439
  294TIP3    H225078   3.334   3.052  11.945 -0.8951 -2.3187  0.3589
  295TIP3   OH225079   2.661   4.845  11.889  0.2823  0.7097  0.4818
  295TIP3    H125080   2.718   4.784  11.934 -0.1381  1.7586  2.5605
  295TIP3    H225081   2.579   4.797  11.875  1.0930 -0.2800 -1.0808
  296TIP3   OH225082   1.569   6.457   9.589 -0.8791 -0.5430  0.1943
  296TIP3    H125083   1.567   6.366   9.618 -1.6813 -1.2793 -1.9097
  296TIP3    H225084   1.510   6.459   9.513  2.0313  0.8037 -2.2778
  297TIP3   OH225085   0.962   1.117   9.602 -0.4706 -0.2152  0.1879
  297TIP3    H125086   0.983   1.025   9.581 -2.1363 -0.6958  0.5330
  297TIP3    H225087   1.035   1.145   9.658  0.0292 -1.3481  0.1497
  298TIP3   OH225088   5.555   4.606  13.019  0.3746 -0.0901  0.6012
  298TIP3    H125089   5.600   4.547  12.959  0.5706 -1.6051  2.1490
  298TIP3    H225090   5.463   4.579  13.015  0.5909 -1.1601  1.9467
  299TIP3   OH225091   1.874   2.898  12.448 -0.9743  0.1163  0.4537
  299TIP3    H125092   1.967   2.889  12.471 -0.8567 -0.5239 -0.2077
  299TIP3    H225093   1.848   2.810  12.422 -1.4927  0.4909 -0.3455
  300TIP3   OH225094   5.103   6.265  12.436 -0.4237  0.4007  0.0670
  300TIP3    H125095   5.183   6.318  12.446 -1.3278  2.0699 -0.9910
  300TIP3    H225096   5.055   6.280  12.516 -0.5257  0.9453 -0.0911
  301TIP3   OH225097   6.409   2.026  12.108 -0.2912  0.4832 -0.5367
  301TIP3    H125098   6.370   2.111  12.128 -0.8651  0.4453 -1.4140
  301TIP3    H225099   6.335   1.965  12.108 -0.3239  0.4433 -2.4269
  302TIP3   OH225100   6.742   2.735  10.425 -0.4077  0.4496 -0.2224
  302TIP3    H125101   6.710   2.735  10.515  0.4766 -0.2329  0.1035
  302TIP3    H225102   6.800   2.659  10.420  0.6619  1.2903 -0.9703
  303TIP3   OH225103   2.328   1.940  10.384  0.5818  0.2562  0.0675
  303TIP3    H125104   2.358   1.922  10.295  0.7851 -0.8816  0.3515
  303TIP3    H225105   2.258   1.877  10.400  0.2992  0.6880  0.5911
  304TIP3   OH225106   1.712   5.161  10.915  0.3586  0.3102  0.2828
  304TIP3    H125107   1.671   5.222  10.977  0.1643 -0.6344  1.1061
  304TIP3    H225108   1.655   5.084  10.916  0.8983 -0.1095 -0.3214
  305TIP3   OH225109   4.648   2.881  10.556 -0.7993 -0.4681  0.7749
  305TIP3    H125110   4.684   2.910  10.640  0.1072 -2.1446  1.0053
  305TIP3    H225111   4.567   2.931  10.546  0.0685  1.2137  1.6871
  306TIP3   OH225112   5.141   2.500  11.426 -0.0826  0.3677  0.0359
  306TIP3    H125113   5.077   2.512  11.356 -1.4724  3.8310  1.6835
  306TIP3    H225114   5.090   2.472  11.501  0.7644  0.4371  0.6596
  307TIP3   OH225115   1.384   0.917  10.476 -0.3894  0.1639  0.5816
  307TIP3    H125116   1.379   0.823  10.491 -0.7648 -0.0357 -0.6647
  307TIP3    H225117   1.465   0.929  10.426 -0.8004  0.3869 -0.0371
  308TIP3   OH225118   2.364   2.149  10.548  0.1464 -1.0537 -0.1445
  308TIP3    H125119   2.284   2.200  10.548  0.6483 -0.2524 -0.0890
  308TIP3    H225120   2.349   2.080  10.483  0.1036  0.1843 -1.4853
  309TIP3   OH225121   1.113   2.196  10.678 -0.0583  0.3097 -0.0020
  309TIP3    H125122   1.086   2.135  10.610 -0.5460  0.5335 -0.0136
  309TIP3    H225123   1.208   2.186  10.682  0.0664  0.8020 -1.2113
  310TIP3   OH225124   0.693   6.589  11.609 -0.2003 -0.3477 -0.3686
  310TIP3    H125125   0.690   6.495  11.594 -1.3495 -0.0501 -2.4182
  310TIP3    H225126   0.659   6.627  11.528  0.8769  1.8638  0.1410
  311TIP3   OH225127   1.348   0.976   9.825 -0.1103 -0.0209  0.1272
  311TIP3    H125128   1.344   0.881   9.822 -0.4725  0.0028 -0.2995
  311TIP3    H225129   1.403   0.996   9.901  0.8062 -0.5854 -0.3741
  312TIP3   OH225130   0.118   3.130  10.998 -0.3464 -0.4655 -0.2000
  312TIP3    H125131   0.058   3.154  11.069 -0.7333  3.7387 -1.6490
  312TIP3    H225132   0.203   3.120  11.041 -1.2331 -2.1321  1.3007
  313TIP3   OH225133   4.732   6.016  11.139 -0.1637 -0.3211  0.6489
  313TIP3    H125134   4.702   6.104  11.159  0.6132  0.6028 -1.8099
  313TIP3    H225135   4.675   5.987  11.068  0.7359 -1.0623  0.2040
  314TIP3   OH225136   3.583   0.359  11.088  0.4687 -0.1818 -0.2808
  314TIP3    H125137   3.555   0.432  11.144  0.6466 -1.2489  1.2697
  314TIP3    H225138   3.617   0.401  11.009 -0.7560  1.3443 -0.0458
  315TIP3   OH225139   5.431   3.269  11.697 -0.2927 -0.0697  0.2061
  315TIP3    H125140   5.482   3.342  11.660 -0.0375 -0.8991 -1.1620
  315TIP3    H225141   5.399   3.222  11.620  0.2702 -1.9112  1.0433
  316TIP3   OH225142   3.617   5.928  10.932  0.2139  0.1279 -0.6780
  316TIP3    H125143   3.643   5.838  10.912  0.2512 -0.2096  0.7638
  316TIP3    H225144   3.537   5.942  10.882 -0.3688 -1.0812 -0.1213
  317TIP3   OH225145   3.336   5.182  11.503  0.1022  0.0596 -0.0695
  317TIP3    H125146   3.321   5.140  11.587  1.3317  1.5528  0.9395
  317TIP3    H225147   3.371   5.113  11.447  1.9476 -0.3691  1.5027
  318TIP3   OH225148   0.249   1.026   9.881 -0.2012 -0.2581  0.9982
  318TIP3    H125149   0.240   1.073   9.798 -0.0892 -2.1265 -0.1164
  318TIP3    H225150   0.336   0.986   9.877 -1.2014 -2.5462  0.8030
  319TIP3   OH225151   0.056   6.476   9.415 -0.4897 -0.0860  0.2442
  319TIP3    H125152  -0.002   6.404   9.391  0.3182 -0.2535 -1.3083
  319TIP3    H225153   0.108   6.492   9.337  1.7594 -0.1269  1.6450
  320TIP3   OH225154   0.698   6.499  10.030  0.3315 -0.8881 -0.0633
  320TIP3    H125155   0.662   6.586  10.014  0.4618 -0.8716 -0.2656
  320TIP3    H225156   0.658   6.443   9.964 -0.2568 -1.1190  0.4782
  321TIP3   OH225157   1.132   0.865  10.059 -1.0255  0.1026 -0.3665
  321TIP3    H125158   1.205   0.870   9.997 -0.7073  0.4500  0.0295
  321TIP3    H225159   1.065   0.816  10.013 -0.6309 -0.0101 -0.8298
  322TIP3   OH225160   3.726   1.220  10.463 -0.2015  0.3496  0.2837
  322TIP3    H125161   3.782   1.168  10.522  0.4518 -0.1383 -0.7395
  322TIP3    H225162   3.728   1.172  10.380 -0.6286  1.3426 -0.3152
  323TIP3   OH225163   1.845   1.092  19.955  0.2617  0.3065  0.6532
  323TIP3    H125164   1.922   1.145  19.937  1.6156 -1.7460  0.0708
  323TIP3    H225165   1.817   1.059  19.870 -1.3004  1.0325  0.8508
  324TIP3   OH225166   0.292   3.369  17.316  0.2402 -0.3709  0.7433
  324TIP3    H125167   0.289   3.319  17.235  0.8243 -1.8866  1.6150
  324TIP3    H225168   0.201   3.370  17.346  0.0564  0.0150  0.1860
  325TIP3   OH225169   3.822   6.308  20.188  0.3106  0.2798 -0.6657
  325TIP3    H125170   3.814   6.213  20.176 -1.5025  0.5030 -1.6097
  325TIP3    H225171   3.821   6.343  20.099 -3.3909  1.4058 -0.3222
  326TIP3   OH225172   3.296   2.204  16.974  0.3194 -0.5346 -0.0275
  326TIP3    H125173   3.323   2.295  16.977 -2.6917  0.4470  1.6374
  326TIP3    H225174   3.321   2.168  17.059  0.2586 -0.8635 -0.1470
  327TIP3   OH225175   3.032   4.571  19.958  0.3061  0.8352  0.3278
  327TIP3    H125176   2.980   4.497  19.927  1.3108 -0.0174  0.6394
  327TIP3    H225177   2.982   4.648  19.930 -0.1094  0.0730 -1.1454
  328TIP3   OH225178   2.385   4.015  19.412 -0.3120 -0.2074 -0.4565
  328TIP3    H125179   2.341   3.932  19.392  1.0980 -1.1032  0.0625
  328TIP3    H225180   2.459   4.019  19.351 -0.4627  0.7686 -0.5965
  329TIP3   OH225181   4.383   3.793  19.898  0.2390 -0.6702 -0.1048
  329TIP3    H125182   4.436   3.719  19.867  1.2753 -0.1875  0.4465
  329TIP3    H225183   4.426   3.820  19.980 -0.2470  0.4073 -0.1889
  330TIP3   OH225184   6.151   2.367  19.782 -0.4736  0.0772 -0.4057
  330TIP3    H125185   6.129   2.389  19.873 -0.8964 -3.8959  0.6269
  330TIP3    H225186   6.226   2.309  19.789  1.0212  1.5490 -2.8803
  331TIP3   OH225187   0.418   6.630  17.497  0.1709 -0.1317 -0.2409
  331TIP3    H125188   0.374   6.610  17.414  0.7438  0.0058 -0.5869
  331TIP3    H225189   0.501   6.583  17.492 -0.1215 -0.7567  0.5997
  332TIP3   OH225190   6.289   0.414  17.833 -0.7157 -0.3113  0.2531
  332TIP3    H125191   6.264   0.469  17.906 -0.8441 -0.5160  0.3650
  332TIP3    H225192   6.313   0.475  17.763  1.0338 -0.0946  0.9967
  333TIP3   OH225193   0.377   4.667  17.495  0.0618  0.1733  0.1722
  333TIP3    H125194   0.329   4.605  17.551 -0.9001  0.3694 -0.4150
  333TIP3    H225195   0.370   4.630  17.407  0.4121  0.5657 -0.0235
  334TIP3   OH225196   1.908   5.107  17.552  0.1142  0.8424  0.4364
  334TIP3    H125197   1.930   5.173  17.487  0.3800 -1.0992 -1.5922
  334TIP3    H225198   1.817   5.085  17.534 -0.3898  1.5570  1.9795
  335TIP3   OH225199   3.839   0.111  19.400  0.1310  0.0917  0.5049
  335TIP3    H125200   3.775   0.155  19.343  0.1184  0.4986  0.8337
  335TIP3    H225201   3.908   0.176  19.413 -0.6413  0.5993  2.2879
  336TIP3   OH225202   2.100   0.079  20.672  0.9723  0.3121 -0.3657
  336TIP3    H125203   2.027   0.123  20.628  1.6380  1.8629  0.0064
  336TIP3    H225204   2.121   0.135  20.746  1.5945 -0.8860  0.3956
  337TIP3   OH225205   4.190   0.872  17.154  0.0565  0.3254 -0.5613
  337TIP3    H125206   4.150   0.958  17.137 -1.3888 -0.2327 -0.1139
  337TIP3    H225207   4.190   0.829  17.069  0.8786  0.8021 -0.8072
  338TIP3   OH225208   1.390   0.705  17.206 -0.0462  0.2432  0.3135
  338TIP3    H125209   1.360   0.728  17.119  3.7430 -0.3464 -1.3355
  338TIP3    H225210   1.444   0.779  17.233  0.4195 -0.4369  1.3012
  339TIP3   OH225211   5.648   6.628  19.212 -0.3052 -0.2135 -0.0765
  339TIP3    H125212   5.594   6.607  19.288  0.8716 -0.0905  0.8277
  339TIP3    H225213   5.588   6.623  19.138 -1.5400 -0.1003  0.8808
  340TIP3   OH225214   3.897   5.552  20.056 -0.2441 -0.0648 -0.2223
  340TIP3    H125215   3.970   5.531  19.998 -1.2766 -1.2660 -1.1423
  340TIP3    H225216   3.860   5.467  20.080 -0.8380  0.4914  0.8899
  341TIP3   OH225217   1.081   2.693  20.306  0.2346  0.0177 -1.1902
  341TIP3    H125218   1.121   2.755  20.368 -1.3569  0.2847 -0.3876
  341TIP3    H225219   1.151   2.673  20.244  1.5878  0.5162  0.1174
  342TIP3   OH225220   2.317   6.712  17.855  0.2087  0.0295  0.1816
  342TIP3    H125221   2.382   6.647  17.828 -1.1642 -1.3799  0.1375
  342TIP3    H225222   2.266   6.730  17.776 -1.2287 -1.0451  0.8138
  343TIP3   OH225223   4.273   0.030  20.534  0.1545 -0.2606 -0.5176
  343TIP3    H125224   4.201  -0.028  20.509 -0.2167 -0.3867  0.7813
  343TIP3    H225225   4.351  -0.025  20.529  0.0017 -0.4599 -0.7310
  344TIP3   OH225226   0.359   3.204  19.666 -0.3912 -0.0823 -0.2603
  344TIP3    H125227   0.396   3.274  19.720  0.2663 -0.2302 -0.5115
  344TIP3    H225228   0.302   3.156  19.726  1.4967 -1.1765  0.7615
  345TIP3   OH225229   4.975   0.575  19.017 -0.0710 -0.0704  0.2272
  345TIP3    H125230   5.061   0.606  19.048  0.8554 -1.4403 -0.8522
  345TIP3    H225231   4.959   0.496  19.068 -0.5508  0.0006  0.1874
  346TIP3   OH225232   1.011   4.076  18.468 -0.6674  0.1494  0.2683
  346TIP3    H125233   0.963   3.994  18.460 -1.0691  0.3661  0.4570
  346TIP3    H225234   0.945   4.144  18.457 -1.1775  0.5399  4.2944
  347TIP3   OH225235   2.354   1.937  20.209  0.5976 -0.0668 -0.1379
  347TIP3    H125236   2.283   1.878  20.183 -1.0185  0.8752  1.8415
  347TIP3    H225237   2.368   1.993  20.133 -0.6211 -0.4393 -0.6583
  348TIP3   OH225238   5.690   5.653  20.073  0.6677 -0.3558  0.6864
  348TIP3    H125239   5.766   5.688  20.119  1.1641 -2.2240  1.3688
  348TIP3    H225240   5.648   5.595  20.136 -2.1013  1.5721  0.7652
  349TIP3   OH225241   3.075   3.714  17.868  0.0802 -0.5529 -0.4677
  349TIP3    H125242   3.116   3.692  17.784 -0.5329 -1.4824 -0.5488
  349TIP3    H225243   3.051   3.629  17.905  0.0995 -0.1319  0.5274
  350TIP3   OH225244   0.888   3.678  19.768  0.6789 -0.5065 -0.1605
  350TIP3    H125245   0.828   3.751  19.778  0.9268 -0.2515 -0.5008
  350TIP3    H225246   0.901   3.671  19.673  2.5359  0.5401 -0.0088
  351TIP3   OH225247   0.623   1.863  19.945  0.3787 -0.3821  0.1188
  351TIP3    H125248   0.605   1.850  20.038 -0.9042  1.4042  0.1751
  351TIP3    H225249   0.584   1.948  19.925  0.4691 -0.8132 -2.1136
  352TIP3   OH225250   0.165   5.216  19.648  0.4118  0.0834 -0.4495
  352TIP3    H125251   0.173   5.233  19.741 -0.5787  0.7940 -0.4770
  352TIP3    H225252   0.118   5.132  19.643 -1.3453  1.0076 -0.2751
  353TIP3   OH225253   4.842   5.258  19.171 -0.5103  0.0796 -0.4778
  353TIP3    H125254   4.754   5.229  19.150 -0.1209 -0.5243 -1.3122
  353TIP3    H225255   4.829   5.337  19.225 -1.5548 -0.5056  0.1609
  354TIP3   OH225256   1.001   0.851  20.857  0.0255  0.7920  0.2102
  354TIP3    H125257   0.910   0.855  20.887  0.3721  1.7541  1.1937
  354TIP3    H225258   1.034   0.768  20.891 -0.1769  0.9322  0.7502
  355TIP3   OH225259   1.290   1.002  19.281 -0.1103 -0.1492 -0.1779
  355TIP3    H125260   1.287   1.004  19.377 -1.2501  2.2012 -0.2066
  355TIP3    H225261   1.361   0.941  19.261  0.5673 -0.2327  2.1629
  356TIP3   OH225262   6.447   5.146  18.010  0.2925  0.3602  0.0415
  356TIP3    H125263   6.480   5.086  17.943 -0.5126 -1.9993  1.6430
  356TIP3    H225264   6.386   5.203  17.963 -0.1838 -1.1513 -1.2741
  357TIP3   OH225265   6.636   0.050  18.552 -0.2771 -0.1950  0.1168
  357TIP3    H125266   6.613   0.077  18.463 -0.5386 -1.2636 -0.1628
  357TIP3    H225267   6.566   0.086  18.607 -0.1526  0.4118 -0.1201
  358TIP3   OH225268   1.289   4.486  18.780  0.1040 -0.3950  0.2042
  358TIP3    H125269   1.320   4.569  18.745  1.3619 -0.8108  0.2663
  358TIP3    H225270   1.336   4.475  18.863  0.3382 -1.3733 -0.0358
  359TIP3   OH225271   4.090   5.363  20.277  0.0295  0.3554  0.2036
  359TIP3    H125272   4.053   5.383  20.362  0.7904  0.7971  0.4383
  359TIP3    H225273   4.073   5.442  20.224 -3.5211 -1.1217 -1.1769
  360TIP3   OH225274   2.152   4.569  19.885 -0.9750  0.3399  0.0806
  360TIP3    H125275   2.190   4.638  19.939 -0.4056 -0.0311  0.1578
  360TIP3    H225276   2.177   4.593  19.795 -0.8494  0.2718  0.0985
  361TIP3   OH225277   0.284   2.567  20.218  0.4535  0.6860  0.3460
  361TIP3    H125278   0.302   2.541  20.309  0.7112  0.6454  0.2837
  361TIP3    H225279   0.331   2.504  20.165  0.7202  1.0156  0.1896
  362TIP3   OH225280   1.850   2.687  18.535 -0.2411  0.1967 -0.4774
  362TIP3    H125281   1.938   2.650  18.543  0.1197  1.3414  1.2010
  362TIP3    H225282   1.861   2.763  18.478 -0.3479 -0.2461 -1.0993
  363TIP3   OH225283   1.202   4.114  19.017 -0.6520 -0.0716  0.0963
  363TIP3    H125284   1.218   4.047  19.083  2.6733  1.5773  1.1735
  363TIP3    H225285   1.166   4.188  19.065  1.9521  1.2026  0.1978
  364TIP3   OH225286   5.432   3.007  19.214  0.5532  0.4796 -0.1973
  364TIP3    H125287   5.366   3.004  19.284  0.3706 -0.0584 -0.3801
  364TIP3    H225288   5.393   2.955  19.143  2.3990 -2.5298  0.7672
  365TIP3   OH225289   0.680   3.649  19.184  0.1250 -0.5211  0.7164
  365TIP3    H125290   0.682   3.724  19.242  0.5377 -1.1710  1.5615
  365TIP3    H225291   0.610   3.593  19.218 -1.4971  0.3212 -1.0252
  366TIP3   OH225292   6.102   1.798  19.227 -0.3022  0.0176 -0.3052
  366TIP3    H125293   6.159   1.722  19.245 -0.6416 -0.0945  0.3463
  366TIP3    H225294   6.114   1.855  19.303 -1.3430 -0.1902  0.0372
  367TIP3   OH225295   6.002   3.353  18.428  0.5499  0.1896  0.0996
  367TIP3    H125296   6.023   3.416  18.359  0.9570 -0.9080 -0.7962
  367TIP3    H225297   6.003   3.406  18.508  3.1929  0.9344 -0.3126
  368TIP3   OH225298   4.904   2.364  21.172  0.1480  0.2656 -0.0854
  368TIP3    H125299   4.861   2.440  21.132 -1.1475 -0.0417  0.6560
  368TIP3    H225300   4.879   2.368  21.264  0.9222 -0.4921  0.1712
  369TIP3   OH225301   0.598   6.197  19.257 -0.0336 -0.3262  0.0856
  369TIP3    H125302   0.693   6.179  19.258 -0.2360 -1.5086  1.1678
  369TIP3    H225303   0.558   6.112  19.277 -1.2770  0.4183  0.8632
  370TIP3   OH225304   6.733   1.639  18.936 -0.1058  0.5356  0.4139
  370TIP3    H125305   6.688   1.593  19.007  0.9338 -0.8035  0.2315
  370TIP3    H225306   6.744   1.728  18.969  0.2106 -0.0174  1.8689
  371TIP3   OH225307   4.035   4.451  19.044  0.5861 -0.2544  0.6715
  371TIP3    H125308   4.041   4.389  18.971  2.7736 -0.8089  1.2477
  371TIP3    H225309   3.985   4.404  19.111 -0.5995 -0.1077 -0.0860
  372TIP3   OH225310   2.315   1.278  19.912  0.2584 -0.0093 -0.5002
  372TIP3    H125311   2.383   1.279  19.979 -1.3935  0.1913  1.2470
  372TIP3    H225312   2.336   1.354  19.856  0.3262  1.3114  1.2377
  373TIP3   OH225313   6.563   0.274  17.811  0.1909 -0.1266  0.1962
  373TIP3    H125314   6.470   0.290  17.796  0.5215  2.0468  0.1451
  373TIP3    H225315   6.600   0.260  17.724 -0.2443 -2.2433  0.3057
  374TIP3   OH225316   5.640   0.368  19.536  0.3744 -0.3666  0.2294
  374TIP3    H125317   5.677   0.284  19.564  1.3931 -0.2445 -0.6886
  374TIP3    H225318   5.690   0.433  19.584  0.3420 -0.2525  0.1088
  375TIP3   OH225319   0.411   4.347  19.875  0.6887 -0.0731  0.1247
  375TIP3    H125320   0.317   4.343  19.893  0.5207 -0.3906 -0.7566
  375TIP3    H225321   0.440   4.429  19.913 -0.0289  0.2071  0.0716
  376TIP3   OH225322   5.469   6.052  20.297  0.2554  0.5836 -0.3796
  376TIP3    H125323   5.493   5.992  20.226 -0.6764  0.2490 -0.4283
  376TIP3    H225324   5.413   6.117  20.255 -1.0915 -0.1584  0.2003
  377TIP3   OH225325   4.884   2.164  19.674 -0.6984 -0.0968  0.3013
  377TIP3    H125326   4.818   2.148  19.741 -1.1790  0.1438 -0.1098
  377TIP3    H225327   4.864   2.101  19.605  0.6427 -1.3098  0.9623
  378TIP3   OH225328   0.412   1.514  20.214  1.0427 -0.1895  0.2972
  378TIP3    H125329   0.424   1.580  20.282  1.6930  0.4258 -0.4068
  378TIP3    H225330   0.497   1.506  20.172  0.6583 -0.5742 -0.4356
  379TIP3   OH225331   3.770   0.448  18.726 -0.0865  0.4256 -0.6938
  379TIP3    H125332   3.716   0.435  18.649  2.5360  3.0548 -3.2125
  379TIP3    H225333   3.722   0.510  18.780 -1.7955 -1.1924 -0.2259
  380TIP3   OH225334   1.791   0.533  20.289 -0.4329 -0.6837  0.1713
  380TIP3    H125335   1.855   0.525  20.217 -0.6334  1.0029 -0.2425
  380TIP3    H225336   1.779   0.628  20.299 -3.2292 -0.9342 -0.0897
  381TIP3   OH225337   1.883   3.811  20.478 -0.1927  0.6426  0.1423
  381TIP3    H125338   1.936   3.851  20.546  0.2532 -1.1864  0.9352
  381TIP3    H225339   1.835   3.741  20.523 -0.3308 -0.2267 -1.2935
  382TIP3   OH225340   0.947   0.640  20.543  0.2334 -0.5377  0.2968
  382TIP3    H125341   0.921   0.719  20.496 -0.9139 -0.0372  1.6653
  382TIP3    H225342   0.967   0.576  20.475 -0.3308  0.4589 -0.8387
  383TIP3   OH225343   3.547   2.613  18.797  0.4255 -0.4664 -0.6344
  383TIP3    H125344   3.525   2.549  18.729 -0.0747  0.0713 -0.9850
  383TIP3    H225345   3.518   2.572  18.878  0.7343 -0.9754 -0.7694
  384TIP3   OH225346   0.092   2.247  18.091 -0.0540  0.0337 -0.6215
  384TIP3    H125347   0.153   2.292  18.149 -2.8608  2.7905  0.4736
  384TIP3    H225348   0.147   2.188  18.039  3.1858  0.8205  1.6218
  385TIP3   OH225349   1.011   5.023  19.934  0.1822 -0.1452 -0.2673
  385TIP3    H125350   1.065   5.094  19.969  0.6287  0.2513 -1.6987
  385TIP3    H225351   0.928   5.031  19.981 -0.0544  1.8220 -0.9173
  386TIP3   OH225352   0.727   4.517  20.576  0.3575  0.1114 -0.2569
  386TIP3    H125353   0.666   4.457  20.617  0.9245  0.3062  0.9051
  386TIP3    H225354   0.806   4.465  20.561  0.9654  0.6151  1.0498
  387TIP3   OH225355   2.351   1.171  18.744  0.5240 -0.1134 -0.2602
  387TIP3    H125356   2.349   1.262  18.715  2.9777  0.3791  0.8426
  387TIP3    H225357   2.384   1.122  18.669  0.0082  0.0318 -0.5846
  388TIP3   OH225358   3.594   5.279  20.764 -0.5235 -0.0508  1.1792
  388TIP3    H125359   3.645   5.358  20.750  1.0796 -0.8658  2.1091
  388TIP3    H225360   3.610   5.256  20.856 -2.0894 -0.7031  1.3343
  389TIP3   OH225361   5.199   2.515  19.228 -0.1037  0.4273 -0.1109
  389TIP3    H125362   5.287   2.502  19.265 -0.7991 -0.1626  1.4230
  389TIP3    H225363   5.200   2.465  19.147  1.2686  1.2035 -0.6165
  390TIP3   OH225364   5.131   5.344  19.395  0.5326  0.3215  0.1734
  390TIP3    H125365   5.200   5.409  19.382  0.5397  0.0854 -1.1389
  390TIP3    H225366   5.132   5.292  19.315 -0.5451 -0.2775  0.5265
  391TIP3   OH225367   5.679   1.470  20.018  0.1044 -0.2027  0.1958
  391TIP3    H125368   5.655   1.379  20.036  0.0250 -0.5823 -1.6635
  391TIP3    H225369   5.688   1.510  20.105 -1.1222 -1.6352  1.0272
  392TIP3   OH225370   3.258   4.206  18.181  0.0288  0.1750  0.2106
  392TIP3    H125371   3.346   4.229  18.211  0.2491  1.7076 -1.4633
  392TIP3    H225372   3.200   4.244  18.247  0.5579 -1.0166  1.4362
  393TIP3   OH225373   4.269   1.407  20.569 -0.5969 -0.5962  0.1115
  393TIP3    H125374   4.315   1.400  20.485  1.4178 -1.6202  1.2263
  393TIP3    H225375   4.240   1.498  20.573  1.3168  0.1001 -0.7184
  394TIP3   OH225376   6.118   5.231  19.201  0.8164  0.0527 -0.1001
  394TIP3    H125377   6.133   5.238  19.106  0.2899  0.0198 -0.1883
  394TIP3    H225378   6.055   5.160  19.210 -0.2038  0.9742  0.1716
  395TIP3   OH225379   4.746   2.698  18.488  0.0950 -0.0397  0.4923
  395TIP3    H125380   4.833   2.690  18.526  0.2369  2.4735  0.8309
  395TIP3    H225381   4.703   2.614  18.508  2.1942 -1.0810  0.8355
  396TIP3   OH225382   5.710   5.952  17.162  0.0333  0.3677  0.4002
  396TIP3    H125383   5.748   5.987  17.242 -0.4648  1.4684  0.1732
  396TIP3    H225384   5.682   5.863  17.184 -0.0141  0.6323  1.4125
  397TIP3   OH225385   6.300   3.278  18.569 -0.7951  0.5784 -0.1316
  397TIP3    H125386   6.338   3.335  18.636  0.3504 -1.1308  0.7237
  397TIP3    H225387   6.367   3.213  18.551 -2.1660 -0.7045 -0.8432
  398TIP3   OH225388   0.778   1.454  19.663  0.4710 -0.8305 -0.3126
  398TIP3    H125389   0.697   1.414  19.630  1.2140 -0.4019 -2.8626
  398TIP3    H225390   0.760   1.548  19.666  0.4266 -0.8591  0.5281
  399TIP3   OH225391   3.641   3.912  19.624 -0.4368 -0.3689 -0.0769
  399TIP3    H125392   3.545   3.904  19.628 -0.3441 -1.8008 -0.2927
  399TIP3    H225393   3.673   3.822  19.625  0.9494  0.0970  0.6367
  400TIP3   OH225394   3.267   1.338  20.210  0.1578  0.3517 -0.1087
  400TIP3    H125395   3.286   1.254  20.252 -0.4224  0.5487  0.5559
  400TIP3    H225396   3.190   1.371  20.256 -0.1875  0.8125 -0.9938
  401TIP3   OH225397   3.225   1.078  17.325  0.2392 -0.1327  0.0936
  401TIP3    H125398   3.204   1.090  17.233  0.1905 -0.8639  0.0041
  401TIP3    H225399   3.267   0.992  17.329 -1.5794 -1.0299  1.0336
  402TIP3   OH225400   1.264   1.696  20.013 -0.2299  0.5672  0.0405
  402TIP3    H125401   1.204   1.755  20.059  0.6083  2.2183 -0.9048
  402TIP3    H225402   1.284   1.628  20.078 -2.0138  0.7231  0.8286
  403TIP3   OH225403   4.995   1.572  18.894  0.3762 -0.1319  0.1961
  403TIP3    H125404   4.953   1.486  18.897  0.7098 -0.3405 -0.7254
  403TIP3    H225405   4.937   1.629  18.944  1.0475 -1.2526  2.3562
  404TIP3   OH225406   5.870   2.335  19.225  0.6184 -0.1187 -0.0797
  404TIP3    H125407   5.844   2.393  19.153 -0.9472  1.3972  1.5954
  404TIP3    H225408   5.815   2.257  19.214 -0.9183  0.8421  0.4044
  405TIP3   OH225409   5.744   2.891  18.896 -0.6261  0.3017  0.0395
  405TIP3    H125410   5.818   2.898  18.957 -0.7758  0.2449  0.2289
  405TIP3    H225411   5.763   2.956  18.828 -0.7139  0.7278  0.4205
  406TIP3   OH225412   1.495   1.504  17.030  0.6712  0.7728 -0.2751
  406TIP3    H125413   1.488   1.482  16.937  2.8602 -1.5455 -0.0051
  406TIP3    H225414   1.562   1.571  17.034  0.0841  1.3820 -0.3850
  407TIP3   OH225415   2.959   3.618  20.244  0.0821  0.1365 -0.2415
  407TIP3    H125416   3.002   3.539  20.214 -0.2503 -0.3006  0.4045
  407TIP3    H225417   2.975   3.683  20.175 -0.3722 -0.7292 -1.1807
  408TIP3   OH225418   5.375   0.033  20.768 -0.0018  0.5415 -0.3815
  408TIP3    H125419   5.330   0.102  20.719  0.8256  0.1064 -1.8014
  408TIP3    H225420   5.305  -0.025  20.798 -0.4288 -0.6129 -3.3007
  409TIP3   OH225421   1.294   5.916  20.517  1.0306  0.1229 -0.1856
  409TIP3    H125422   1.316   5.955  20.432 -0.4486  0.1594 -0.5914
  409TIP3    H225423   1.311   5.822  20.505 -0.6493 -0.1074 -1.0877
  410TIP3   OH225424   2.075   2.904  20.168  0.4381 -0.1881 -0.3373
  410TIP3    H125425   2.040   2.947  20.091  1.2580  1.2759  0.0696
  410TIP3    H225426   2.101   2.817  20.138 -0.0133  0.0696 -1.5025
  411TIP3   OH225427   1.610   3.874  19.503  0.7772 -0.4999  0.3768
  411TIP3    H125428   1.635   3.790  19.464 -0.9410 -0.7739 -0.2096
  411TIP3    H225429   1.541   3.908  19.447 -1.7698 -0.8502  3.0467
  412TIP3   OH225430   5.296   4.695  19.463  0.1698 -0.2357  0.0611
  412TIP3    H125431   5.256   4.686  19.549 -0.3139  0.6259 -0.0674
  412TIP3    H225432   5.269   4.617  19.415 -3.6293  1.4738 -0.9254
  413TIP3   OH225433   5.497   1.679  19.154  0.2378 -0.0636 -0.1492
  413TIP3    H125434   5.406   1.696  19.176  0.5321  2.1888 -0.4479
  413TIP3    H225435   5.512   1.588  19.182 -2.0448 -0.4714 -0.0438
  414TIP3   OH225436   5.819   0.834  17.786 -0.1688  0.0966 -0.3539
  414TIP3    H125437   5.747   0.888  17.818 -0.0777  0.9492 -1.5320
  414TIP3    H225438   5.896   0.890  17.795  0.3244 -0.6932  0.5963
  415TIP3   OH225439   2.368   3.295  19.921  0.4965  0.0482  0.1149
  415TIP3    H125440   2.360   3.342  19.838 -0.2457 -1.2489 -0.5782
  415TIP3    H225441   2.447   3.330  19.961  2.0231 -0.7026 -2.0548
  416TIP3   OH225442   3.505   2.025  18.349  0.3194 -0.1515 -0.4244
  416TIP3    H125443   3.563   1.948  18.349  0.7632  0.1552  0.8280
  416TIP3    H225444   3.478   2.034  18.440 -0.5466  0.5876 -0.7432
  417TIP3   OH225445   0.616   1.999  20.283  0.3030  0.4785 -0.2216
  417TIP3    H125446   0.640   2.069  20.222  1.1287  0.7577  0.3989
  417TIP3    H225447   0.611   2.043  20.368  0.2032 -0.1030  0.0734
  418TIP3   OH225448   1.763   5.844  18.463 -0.6878 -0.6551 -0.4784
  418TIP3    H125449   1.800   5.771  18.512  3.5655  0.8537 -1.0716
  418TIP3    H225450   1.730   5.903  18.531  0.8672 -0.6895  0.3482
  419TIP3   OH225451   1.201   4.060  18.264 -0.0869 -0.4584 -0.3011
  419TIP3    H125452   1.134   4.064  18.333  1.4169 -3.2015  1.5232
  419TIP3    H225453   1.159   4.013  18.193 -0.7439 -0.2254 -0.0826
  420TIP3   OH225454   1.617   0.181  18.263  0.3222  0.6622  0.1407
  420TIP3    H125455   1.577   0.094  18.260 -0.2066  0.9188 -1.9108
  420TIP3    H225456   1.683   0.180  18.194  0.6160  1.7503  0.3820
  421TIP3   OH225457   1.690   3.377  20.680  0.0332  0.4300 -0.9200
  421TIP3    H125458   1.600   3.406  20.699  0.2979  0.0152  1.2138
  421TIP3    H225459   1.681   3.321  20.603 -1.7479 -0.6351 -0.0035
  422TIP3   OH225460   2.892   5.327  20.094 -0.0246 -0.7322 -0.1465
  422TIP3    H125461   2.806   5.324  20.053  0.6220 -2.5597 -1.4948
  422TIP3    H225462   2.873   5.325  20.188 -1.4669 -2.3029 -0.4121
  423TIP3   OH225463   1.508   3.232  18.860  0.2830 -0.1716  0.2923
  423TIP3    H125464   1.501   3.218  18.955 -0.2564 -1.0543  0.1267
  423TIP3    H225465   1.417   3.241  18.830  0.3696 -1.2362 -0.3327
  424TIP3   OH225466   2.996   4.205  18.720 -0.1270  0.5799  0.1928
  424TIP3    H125467   2.920   4.148  18.709 -0.2631  0.8909 -0.4894
  424TIP3    H225468   3.063   4.148  18.758 -0.4424  0.1088  0.0504
  425TIP3   OH225469   2.860   0.213  18.480 -1.0449 -0.3278 -0.0294
  425TIP3    H125470   2.945   0.170  18.484 -1.8043 -1.8257  1.8273
  425TIP3    H225471   2.874   0.291  18.426  1.4695 -0.5472  0.2149
  426TIP3   OH225472   2.774   2.724  19.876  0.0675 -0.1198 -0.1545
  426TIP3    H125473   2.836   2.795  19.892  0.0390 -0.4110  1.4941
  426TIP3    H225474   2.818   2.646  19.910 -1.2592 -0.2828  1.3288
  427TIP3   OH225475   2.152   0.202  18.758  0.1472 -0.3308  0.3110
  427TIP3    H125476   2.135   0.155  18.840 -0.4786 -1.9095 -0.6680
  427TIP3    H225477   2.162   0.293  18.784  0.4075 -0.8514  2.1951
  428TIP3   OH225478   6.662   2.142  20.470  0.2870 -0.1941 -0.0264
  428TIP3    H125479   6.756   2.129  20.457  0.4401  1.5962 -1.0286
  428TIP3    H225480   6.624   2.055  20.455  1.5745 -0.5094 -1.8712
  429TIP3   OH225481   2.607   1.718  17.940  0.5263  0.3513  0.1280
  429TIP3    H125482   2.586   1.801  17.899 -0.4588 -0.1531 -0.4384
  429TIP3    H225483   2.636   1.662  17.868 -0.5519 -0.3258  0.1821
  430TIP3   OH225484   6.639   3.475  17.527  0.0822  0.2476  0.0387
  430TIP3    H125485   6.656   3.546  17.588 -0.6056  0.9527 -0.5707
  430TIP3    H225486   6.546   3.483  17.505 -0.3406 -1.6396  0.9511
  431TIP3   OH225487   4.074   1.008  19.869 -0.1350  0.1226 -0.2513
  431TIP3    H125488   4.000   1.018  19.929  0.0670 -3.0303  0.6721
  431TIP3    H225489   4.124   1.089  19.880 -2.9554  2.0300 -0.3317
  432TIP3   OH225490   1.007   0.085  18.184  0.5837 -0.4304  0.1333
  432TIP3    H125491   0.946   0.131  18.125 -0.5363 -1.2248  0.6236
  432TIP3    H225492   0.996   0.129  18.268  0.8010 -0.4824  0.1881
  433TIP3   OH225493   2.947   2.978  19.833  0.1543  0.3214 -0.1330
  433TIP3    H125494   2.989   2.975  19.747 -0.0873 -1.4502 -0.2238
  433TIP3    H225495   2.937   3.072  19.851  0.9674  0.7413 -1.6477
  434TIP3   OH225496   0.178   5.668  18.731 -0.2066  0.1317 -0.2121
  434TIP3    H125497   0.137   5.584  18.712  1.1006 -0.5358 -0.2143
  434TIP3    H225498   0.132   5.731  18.675 -0.0376 -0.8826 -1.5332
  435TIP3   OH225499   5.562   3.913  19.732 -0.2933 -0.3179 -0.7742
  435TIP3    H125500   5.540   3.990  19.680  2.3570  0.5160 -0.8176
  435TIP3    H225501   5.600   3.949  19.812 -0.3332 -1.5939 -0.1585
  436TIP3   OH225502   5.768   2.445  20.304 -0.0400  0.1498  0.4407
  436TIP3    H125503   5.772   2.523  20.249  0.3121  1.3944  2.1649
  436TIP3    H225504   5.830   2.462  20.375 -1.0835 -1.0301  1.7012
  437TIP3   OH225505   2.971   0.596  18.731 -0.5909 -0.3086  0.0205
  437TIP3    H125506   3.026   0.628  18.659 -1.0449 -0.3860 -0.3628
  437TIP3    H225507   2.996   0.505  18.742 -0.2871 -0.2062  0.1812
  438TIP3   OH225508   4.717   5.200  18.735  0.4002 -0.7472  0.2860
  438TIP3    H125509   4.799   5.173  18.775 -0.1189 -2.3852  0.3285
  438TIP3    H225510   4.650   5.170  18.796 -0.3233 -1.6816 -0.9318
  439TIP3   OH225511   3.728   1.578  17.414 -0.1529 -0.3732  0.4052
  439TIP3    H125512   3.671   1.517  17.460 -0.2208  0.1750  1.0654
  439TIP3    H225513   3.786   1.613  17.482 -1.7521  2.1955  0.5862
  440TIP3   OH225514   0.326   4.406  20.346 -0.4969  0.1232 -0.0003
  440TIP3    H125515   0.270   4.406  20.269 -0.9793  0.4214  0.3517
  440TIP3    H225516   0.415   4.398  20.311 -0.7207  0.1657 -0.5779
  441TIP3   OH225517   5.264   3.838  19.847  0.4619 -0.2758  0.3508
  441TIP3    H125518   5.285   3.850  19.754  1.9329  0.1623  0.7295
  441TIP3    H225519   5.170   3.818  19.847  0.2035  0.7515 -1.1507
  442TIP3   OH225520   4.431   6.487  19.269  0.2690 -0.4866 -0.5027
  442TIP3    H125521   4.513   6.467  19.314 -0.2058 -0.7736  0.2573
  442TIP3    H225522   4.442   6.576  19.237  1.1713 -0.7933 -1.0943
  443TIP3   OH225523   6.345   0.276  19.627  0.1070 -0.1829 -0.1548
  443TIP3    H125524   6.412   0.290  19.694  0.1477 -1.9866  0.2482
  443TIP3    H225525   6.370   0.332  19.554 -0.3907  2.4771  1.6056
  444TIP3   OH225526   5.296   0.300  20.081  0.2686 -0.0666  0.2444
  444TIP3    H125527   5.361   0.356  20.123  0.6786  0.1932 -0.7235
  444TIP3    H225528   5.243   0.359  20.027 -0.4797 -0.3455  0.6477
  445TIP3   OH225529   5.276   0.290  19.072 -0.5050  0.1793 -0.1577
  445TIP3    H125530   5.205   0.275  19.010  0.1520  0.7530 -1.0893
  445TIP3    H225531   5.246   0.363  19.126 -0.6555  0.3717 -0.5001
  446TIP3   OH225532   4.717   0.566  20.456  0.0235  0.1881  0.0721
  446TIP3    H125533   4.653   0.630  20.425 -1.0319  0.1157  1.9776
  446TIP3    H225534   4.765   0.612  20.525  1.7300  0.0620 -0.9466
  447TIP3   OH225535   6.385   0.675  19.767 -0.2599 -0.9354 -0.5034
  447TIP3    H125536   6.382   0.630  19.851  0.3834  1.0008  0.6137
  447TIP3    H225537   6.452   0.629  19.717  1.4454 -0.3426  1.1571
  448TIP3   OH225538   6.221   0.336  19.305 -0.1471  0.0716 -0.7480
  448TIP3    H125539   6.293   0.398  19.313 -0.6215  0.5900 -0.4386
  448TIP3    H225540   6.229   0.300  19.217 -0.2277  1.0172 -1.1466
  449TIP3   OH225541   2.376   5.623  20.023  0.1020 -0.1315  0.0804
  449TIP3    H125542   2.383   5.708  20.067  0.1281 -0.5964  1.0195
  449TIP3    H225543   2.452   5.620  19.965  0.7887  0.0098  0.9305
  450TIP3   OH225544   1.336   1.272  18.077  0.1831 -0.6569 -0.3492
  450TIP3    H125545   1.300   1.207  18.139 -1.2149  0.3517 -0.0464
  450TIP3    H225546   1.398   1.323  18.129 -2.2055  1.2845  0.8192
  451TIP3   OH225547   0.432   3.665  18.205 -0.3172 -0.6159 -0.0306
  451TIP3    H125548   0.342   3.690  18.222 -0.6990 -1.4633 -0.6871
  451TIP3    H225549   0.429   3.624  18.118  0.4055 -2.0701  0.5926
  452TIP3   OH225550   4.432   6.571  17.478 -0.0874  0.5576 -0.5723
  452TIP3    H125551   4.366   6.568  17.547  0.2302  1.1412 -0.2378
  452TIP3    H225552   4.404   6.642  17.421 -1.1460 -0.8446 -1.8795
  453TIP3   OH225553   6.123   5.322  20.301 -0.1712 -0.1359  0.7713
  453TIP3    H125554   6.155   5.247  20.250 -0.1199 -0.4501  1.2656
  453TIP3    H225555   6.138   5.298  20.392 -3.3766 -1.1000  1.2037
  454TIP3   OH225556   0.591   5.192  17.804 -0.1429 -0.1022  0.0738
  454TIP3    H125557   0.686   5.191  17.791  0.2812 -1.5128  2.6127
  454TIP3    H225558   0.556   5.232  17.724  2.4731 -0.7552 -1.5141
  455TIP3   OH225559   5.939   6.060  17.883 -0.4125 -0.4779  0.4290
  455TIP3    H125560   5.924   6.040  17.790 -2.0756 -0.5465  0.6698
  455TIP3    H225561   5.895   5.988  17.929  0.3568 -0.4160  1.2788
  456TIP3   OH225562   3.589   0.257  17.671  0.2435  0.5802  0.7044
  456TIP3    H125563   3.574   0.269  17.577 -0.7638  0.4423  0.8360
  456TIP3    H225564   3.663   0.314  17.691 -0.4384  1.7195  0.0970
  457TIP3   OH225565   0.527   5.396  20.577 -0.7375 -0.1312 -0.0831
  457TIP3    H125566   0.605   5.343  20.595 -0.6949  0.1949  0.7413
  457TIP3    H225567   0.538   5.474  20.632 -1.4877  0.0698 -0.2056
  458TIP3   OH225568   6.460   4.003  20.626  0.0357 -0.4614  0.5718
  458TIP3    H125569   6.382   4.007  20.681 -1.3474 -2.0843 -1.1009
  458TIP3    H225570   6.499   3.918  20.646  0.3228 -0.4436  0.0987
  459TIP3   OH225571   1.831   0.196  18.083 -0.5327  0.0864  0.0233
  459TIP3    H125572   1.835   0.101  18.079  0.1671 -0.0036  1.8507
  459TIP3    H225573   1.893   0.226  18.016 -0.8423 -0.7254 -0.6368
  460TIP3   OH225574   5.706   3.722  17.355 -0.1201 -0.0359 -0.3461
  460TIP3    H125575   5.664   3.801  17.321 -1.9129 -0.6916  0.2405
  460TIP3    H225576   5.779   3.755  17.408  0.4920  1.1157 -1.8306
  461TIP3   OH225577   3.507   4.556  20.488  0.3597 -0.1239 -0.4120
  461TIP3    H125578   3.555   4.526  20.565 -0.3873 -1.0165 -0.2807
  461TIP3    H225579   3.522   4.650  20.486  1.1281 -0.2169  0.3078
  462TIP3   OH225580   4.015   1.499  19.778  0.3426  0.1484 -0.6125
  462TIP3    H125581   3.995   1.529  19.867  2.6843 -0.0179  0.0374
  462TIP3    H225582   4.064   1.571  19.738 -0.5431  0.1510 -1.7354
  463TIP3   OH225583   4.375   3.122  20.328 -0.4402 -0.0769  0.0051
  463TIP3    H125584   4.346   3.050  20.383  0.7165  0.5357  1.4815
  463TIP3    H225585   4.457   3.151  20.367  0.2305  0.6612 -1.8196
  464TIP3   OH225586   0.787   0.632  20.079  0.7116  0.4513 -0.3624
  464TIP3    H125587   0.696   0.629  20.049  0.0993 -0.0830  1.4664
  464TIP3    H225588   0.824   0.549  20.049  0.8508  0.9848 -1.7629
  465TIP3   OH225589   2.104   0.211  19.300 -0.1558 -0.8188 -0.0395
  465TIP3    H125590   2.105   0.175  19.211 -1.4480  0.8677 -0.7903
  465TIP3    H225591   2.163   0.154  19.349  2.0774 -0.7484 -2.3747
  466TIP3   OH225592   3.192   2.460  18.478  0.4443 -0.0325 -0.1324
  466TIP3    H125593   3.165   2.377  18.517 -1.2284 -0.0338 -1.1720
  466TIP3    H225594   3.144   2.464  18.395  3.0688  0.4630 -1.7143
  467TIP3   OH225595   3.213   4.550  18.649 -0.0808  0.0895 -0.5060
  467TIP3    H125596   3.236   4.547  18.741  0.8025 -0.9341 -0.7297
  467TIP3    H225597   3.252   4.630  18.616  0.6765 -0.1695 -0.2451
  468TIP3   OH225598   2.482   2.844  20.225  0.3901 -0.0131  0.5683
  468TIP3    H125599   2.567   2.881  20.248  0.4760 -0.8019  1.6025
  468TIP3    H225600   2.421   2.917  20.236  0.7173  0.1391  1.4578
  469TIP3   OH225601   0.835   0.237  18.007  0.0528 -0.7762 -0.3387
  469TIP3    H125602   0.749   0.265  17.975  0.2106 -0.3482 -0.3977
  469TIP3    H225603   0.879   0.319  18.033 -0.5859 -1.1876  2.3168
  470TIP3   OH225604   1.310   3.132  17.797 -0.3574 -0.5597 -0.5405
  470TIP3    H125605   1.354   3.202  17.845  0.1236 -0.3738 -1.2384
  470TIP3    H225606   1.354   3.130  17.712  0.1337 -2.1989 -0.2803
  471TIP3   OH225607   4.275   0.082  18.385 -0.3875  0.8054  0.9536
  471TIP3    H125608   4.197   0.079  18.331  0.3106 -1.3343 -0.0566
  471TIP3    H225609   4.282  -0.006  18.423  2.2820  0.3916 -0.2166
  472TIP3   OH225610   6.060   1.391  17.988  0.0663  0.1169  0.2428
  472TIP3    H125611   6.064   1.451  18.062  3.3820  1.6300 -0.9516
  472TIP3    H225612   6.040   1.446  17.913 -2.3479 -1.2442 -0.2155
  473TIP3   OH225613   6.411   4.259  18.698  0.4224  0.0175  0.0146
  473TIP3    H125614   6.425   4.311  18.618  2.1675  1.0559  0.9304
  473TIP3    H225615   6.430   4.169  18.671 -0.4827  0.1237 -1.0729
  474TIP3   OH225616   1.733   6.550  20.276  0.2563  0.8526 -0.9162
  474TIP3    H125617   1.737   6.629  20.330  1.3803  1.4663 -1.8613
  474TIP3    H225618   1.640   6.543  20.251 -0.4001  0.2661  1.4517
  475TIP3   OH225619   6.122   3.377  17.416  0.3174 -0.6222  0.1274
  475TIP3    H125620   6.084   3.415  17.336  1.6352 -0.3342 -0.3859
  475TIP3    H225621   6.104   3.284  17.408  1.4337 -0.7629 -1.1025
  476TIP3   OH225622   5.673   0.660  20.490  0.3890  0.4159  0.3149
  476TIP3    H125623   5.747   0.602  20.508  0.9342  1.2706  0.9809
  476TIP3    H225624   5.606   0.634  20.553  0.5960  0.4407  0.5477
  477TIP3   OH225625   5.139   2.770  18.239 -0.0728 -0.1716  0.4081
  477TIP3    H125626   5.070   2.830  18.211 -0.9248 -1.4448 -0.3429
  477TIP3    H225627   5.214   2.826  18.256 -0.9325  1.1330  0.0690
  478TIP3   OH225628   1.091   0.904  17.262  0.2906 -0.0208  0.3740
  478TIP3    H125629   1.169   0.941  17.222  0.3752  0.8587  1.3264
  478TIP3    H225630   1.112   0.897  17.355  0.0134 -1.7942  0.3486
  479TIP3   OH225631   3.237   4.548  20.470  0.1621 -0.6948  0.0434
  479TIP3    H125632   3.217   4.561  20.378  1.3855 -0.3828 -0.1980
  479TIP3    H225633   3.333   4.542  20.473  0.1195 -1.0423  1.2473
  480TIP3   OH225634   1.759   2.592  17.739  0.0172  0.6933  0.3613
  480TIP3    H125635   1.836   2.540  17.717  0.4362  0.3201  2.5505
  480TIP3    H225636   1.685   2.536  17.714  0.3882  0.9445 -1.5016
  481TIP3   OH225637   1.089   1.877  18.738  0.8220 -0.2045 -0.5318
  481TIP3    H125638   0.998   1.903  18.748  0.9665 -0.0116  0.3807
  481TIP3    H225639   1.115   1.914  18.654  0.1848  0.1241 -0.5945
  482TIP3   OH225640   6.327   2.323  18.906  0.6998  0.2746  0.0167
  482TIP3    H125641   6.355   2.339  18.816 -1.1578 -0.3652 -0.7012
  482TIP3    H225642   6.240   2.286  18.899  0.2334  0.8204  2.1201
  483TIP3   OH225643   1.982   2.319  17.227  0.3936 -0.2794  0.2003
  483TIP3    H125644   2.051   2.348  17.167 -0.4444  1.2490 -0.0831
  483TIP3    H225645   1.955   2.234  17.194  3.1631 -1.6833  1.2132
  484TIP3   OH225646   2.063   1.055  19.633  0.5827  0.0295 -0.8592
  484TIP3    H125647   2.158   1.041  19.633  0.6435  0.2478  0.7042
  484TIP3    H225648   2.045   1.094  19.718 -1.0002 -0.6312 -0.8597
  485TIP3   OH225649   2.672   4.217  18.043 -0.1434  0.2342  0.6675
  485TIP3    H125650   2.603   4.238  18.105 -1.8334 -0.1309 -1.0012
  485TIP3    H225651   2.697   4.301  18.005 -0.7092  0.2242  0.2584
  486TIP3   OH225652   6.289   6.260  19.216 -0.5854  0.0823  0.0075
  486TIP3    H125653   6.260   6.280  19.127  0.4167 -0.0429 -0.3657
  486TIP3    H225654   6.331   6.340  19.247  0.0976 -0.2308 -0.0799
  487TIP3   OH225655   5.761   0.074  19.378 -0.3899  0.4340  0.5829
  487TIP3    H125656   5.706   0.019  19.322 -0.8652  1.0078  0.4741
  487TIP3    H225657   5.832   0.103  19.321 -0.2889  0.1607  0.5683
  488TIP3   OH225658   5.950   0.425  20.240 -0.5709 -0.0145  0.1400
  488TIP3    H125659   5.879   0.368  20.267 -0.6334  0.1550  0.3308
  488TIP3    H225660   5.986   0.460  20.321  0.9298 -1.5243  0.1825
  489TIP3   OH225661   0.963   4.455  18.499 -0.3261  0.2786  0.2468
  489TIP3    H125662   1.040   4.413  18.536  0.0149  0.9801  0.3332
  489TIP3    H225663   0.910   4.382  18.465 -0.3003 -0.3112  1.4380
  490TIP3   OH225664   3.551   4.196  18.197  0.2700  0.2930 -0.2139
  490TIP3    H125665   3.591   4.283  18.196  2.7011 -0.7399 -0.8937
  490TIP3    H225666   3.557   4.168  18.289 -0.4464  0.7889 -0.0086
  491TIP3   OH225667   0.021   6.347  17.266  0.8718 -0.3987 -0.1730
  491TIP3    H125668  -0.004   6.258  17.293 -0.0412 -0.0018  0.3325
  491TIP3    H225669   0.117   6.348  17.272  1.0985 -2.0438 -2.3941
  492TIP3   OH225670   4.779   1.331  20.007  0.3151  0.9925 -0.4986
  492TIP3    H125671   4.703   1.292  19.962  0.5420 -1.4562  1.0617
  492TIP3    H225672   4.742   1.376  20.083  0.3407  0.6519 -0.2840
  493TIP3   OH225673   2.294   4.363  19.643 -0.6452  0.4969  0.1960
  493TIP3    H125674   2.199   4.373  19.636 -0.3847  2.6051 -0.8552
  493TIP3    H225675   2.324   4.446  19.679  0.8603 -0.0295  0.2062
  494TIP3   OH225676   5.926   2.059  18.669 -0.4489  0.1290 -0.8641
  494TIP3    H125677   5.985   2.052  18.594 -2.8502 -0.6666 -2.8092
  494TIP3    H225678   5.899   2.151  18.670 -0.2851  0.1770 -0.8622
  495TIP3   OH225679   5.361   1.788  18.560  0.2636 -0.2019 -0.3999
  495TIP3    H125680   5.290   1.805  18.497  0.3430 -1.3791 -0.8216
  495TIP3    H225681   5.326   1.720  18.618  0.6803 -0.0613  0.0241
  496TIP3   OH225682   2.936   1.327  19.729 -0.3720  0.6695 -0.0793
  496TIP3    H125683   2.902   1.246  19.767  1.5017 -1.0812 -1.8115
  496TIP3    H225684   2.958   1.382  19.804 -1.8729 -0.3417  1.1491
  497TIP3   OH225685   3.952   1.371  17.686  0.2554  0.3098 -0.3766
  497TIP3    H125686   3.972   1.457  17.650 -0.0672  0.6067  0.1554
  497TIP3    H225687   3.860   1.374  17.709  0.5884  0.3318  1.0338
  498TIP3   OH225688   2.737   1.343  19.517 -0.3632 -0.0454  0.0027
  498TIP3    H125689   2.796   1.316  19.588  1.1440 -0.7115 -1.4381
  498TIP3    H225690   2.761   1.287  19.443 -1.3938  1.1189 -1.2612
  499TIP3   OH225691   4.646   1.017  19.163 -0.5751  0.1532  0.0854
  499TIP3    H125692   4.721   1.037  19.107  1.5223 -1.3706  2.1156
  499TIP3    H225693   4.633   1.097  19.214 -0.0659  0.3273 -0.0450
  500TIP3   OH225694   3.062   1.960  17.021 -0.1591 -0.2075  0.6164
  500TIP3    H125695   3.082   2.002  16.938  0.0628  1.1446  1.3249
  500TIP3    H225696   3.047   1.868  16.999  0.2803  0.0539 -0.8484
  501TIP3   OH225697   6.207   5.851  18.945  0.6840 -0.0782  0.7910
  501TIP3    H125698   6.166   5.882  19.025  1.0534  1.7254  0.3094
  501TIP3    H225699   6.264   5.922  18.916  2.6469 -1.7080  0.3405
  502TIP3   OH225700   5.590   1.679  18.479  0.6070 -0.0926 -0.0384
  502TIP3    H125701   5.509   1.715  18.515  0.7568 -0.9263  1.1921
  502TIP3    H225702   5.564   1.638  18.397 -0.3849 -1.0443  0.7278
  503TIP3   OH225703   2.358   0.973  18.529  0.1718 -0.8616 -0.6731
  503TIP3    H125704   2.267   0.941  18.530  0.5271 -1.9064  0.2373
  503TIP3    H225705   2.410   0.895  18.508  1.2058 -1.4215  3.2217
  504TIP3   OH225706   4.413   5.462  20.396 -0.1720  0.2265 -0.8625
  504TIP3    H125707   4.340   5.506  20.354 -0.1944  0.8334 -0.2122
  504TIP3    H225708   4.474   5.442  20.325 -0.8215  0.0109 -1.3571
  505TIP3   OH225709   1.919   4.354  20.743 -0.7538 -0.6773 -0.5375
  505TIP3    H125710   1.862   4.279  20.727 -0.7853 -0.7273 -0.1995
  505TIP3    H225711   2.006   4.325  20.716 -0.9453 -0.4753 -1.4040
  506TIP3   OH225712   3.319   0.746  18.333 -0.2500 -0.0305  0.7799
  506TIP3    H125713   3.366   0.791  18.262 -0.7676 -2.3793 -1.1783
  506TIP3    H225714   3.386   0.730  18.399  1.1188 -0.8723 -0.7407
  507TIP3   OH225715   0.949   2.201  18.705 -0.3488  0.3740 -0.7829
  507TIP3    H125716   0.993   2.259  18.642 -0.5353  1.3426 -0.0444
  507TIP3    H225717   0.978   2.232  18.791  1.6584 -2.3459 -0.3703
  508TIP3   OH225718   0.017   3.158  18.776  0.2657 -0.2819  0.2826
  508TIP3    H125719   0.031   3.069  18.808  1.1699 -0.2803 -0.0893
  508TIP3    H225720  -0.005   3.208  18.854  0.1861 -0.7435  0.5601
  509TIP3   OH225721   1.795   5.737  20.104 -0.0620  0.0770 -0.3172
  509TIP3    H125722   1.760   5.687  20.030  1.4076 -0.7246 -0.4967
  509TIP3    H225723   1.730   5.726  20.173 -0.5944 -0.6399 -0.9208
  510TIP3   OH225724   0.280   5.149  19.906  0.6699 -0.6998  0.2402
  510TIP3    H125725   0.329   5.096  19.843  0.1898  0.6396 -1.3125
  510TIP3    H225726   0.283   5.097  19.987  1.2391 -2.5126 -0.8673
  511TIP3   OH225727   5.695   3.793  17.680 -0.0221 -0.6768  0.0953
  511TIP3    H125728   5.631   3.863  17.671  0.4664 -0.0655  1.1682
  511TIP3    H225729   5.761   3.812  17.614 -0.0289 -0.2628  0.2038
  512TIP3   OH225730   4.029   0.374  20.212 -0.2692 -0.0104 -0.1062
  512TIP3    H125731   4.089   0.317  20.260  0.1701 -0.3650 -1.0507
  512TIP3    H225732   3.971   0.409  20.279  0.3547 -0.4547  0.6885
  513TIP3   OH225733   5.828   3.649  18.426  0.1156 -0.1393  0.5173
  513TIP3    H125734   5.795   3.632  18.514 -0.5178 -0.9484  0.1320
  513TIP3    H225735   5.754   3.688  18.380  1.0141  2.1330  0.8688
  514TIP3   OH225736   5.133   4.032  18.842 -0.2806  0.2523 -0.1225
  514TIP3    H125737   5.116   3.957  18.898 -0.6785  0.8367  0.5542
  514TIP3    H225738   5.220   4.015  18.804 -0.1005 -0.2467  0.5123
  515TIP3   OH225739   3.426   3.370  17.136 -0.1200 -0.6378  0.4359
  515TIP3    H125740   3.347   3.318  17.151 -0.2803 -0.8723 -1.0837
  515TIP3    H225741   3.395   3.461  17.135 -0.3552 -0.7178  0.0170
  516TIP3   OH225742   5.720   1.907  18.371 -0.7075  0.2245 -0.0165
  516TIP3    H125743   5.685   1.834  18.422  1.3035 -0.2920  0.7034
  516TIP3    H225744   5.687   1.985  18.416  0.6290 -0.2207  1.8459
  517TIP3   OH225745   6.425   1.871  18.516  0.0463 -0.6894 -0.6633
  517TIP3    H125746   6.400   1.960  18.491  0.6110 -0.7798 -1.5878
  517TIP3    H225747   6.354   1.841  18.572 -0.2818  0.2474 -0.5560
  518TIP3   OH225748   1.026   5.026  20.541 -0.4302  0.3810 -0.0962
  518TIP3    H125749   1.010   4.952  20.483  0.0847  0.9191 -0.9426
  518TIP3    H225750   1.085   4.992  20.608  1.1698  0.4342 -1.4351
  519TIP3   OH225751   4.457   0.856  19.014 -0.2175  0.6078 -0.1968
  519TIP3    H125752   4.503   0.851  18.930 -0.5969  2.2744 -0.5425
  519TIP3    H225753   4.508   0.919  19.065  0.3881 -0.8928  1.1014
  520TIP3   OH225754   4.519   0.935  18.520 -0.2900  0.3481  0.8190
  520TIP3    H125755   4.538   0.990  18.444 -1.2889  0.3849  0.5736
  520TIP3    H225756   4.434   0.896  18.499 -1.7738  2.2062  2.9144
  521TIP3   OH225757   5.855   1.559  18.275  0.5261  0.2579 -0.3901
  521TIP3    H125758   5.841   1.584  18.367 -0.8906  0.7173 -0.6940
  521TIP3    H225759   5.806   1.478  18.265  0.2151  0.5013 -0.8698
  522TIP3   OH225760   6.165   0.870  18.144 -0.7869  0.3227  0.7976
  522TIP3    H125761   6.191   0.804  18.209  0.7532  0.2764  0.1815
  522TIP3    H225762   6.224   0.944  18.160  1.4486 -0.6462 -2.1138
  523TIP3   OH225763   5.433   6.332  19.163 -0.3561 -0.0911  0.1560
  523TIP3    H125764   5.439   6.426  19.144  0.6392 -0.0863  0.4104
  523TIP3    H225765   5.460   6.289  19.082 -0.7665 -0.1517  0.0538
  524TIP3   OH225766   0.283   5.833  19.568 -0.5535  0.5457  0.8542
  524TIP3    H125767   0.284   5.763  19.502  0.8645  1.5301 -0.2156
  524TIP3    H225768   0.190   5.846  19.587 -0.8583 -2.6481  2.2476
  525TIP3   OH225769   2.123   5.050  18.295  0.0015  0.2087  0.3800
  525TIP3    H125770   2.126   5.139  18.329  0.1966  1.0389 -1.6519
  525TIP3    H225771   2.193   5.046  18.230 -1.8453 -0.4521 -1.6965
  526TIP3   OH225772   2.807   4.217  19.355  0.1412 -0.5202  0.4543
  526TIP3    H125773   2.745   4.171  19.297  0.0438 -1.3626  1.2038
  526TIP3    H225774   2.785   4.309  19.345  1.2216 -0.4569 -2.1319
  527TIP3   OH225775   5.713   3.613  19.621 -0.6339  0.4504  0.4029
  527TIP3    H125776   5.719   3.518  19.616 -0.8115  0.4764 -0.4553
  527TIP3    H225777   5.619   3.631  19.631 -0.6557  0.5471  0.0506
  528TIP3   OH225778   0.127   5.060  17.869 -0.0042  0.2223 -0.1010
  528TIP3    H125779   0.117   5.127  17.802  0.3188 -0.9521 -1.3670
  528TIP3    H225780   0.074   4.986  17.838  2.7119 -1.5800 -0.8015
  529TIP3   OH225781   1.591   3.296  19.156 -0.2534 -0.1364  0.3560
  529TIP3    H125782   1.650   3.303  19.230 -0.5122  1.8388  0.4296
  529TIP3    H225783   1.506   3.273  19.195 -0.0362 -0.7397  0.4818
  530TIP3   OH225784   2.725   0.653  18.216  0.7719  0.3352 -0.2406
  530TIP3    H125785   2.775   0.649  18.298 -0.4061 -0.2909  0.4848
  530TIP3    H225786   2.790   0.667  18.149  1.8588  0.1522  0.7410
  531TIP3   OH225787   3.015   1.947  17.280  0.7049  0.8529 -0.0987
  531TIP3    H125788   3.007   1.965  17.187 -0.3897  2.4794  0.2749
  531TIP3    H225789   2.930   1.968  17.317  0.3020 -2.1005  0.9778
  532TIP3   OH225790   6.483   2.228  17.275 -0.1887 -0.4654 -0.3540
  532TIP3    H125791   6.550   2.296  17.276  0.5540 -1.1782 -0.2478
  532TIP3    H225792   6.400   2.276  17.280  0.3350  0.3541  2.8142
  533TIP3   OH225793   4.785   1.083  17.977  0.8425 -0.2389  0.2003
  533TIP3    H125794   4.723   1.033  17.924  1.9796  0.0679 -1.4898
  533TIP3    H225795   4.812   1.022  18.046  1.5537 -1.7100 -1.3053
  534TIP3   OH225796   3.636   0.035  20.740  0.0176 -0.1183  0.5078
  534TIP3    H125797   3.567   0.101  20.745 -0.3576 -0.3473 -1.1268
  534TIP3    H225798   3.717   0.084  20.752 -0.0894  1.0821 -2.7448
  535TIP3   OH225799   2.777   6.220  17.923 -0.8480 -0.5218 -0.1835
  535TIP3    H125800   2.834   6.165  17.976 -1.0119 -0.2130  0.3149
  535TIP3    H225801   2.705   6.162  17.896 -0.8229 -0.6479  0.0228
  536TIP3   OH225802   0.684   3.109  19.522  0.0877 -0.4912  0.4958
  536TIP3    H125803   0.673   3.075  19.611 -0.7827  0.0137  0.5912
  536TIP3    H225804   0.601   3.088  19.479  0.4132 -0.5094 -0.1287
  537TIP3   OH225805   2.347   4.522  20.446 -0.3819  0.0135 -0.2877
  537TIP3    H125806   2.285   4.537  20.518  0.1697  0.7650  0.0450
  537TIP3    H225807   2.338   4.429  20.425  0.3231 -0.5272  1.5989
  538TIP3   OH225808   2.067   6.388  20.766 -0.2774 -0.5966 -0.6145
  538TIP3    H125809   1.974   6.399  20.789  0.3529  1.9809  1.1340
  538TIP3    H225810   2.090   6.302  20.800 -1.5379 -0.4235  0.7838
  539TIP3   OH225811   6.708   1.738  17.518  0.1642  0.0335  0.1902
  539TIP3    H125812   6.678   1.781  17.438  1.8382  0.4013 -0.2679
  539TIP3    H225813   6.628   1.700  17.556 -1.1095  2.0714 -0.2785
  540TIP3   OH225814   5.543   4.830  20.790 -0.0648 -0.0396  0.3885
  540TIP3    H125815   5.486   4.815  20.715 -0.5049  0.8950  0.5246
  540TIP3    H225816   5.582   4.744  20.808 -2.2789 -0.9854  0.9737
  541TIP3   OH225817   6.306   4.228  17.533  0.2852  0.2078  0.5365
  541TIP3    H125818   6.304   4.191  17.445  4.8674  0.6473 -0.0176
  541TIP3    H225819   6.303   4.323  17.519 -0.2509  0.2604  0.9820
  542TIP3   OH225820   3.889   4.430  19.952  0.1109  0.5506 -0.3398
  542TIP3    H125821   3.932   4.344  19.956 -0.8519 -0.0095 -1.5670
  542TIP3    H225822   3.820   4.425  20.018  0.1421  0.4373 -0.3145
  543TIP3   OH225823   2.848   6.284  20.614  0.0906  0.0523 -0.5647
  543TIP3    H125824   2.841   6.218  20.545 -2.6592 -0.2334 -0.0941
  543TIP3    H225825   2.928   6.259  20.662 -0.4831 -2.5722 -0.8054
  544TIP3   OH225826   3.563   2.226  18.185  0.4024 -1.0592 -0.3746
  544TIP3    H125827   3.479   2.254  18.146  0.3026  1.4201  1.3866
  544TIP3    H225828   3.537   2.171  18.259  0.3807 -1.0221 -0.3544
  545TIP3   OH225829   4.102   2.295  17.770 -0.4304  0.5135 -0.3719
  545TIP3    H125830   4.168   2.317  17.704  1.6596  0.5841  1.6270
  545TIP3    H225831   4.029   2.259  17.719  2.1765 -2.2044 -2.5812
  546TIP3   OH225832   5.425   0.624  18.820 -0.3644 -0.4916  0.3035
  546TIP3    H125833   5.460   0.582  18.899 -2.7484  0.1919  1.8285
  546TIP3    H225834   5.406   0.714  18.847 -0.6519 -0.0606 -1.2593
  547TIP3   OH225835   4.540   6.438  19.600 -0.2295 -0.1144 -0.5820
  547TIP3    H125836   4.626   6.479  19.605 -0.7429  0.9601 -0.1732
  547TIP3    H225837   4.533   6.388  19.681  0.0256 -0.2422 -0.6371
  548TIP3   OH225838   5.227   0.023  19.962  0.7083  0.0028 -0.0978
  548TIP3    H125839   5.139   0.056  19.946  0.9062  0.1411 -0.9903
  548TIP3    H225840   5.264   0.081  20.029 -0.0566 -0.3807  0.6658
  549TIP3   OH225841   3.461   5.209  18.297 -0.2195 -0.5437  0.0055
  549TIP3    H125842   3.459   5.138  18.233 -0.3216 -1.9644  1.5417
  549TIP3    H225843   3.382   5.261  18.277  0.5856 -0.0073 -2.0028
  550TIP3   OH225844   3.255   3.315  20.346  0.1304  0.5043 -0.4171
  550TIP3    H125845   3.197   3.312  20.422  0.3906  0.7763 -0.2056
  550TIP3    H225846   3.290   3.226  20.337 -1.1896  0.0336 -1.2307
  551TIP3   OH225847   5.003   2.758  20.513  0.8904  0.0214  0.1375
  551TIP3    H125848   5.057   2.711  20.576 -0.5335  1.4419  2.5678
  551TIP3    H225849   5.056   2.834  20.488  0.7736  0.4187  1.0642
  552TIP3   OH225850   2.322   1.870  18.674 -0.1167  0.2386  0.5177
  552TIP3    H125851   2.281   1.872  18.588  2.0105  1.8007 -0.5555
  552TIP3    H225852   2.329   1.962  18.700  1.5557 -0.0301  1.1607
  553TIP3   OH225853   3.732   5.507  20.621  0.1254 -0.2528 -0.2180
  553TIP3    H125854   3.827   5.496  20.624  0.1760  0.2013 -0.1956
  553TIP3    H225855   3.713   5.526  20.530 -0.0740 -1.4828 -0.4591
  554TIP3   OH225856   2.735   2.115  17.894 -0.0243  0.1424  0.3765
  554TIP3    H125857   2.760   2.191  17.841  0.1054 -0.2319 -0.1080
  554TIP3    H225858   2.800   2.049  17.872 -1.8667 -1.1438 -1.5552
  555TIP3   OH225859   5.888   5.681  19.064  0.8043  0.5432 -0.2836
  555TIP3    H125860   5.820   5.677  19.131  1.4744 -1.1174  0.3650
  555TIP3    H225861   5.883   5.770  19.028 -0.0901  1.2113  1.4223
  556TIP3   OH225862   4.940   4.569  20.175  0.3495 -0.1186  0.0819
  556TIP3    H125863   4.991   4.542  20.252  0.2654 -0.8209 -0.0964
  556TIP3    H225864   4.849   4.562  20.203  0.3257 -0.1035  0.0061
  557TIP3   OH225865   6.398   4.349  18.434 -0.4688 -0.5241  0.4644
  557TIP3    H125866   6.354   4.432  18.416 -1.6412 -1.2596 -0.1703
  557TIP3    H225867   6.351   4.285  18.380  0.4870 -1.5832  0.8569
  558TIP3   OH225868   0.604   2.740  19.064 -0.0466 -0.3298  0.0612
  558TIP3    H125869   0.599   2.832  19.091  0.8916 -0.4069  0.5269
  558TIP3    H225870   0.628   2.744  18.971 -0.0629 -0.1128  0.0652
  559TIP3   OH225871   0.021   6.448  18.144  0.2815  0.3375  0.0569
  559TIP3    H125872  -0.013   6.527  18.186 -1.6074  0.5551 -1.7303
  559TIP3    H225873  -0.052   6.415  18.091  1.7031 -1.3963 -0.9396
  560TIP3   OH225874   2.444   6.431  19.576  0.5237  0.3182  0.1458
  560TIP3    H125875   2.396   6.512  19.557 -2.9949 -1.7228 -0.4870
  560TIP3    H225876   2.441   6.423  19.672  0.2880  0.6198  0.1650
  561TIP3   OH225877   4.523   1.996  20.924 -0.3031  0.8102 -0.0506
  561TIP3    H125878   4.428   2.006  20.917 -0.3466  0.8467  0.5420
  561TIP3    H225879   4.559   2.059  20.861 -0.6978 -1.6637 -2.9625
  562TIP3   OH225880   5.877   2.568  18.174 -0.3595 -0.4385  0.8528
  562TIP3    H125881   5.797   2.516  18.176 -0.0186 -1.1480 -1.3136
  562TIP3    H225882   5.924   2.537  18.097  1.3835  0.8967  1.3101
  563TIP3   OH225883   6.249   1.229  19.307 -0.2998 -0.2233  0.2756
  563TIP3    H125884   6.315   1.267  19.364  0.9286 -0.0275 -1.2034
  563TIP3    H225885   6.166   1.263  19.339  0.2717 -0.6578  2.3250
  564TIP3   OH225886   3.875   3.617  18.104 -0.2146  0.2968  0.2893
  564TIP3    H125887   3.786   3.608  18.071  0.0457  0.2109 -0.3878
  564TIP3    H225888   3.930   3.618  18.026  0.7392 -3.2150  0.7616
  565TIP3   OH225889   4.619   3.225  17.250  0.1073  0.2735 -0.0641
  565TIP3    H125890   4.558   3.186  17.187 -0.3201  0.0091  0.5094
  565TIP3    H225891   4.704   3.218  17.208 -0.2030  0.3199 -0.7226
  566TIP3   OH225892   2.966   4.452  18.597 -0.4476  0.3577  0.1419
  566TIP3    H125893   3.048   4.501  18.607 -0.9052  1.3536 -0.8589
  566TIP3    H225894   2.986   4.365  18.634  0.9058  0.7256  0.3390
  567TIP3   OH225895   1.210   3.932  17.749 -0.4824 -0.4150 -0.0434
  567TIP3    H125896   1.285   3.985  17.776 -1.2955 -0.7676  3.4461
  567TIP3    H225897   1.141   3.995  17.730 -0.0255 -0.1520 -0.8759
  568TIP3   OH225898   6.376   3.489  18.696  0.3938 -0.1496 -0.1285
  568TIP3    H125899   6.378   3.525  18.607 -0.0243  1.3330  0.4278
  568TIP3    H225900   6.371   3.566  18.753 -0.8476 -1.1019  1.1217
  569TIP3   OH225901   2.622   5.092  20.285  0.2285  0.0822  0.2989
  569TIP3    H125902   2.550   5.152  20.264  0.1539  0.6181  1.9129
  569TIP3    H225903   2.590   5.043  20.361  0.8615 -0.9978 -0.1104
  570TIP3   OH225904   4.639   4.764  18.482 -0.3786  0.2199  0.4957
  570TIP3    H125905   4.646   4.787  18.575 -1.3706  1.6386  0.2531
  570TIP3    H225906   4.544   4.759  18.466 -0.3008 -3.2321  0.2678
  571TIP3   OH225907   4.701   6.743  19.908 -0.6505 -0.2526  0.2295
  571TIP3    H125908   4.792   6.774  19.913 -1.0908  1.4390 -1.2889
  571TIP3    H225909   4.700   6.664  19.962  1.1145  1.0558  2.3873
  572TIP3   OH225910   3.108   6.444  20.371  0.3860 -0.5637  0.2536
  572TIP3    H125911   3.136   6.353  20.384 -0.3795 -0.7578  0.5601
  572TIP3    H225912   3.040   6.439  20.304 -0.1928 -0.3101  0.8094
  573TIP3   OH225913   6.062   5.277  20.611  0.1913  0.8641  0.4248
  573TIP3    H125914   6.004   5.223  20.665  0.8110  1.4141  1.7099
  573TIP3    H225915   6.017   5.361  20.605  0.2637  0.8984  0.3584
  574TIP3   OH225916   4.172   3.659  19.689 -0.3486 -0.2109  0.6469
  574TIP3    H125917   4.225   3.695  19.760  1.2350  1.0265 -1.0688
  574TIP3    H225918   4.087   3.702  19.698  0.8680  2.5695 -0.1418
  575TIP3   OH225919   2.749   6.248  19.169 -1.0853 -0.6631 -0.2599
  575TIP3    H125920   2.729   6.155  19.177 -1.7372 -0.4287  1.1179
  575TIP3    H225921   2.792   6.271  19.251 -0.5732  0.1766 -0.7443
  576TIP3   OH225922   2.978   0.642  18.098  0.4138  0.2582 -0.4213
  576TIP3    H125923   2.982   0.655  18.003  0.7205 -0.4023 -0.5089
  576TIP3    H225924   3.042   0.573  18.115 -2.3422 -2.4927 -0.2937
  577TIP3   OH225925   5.973   4.379  20.416  0.7930  0.1246 -0.0756
  577TIP3    H125926   6.036   4.375  20.488  0.9939 -1.9972 -0.3186
  577TIP3    H225927   5.924   4.460  20.432  0.5379 -0.4895  2.7031
  578TIP3   OH225928   3.495   5.519  19.452 -0.2538 -0.4049 -0.4800
  578TIP3    H125929   3.429   5.493  19.387  0.2574 -1.2295 -0.6853
  578TIP3    H225930   3.499   5.445  19.512 -1.6762  0.8730  1.3111
  579TIP3   OH225931   0.390   0.491  19.122  0.0755 -0.1905 -0.4126
  579TIP3    H125932   0.315   0.535  19.161 -1.1118 -1.5619 -1.0764
  579TIP3    H225933   0.452   0.561  19.104 -1.5538  1.1561 -1.0031
  580TIP3   OH225934   3.878   0.806  19.977 -0.1602 -0.3235  0.4658
  580TIP3    H125935   3.795   0.820  19.930  0.7260 -0.6584 -1.2911
  580TIP3    H225936   3.934   0.761  19.913  1.9950  1.4584  0.9816
  581TIP3   OH225937   5.354   1.127  18.109 -0.1190 -0.5292 -0.0061
  581TIP3    H125938   5.311   1.212  18.109 -0.3552 -0.5348  2.9590
  581TIP3    H225939   5.342   1.094  18.020  0.0654  2.5184 -1.2853
  582TIP3   OH225940   1.913   4.482  19.193 -0.1740  0.2099  0.2160
  582TIP3    H125941   1.831   4.507  19.237 -1.7793 -1.3568 -1.7224
  582TIP3    H225942   1.889   4.407  19.139  2.5032 -0.0761 -0.6814
  583TIP3   OH225943   0.248   1.866  19.899 -0.2851 -0.2556 -0.6433
  583TIP3    H125944   0.248   1.917  19.819  1.5814 -0.2049 -0.6644
  583TIP3    H225945   0.279   1.779  19.873  0.0673 -0.3210 -0.0379
  584TIP3   OH225946   3.501   5.714  20.621 -0.1266 -0.0216 -0.0545
  584TIP3    H125947   3.455   5.669  20.550  2.6359  0.5070 -2.3461
  584TIP3    H225948   3.573   5.655  20.645  0.5335  0.9680  0.4800
  585TIP3   OH225949   6.728   2.115  19.388  0.0392 -0.4269  0.4472
  585TIP3    H125950   6.636   2.135  19.404 -0.2827 -1.6827  0.2705
  585TIP3    H225951   6.729   2.021  19.368  0.9751  0.1171 -2.4372
  586TIP3   OH225952   4.400   5.922  19.534 -0.2379 -0.0830  0.5404
  586TIP3    H125953   4.348   5.993  19.496  2.1352  1.9573  0.8412
  586TIP3    H225954   4.369   5.916  19.624 -1.6682 -0.7081  0.0393
  587TIP3   OH225955   4.473   6.593  20.052 -0.2170  0.7327 -0.0301
  587TIP3    H125956   4.422   6.643  19.987 -0.1860  1.3419  0.4019
  587TIP3    H225957   4.534   6.657  20.089 -1.0248  0.6969  1.4322
  588TIP3   OH225958   6.101   1.077  18.518 -0.2575 -0.2178  0.0341
  588TIP3    H125959   6.025   1.048  18.468 -1.8939  1.1061  1.6555
  588TIP3    H225960   6.093   1.033  18.603  1.6740 -1.2796 -0.2714
  589TIP3   OH225961   2.628   0.347  18.555 -0.5769  0.0246  0.1083
  589TIP3    H125962   2.697   0.281  18.550 -1.3239 -0.7269 -0.7385
  589TIP3    H225963   2.553   0.301  18.592 -1.0127  0.4922 -0.1816
  590TIP3   OH225964   2.246   5.053  19.923 -0.1366 -0.5526  0.2510
  590TIP3    H125965   2.223   5.016  19.838 -0.2164  2.0651 -0.9526
  590TIP3    H225966   2.331   5.095  19.909  1.8743 -3.3372  2.5831
  591TIP3   OH225967   5.461   5.167  19.356  0.4992 -0.2654 -0.1163
  591TIP3    H125968   5.422   5.119  19.430  0.1789 -2.0562 -1.3879
  591TIP3    H225969   5.555   5.153  19.365  0.3494 -2.3271 -1.1823
  592TIP3   OH225970   5.412   2.556  18.876  0.1042  0.0416 -0.5141
  592TIP3    H125971   5.455   2.501  18.941  0.4893 -0.2445 -1.0078
  592TIP3    H225972   5.404   2.642  18.919  0.5521 -0.0825 -0.1774
  593TIP3   OH225973   2.724   6.698  20.782 -0.1042  0.4725 -0.5004
  593TIP3    H125974   2.795   6.656  20.832 -0.5703 -0.3306 -0.5056
  593TIP3    H225975   2.648   6.694  20.840 -0.2326  1.0529 -0.6196
  594TIP3   OH225976   4.602   5.352  19.931  0.3272  0.2431  0.2933
  594TIP3    H125977   4.549   5.297  19.874 -0.3421  1.7355 -0.5898
  594TIP3    H225978   4.662   5.292  19.974 -0.3208 -1.1459 -0.6842
  595TIP3   OH225979   5.103   6.191  20.022 -0.7354  0.1162 -0.0276
  595TIP3    H125980   5.064   6.267  19.979  0.9418  0.4345 -1.0899
  595TIP3    H225981   5.197   6.203  20.011 -0.3641 -1.2689  1.2840
  596TIP3   OH225982   1.289   4.108  20.192 -0.1985 -0.9010  0.3677
  596TIP3    H125983   1.343   4.150  20.125 -1.3913  0.2280  0.0667
  596TIP3    H225984   1.217   4.068  20.142 -0.6680 -0.7378  0.8985
  597TIP3   OH225985   4.971   0.564  18.431  0.0152 -0.0758  0.5913
  597TIP3    H125986   5.051   0.525  18.466  0.6619  0.4389 -0.2761
  597TIP3    H225987   4.987   0.574  18.337  0.0040  2.4399  0.7686
  598TIP3   OH225988   1.560   1.799  18.101  0.3307 -0.0755 -0.1085
  598TIP3    H125989   1.603   1.882  18.079 -0.6663  0.4157 -0.2531
  598TIP3    H225990   1.584   1.784  18.193 -0.3408  0.9397  0.2602
  599TIP3   OH225991   5.631   0.190  17.835  0.3064  0.1104 -0.5334
  599TIP3    H125992   5.618   0.264  17.775 -0.6422 -0.7672 -1.4462
  599TIP3    H225993   5.543   0.159  17.854  0.6225  0.0061  0.9041
  600TIP3   OH225994   4.302   4.672  19.453 -0.9288  0.0041 -0.9186
  600TIP3    H125995   4.217   4.673  19.409 -0.9169  1.3107 -0.9572
  600TIP3    H225996   4.282   4.655  19.545 -1.2637  0.4865 -0.8953
  601TIP3   OH225997   0.857   1.054  20.035 -0.0608 -0.1090 -0.4284
  601TIP3    H125998   0.833   1.010  20.116 -1.6076 -0.4445 -1.0317
  601TIP3    H225999   0.863   0.983  19.970  0.6931  0.2057 -0.7210
  602TIP3   OH226000   5.963   3.554  18.138  0.0171  0.0071  0.3685
  602TIP3    H126001   5.921   3.587  18.059 -0.8660  1.5852  1.4283
  602TIP3    H226002   6.012   3.477  18.110 -0.9518  0.0386 -1.5313
  603TIP3   OH226003   3.828   2.617  18.772  0.1201  0.5440  0.7316
  603TIP3    H126004   3.762   2.551  18.751  1.1344  0.1079 -1.2694
  603TIP3    H226005   3.781   2.682  18.824 -1.4143 -0.6616  0.9293
  604TIP3   OH226006   6.737   1.294  18.765 -0.1177  0.5362  0.3116
  604TIP3    H126007   6.661   1.250  18.803 -1.2028  1.4752 -0.6999
  604TIP3    H226008   6.805   1.286  18.832 -0.5238 -1.8533  0.5400
  605TIP3   OH226009   1.129   1.299  17.534 -0.9068  0.4132 -0.1376
  605TIP3    H126010   1.191   1.254  17.592 -0.9606 -0.3969 -0.6856
  605TIP3    H226011   1.185   1.341  17.468 -0.8193  1.6935  0.7149
  606TIP3   OH226012   0.514   2.496  18.258 -0.3356 -0.2242 -0.6394
  606TIP3    H126013   0.590   2.456  18.300 -1.6183 -0.9599  1.0912
  606TIP3    H226014   0.549   2.573  18.213  1.0712  0.9762  2.2717
  607TIP3   OH226015   4.911   0.570  20.196 -0.1782  1.2992  0.1104
  607TIP3    H126016   5.005   0.590  20.207 -0.2935  1.7397  0.3348
  607TIP3    H226017   4.869   0.656  20.193 -0.5929  1.0989  0.1736
  608TIP3   OH226018   4.131   1.213  18.628 -0.1999  0.4195 -0.1311
  608TIP3    H126019   4.126   1.239  18.536  1.2921  0.9255 -0.0830
  608TIP3    H226020   4.162   1.123  18.626  0.7245  0.7307 -0.1062
  609TIP3   OH226021   3.808   6.296  19.313 -0.4130  0.6098  0.5022
  609TIP3    H126022   3.875   6.356  19.345 -0.4281  0.3917  0.9451
  609TIP3    H226023   3.744   6.291  19.385 -0.5298  0.2432  0.3755
  610TIP3   OH226024   2.971   2.674  18.353  1.3045 -0.1687 -0.3651
  610TIP3    H126025   2.913   2.650  18.425  0.4462 -0.0216 -1.0045
  610TIP3    H226026   2.986   2.592  18.305  0.9165 -0.0386 -0.7101
  611TIP3   OH226027   0.059   1.507  17.374 -0.1026 -0.6537 -0.3135
  611TIP3    H126028   0.082   1.533  17.285  1.0602 -0.1053  0.1234
  611TIP3    H226029   0.035   1.589  17.418  0.3207 -0.7749  0.1533
  612TIP3   OH226030   3.123   0.331  17.870 -0.1073  0.1504 -0.2920
  612TIP3    H126031   3.051   0.325  17.807  1.1155 -0.5214 -1.6801
  612TIP3    H226032   3.202   0.326  17.816  0.9873  0.2668  1.2532
  613TIP3   OH226033   1.774   3.952  18.388 -0.3810 -0.2306  0.0848
  613TIP3    H126034   1.706   3.887  18.404 -0.6695  0.2190  0.7358
  613TIP3    H226035   1.794   3.944  18.295 -2.7954  1.0173 -0.6124
  614TIP3   OH226036   0.634   3.797  20.425  0.4922  0.2134 -0.4744
  614TIP3    H126037   0.580   3.718  20.430 -0.2844  0.7392 -0.4191
  614TIP3    H226038   0.662   3.812  20.516 -0.2482  0.6000 -0.3013
  615TIP3   OH226039   3.186   1.277  17.516 -0.0077  0.1597  0.4003
  615TIP3    H126040   3.196   1.214  17.445  1.2002  0.2140  0.5024
  615TIP3    H226041   3.092   1.288  17.524 -0.2047 -0.6962 -0.4416
  616TIP3   OH226042   3.382   2.459  20.325 -0.8754 -0.4780  0.0103
  616TIP3    H126043   3.377   2.457  20.420  0.2447  0.7077  0.1239
  616TIP3    H226044   3.450   2.396  20.302 -1.2806 -0.9062 -0.0268
  617TIP3   OH226045   0.723   2.750  17.370  0.0134 -0.1494 -0.3918
  617TIP3    H126046   0.769   2.705  17.300  1.8535 -2.3802  2.0266
  617TIP3    H226047   0.769   2.834  17.380 -0.3758  0.2654 -1.8675
  618TIP3   OH226048   2.172   4.561  18.127 -0.5008 -0.0227 -0.5057
  618TIP3    H126049   2.187   4.634  18.067  0.4665 -1.2406 -1.8473
  618TIP3    H226050   2.077   4.555  18.135 -0.5948  1.2692 -0.4924
  619TIP3   OH226051   3.703   5.860  19.972  0.0606  0.0242  0.1849
  619TIP3    H126052   3.692   5.931  19.910 -3.0901 -1.3251 -1.0012
  619TIP3    H226053   3.718   5.782  19.918  1.0676 -0.6289  1.3330
  620TIP3   OH226054   1.555   1.282  20.668  0.5729  0.0055 -0.0201
  620TIP3    H126055   1.467   1.248  20.682 -0.5046  2.1218 -1.2534
  620TIP3    H226056   1.603   1.209  20.627 -0.4134 -1.3263  1.1096
  621TIP3   OH226057   0.505   0.264  18.882 -0.0198 -0.0321  0.3079
  621TIP3    H126058   0.503   0.279  18.977  2.8757  0.7680  0.3405
  621TIP3    H226059   0.453   0.335  18.846  1.7247  1.7978  1.2047
  622TIP3   OH226060   4.835   2.680  19.397 -0.1241 -0.0084  0.1611
  622TIP3    H126061   4.880   2.759  19.367 -2.0839  1.2179  0.3117
  622TIP3    H226062   4.753   2.679  19.348 -0.3149 -1.7626  0.4538
  623TIP3   OH226063   0.767   6.694  17.995  0.6628  0.5608 -0.0064
  623TIP3    H126064   0.854   6.662  17.975  1.1375  0.0822  2.4799
  623TIP3    H226065   0.776   6.789  18.000  1.4237  0.4211  1.6999
  624TIP3   OH226066   4.077   3.620  17.533 -0.1526 -0.0096 -0.7836
  624TIP3    H126067   4.119   3.648  17.614  0.7322 -0.7062 -0.9940
  624TIP3    H226068   3.983   3.635  17.548  0.0161 -0.0276  0.3123
  625TIP3   OH226069   0.430   3.417  20.124  0.1408  0.0255 -0.1664
  625TIP3    H126070   0.458   3.441  20.036  0.2919 -0.6779 -0.3146
  625TIP3    H226071   0.510   3.391  20.169  0.1600  1.0318  0.3965
  626TIP3   OH226072   0.234   4.816  19.801 -0.5243  0.8674 -0.9056
  626TIP3    H126073   0.192   4.741  19.759 -1.8786  0.6420  0.7449
  626TIP3    H226074   0.179   4.835  19.877  1.7138  1.3260  0.7226
  627TIP3   OH226075   0.271   1.221  18.554  0.6166  0.6010  0.4891
  627TIP3    H126076   0.304   1.308  18.577  2.0371  0.2102  0.0270
  627TIP3    H226077   0.263   1.175  18.637  2.1352  0.4193  0.5656
  628TIP3   OH226078   4.618   1.575  19.826 -0.2753  0.2560  0.5191
  628TIP3    H126079   4.592   1.651  19.774 -0.5232  0.1259  0.4520
  628TIP3    H226080   4.615   1.501  19.765 -2.2556 -0.2037  1.0918
  629TIP3   OH226081   3.308   1.108  19.135  0.8240  0.4673 -0.0247
  629TIP3    H126082   3.349   1.030  19.172 -0.1027 -0.6717 -1.2884
  629TIP3    H226083   3.244   1.074  19.073 -2.7477  2.1111  2.4629
  630TIP3   OH226084   0.069   2.370  17.685 -0.0625  0.0059 -0.4830
  630TIP3    H126085   0.001   2.411  17.631 -0.7061  1.2899  1.2187
  630TIP3    H226086   0.030   2.288  17.714  0.1317 -0.4968 -1.6011
  631TIP3   OH226087   4.456   3.192  19.288 -0.2128  0.1592  0.0739
  631TIP3    H126088   4.404   3.147  19.222 -0.9798  0.7952  0.2290
  631TIP3    H226089   4.391   3.231  19.347  0.4488 -0.1953  1.0662
  632TIP3   OH226090   2.277   6.255  18.373  0.4507 -0.1216  0.0948
  632TIP3    H126091   2.324   6.297  18.302  1.7097  0.0564  1.0112
  632TIP3    H226092   2.186   6.249  18.341  0.8907  0.3593 -1.3197
  633TIP3   OH226093   2.746   6.471  19.499  0.1479  0.3025  0.6438
  633TIP3    H126094   2.655   6.467  19.527  0.2337 -0.1757  0.8573
  633TIP3    H226095   2.782   6.546  19.547 -1.0711  2.9431 -2.2361
  634TIP3   OH226096   4.896   4.059  19.125 -0.4224 -0.0488 -0.2741
  634TIP3    H126097   4.880   4.153  19.115 -0.1741  0.0934  0.5842
  634TIP3    H226098   4.984   4.053  19.163 -0.8253 -0.5869  0.5954
  635TIP3   OH226099   6.122   1.733  18.620  0.0732  0.1353 -0.0165
  635TIP3    H126100   6.156   1.780  18.696 -0.5436 -0.6444  0.7661
  635TIP3    H226101   6.086   1.802  18.564  0.3033  0.7015  0.5163
  636TIP3   OH226102   0.074   5.689  18.263  0.2848  0.3575  0.1517
  636TIP3    H126103   0.013   5.628  18.304  1.1799 -0.9433 -0.4073
  636TIP3    H226104   0.018   5.748  18.212 -0.4863 -1.2222 -0.9013
  637TIP3   OH226105   0.848   5.357  19.904  0.4372  0.4350  0.1876
  637TIP3    H126106   0.804   5.310  19.974 -1.1857  0.6827 -0.6267
  637TIP3    H226107   0.907   5.419  19.949 -0.6180  0.6368  1.3277
  638TIP3   OH226108   1.272   5.256  20.651  0.5523 -0.0247  0.1229
  638TIP3    H126109   1.367   5.247  20.647  0.4899 -1.7513  1.3253
  638TIP3    H226110   1.242   5.174  20.689 -1.5813 -0.2748 -1.8658
  639TIP3   OH226111   0.118   3.223  18.301  0.6892  0.0227  0.4588
  639TIP3    H126112   0.174   3.274  18.243  0.6729 -0.1523  0.2873
  639TIP3    H226113   0.178   3.187  18.366  0.8000 -0.2637  0.2052
  640TIP3   OH226114   5.578   4.997  19.692 -0.4202 -0.0634 -0.0551
  640TIP3    H126115   5.567   4.991  19.787  1.9630 -0.9347  0.2257
  640TIP3    H226116   5.669   4.974  19.677 -0.9398 -0.6986 -2.6534
  641TIP3   OH226117   2.947   4.636  18.940 -0.1834 -0.2271 -0.4195
  641TIP3    H126118   3.022   4.663  18.887  0.0365  0.7004  0.3142
  641TIP3    H226119   2.916   4.718  18.979  0.0375 -0.9339  1.3376
  642TIP3   OH226120   5.798   2.669  20.135 -0.0811  0.0671 -0.1251
  642TIP3    H126121   5.842   2.664  20.050  0.6553  2.0044  0.0895
  642TIP3    H226122   5.744   2.748  20.130  1.0850  1.0561  1.6662
  643TIP3   OH226123   0.047   4.285  17.975  0.3017  0.4563 -0.2909
  643TIP3    H126124   0.069   4.292  18.067 -0.3548  0.3897 -0.1257
  643TIP3    H226125   0.070   4.194  17.952  1.7733  0.8610 -0.5598
  644TIP3   OH226126   4.891   1.847  17.422  0.3500 -0.6004  0.1459
  644TIP3    H126127   4.942   1.789  17.477 -0.1016 -0.6218  0.5501
  644TIP3    H226128   4.936   1.931  17.427  1.3196 -1.0254 -0.8782
  645TIP3   OH226129   4.372   2.664  19.102 -0.2669  0.6785 -0.0768
  645TIP3    H126130   4.305   2.596  19.102  0.6114 -0.2164  1.0279
  645TIP3    H226131   4.343   2.726  19.035 -0.3081 -1.5700 -2.2824
  646TIP3   OH226132   6.718   2.795  19.572 -0.1263 -0.3790  0.1688
  646TIP3    H126133   6.729   2.725  19.507  0.3079  0.1812 -0.3751
  646TIP3    H226134   6.677   2.752  19.646 -0.3931 -1.0954 -0.3774
  647TIP3   OH226135   3.857   2.387  19.390 -0.4347 -0.5860  0.0460
  647TIP3    H126136   3.843   2.321  19.458  0.0555  0.7141  1.4627
  647TIP3    H226137   3.889   2.337  19.315  0.2655 -1.9214  1.1876
  648TIP3   OH226138   0.353   5.891  20.131  0.2429  0.1212  0.2951
  648TIP3    H126139   0.323   5.809  20.092 -0.4174  0.4804  0.0303
  648TIP3    H226140   0.289   5.956  20.103 -0.7990  0.2309  2.6894
  649TIP3   OH226141   1.388   2.462  18.504  0.3067 -0.2783  0.0532
  649TIP3    H126142   1.348   2.381  18.474  0.5359 -0.8182  1.1576
  649TIP3    H226143   1.480   2.454  18.479  0.1419  0.0807 -0.6992
  650TIP3   OH226144   6.334   4.207  17.920  0.6587  0.0986 -0.4203
  650TIP3    H126145   6.282   4.258  17.983  0.4997 -0.2968 -0.2254
  650TIP3    H226146   6.269   4.170  17.860  0.4678 -1.9825  0.9449
  651TIP3   OH226147   3.404   5.456  17.430 -0.3907  0.4252 -1.0374
  651TIP3    H126148   3.462   5.469  17.355  0.1513  0.0080 -0.7022
  651TIP3    H226149   3.330   5.405  17.395 -0.4025  0.6847 -1.3979
  652TIP3   OH226150   2.410   3.083  18.914 -0.2561  0.0113 -0.4753
  652TIP3    H126151   2.383   2.999  18.949 -1.7013  0.2153 -1.0256
  652TIP3    H226152   2.494   3.102  18.957 -0.4648 -1.1712  0.4894
  653TIP3   OH226153   0.923   3.481  19.941  0.1052  0.2255 -0.0907
  653TIP3    H126154   0.924   3.511  20.032 -1.2896  0.2181 -0.0448
  653TIP3    H226155   0.912   3.561  19.890  3.0624  0.5061 -0.4558
  654TIP3   OH226156   3.455   4.775  18.898 -0.6365  0.3525  0.1344
  654TIP3    H126157   3.440   4.869  18.906  1.3442  0.8303 -1.0859
  654TIP3    H226158   3.517   4.754  18.968 -0.0917  0.2215 -0.3795
  655TIP3   OH226159   5.776   5.747  20.343 -0.3673 -0.0336 -0.2544
  655TIP3    H126160   5.770   5.819  20.281 -0.2791  0.1728 -0.0239
  655TIP3    H226161   5.750   5.785  20.427 -0.0805 -0.2080 -0.0858
  656TIP3   OH226162   4.393   6.258  19.090  0.1558 -0.2470  0.3725
  656TIP3    H126163   4.417   6.231  19.178  0.5968  0.6243  0.5351
  656TIP3    H226164   4.407   6.353  19.090 -2.6618  0.2469  0.2779
  657TIP3   OH226165   0.513   0.016  19.954  0.4574  0.0267  0.1130
  657TIP3    H126166   0.498  -0.057  19.894 -1.7648  0.5417 -0.0297
  657TIP3    H226167   0.433   0.020  20.007  0.5069  2.3841  0.0858
  658TIP3   OH226168   1.289   6.244  18.852  0.5427  0.3540 -0.1766
  658TIP3    H126169   1.248   6.157  18.854  0.1307  0.5562  1.3136
  658TIP3    H226170   1.255   6.288  18.930  0.7362  1.8714 -0.9134
  659TIP3   OH226171   4.762   6.569  19.593  0.1495  0.0951  0.4282
  659TIP3    H126172   4.845   6.560  19.639  0.6499  1.8488 -0.0427
  659TIP3    H226173   4.746   6.663  19.590 -1.9814 -0.1995  0.6935
  660TIP3   OH226174   6.614   6.704  19.080  0.7233 -0.0794 -0.7164
  660TIP3    H126175   6.708   6.718  19.064  1.2725 -1.6840  0.7687
  660TIP3    H226176   6.596   6.618  19.042  0.4155 -0.7631  0.8778
  661TIP3   OH226177   1.060   1.817  17.676 -0.3779 -0.0933  0.3172
  661TIP3    H126178   1.093   1.729  17.658 -1.2795 -0.0093 -2.1105
  661TIP3    H226179   1.111   1.846  17.752  0.2408 -2.5086  0.9396
  662TIP3   OH226180   6.560   2.743  17.900 -0.0604  0.6138 -0.1296
  662TIP3    H126181   6.506   2.675  17.860  0.9889 -1.2232  1.3804
  662TIP3    H226182   6.645   2.701  17.914  0.7676  2.3906  0.4607
  663TIP3   OH226183   5.107   5.167  19.605 -0.6829  0.0469  0.0792
  663TIP3    H126184   5.194   5.127  19.595  0.2694  1.8286  0.6425
  663TIP3    H226185   5.101   5.229  19.533 -0.9419  0.8231  0.7519
  664TIP3   OH226186   2.704   4.720  20.269  0.5542 -0.1444 -0.3019
  664TIP3    H126187   2.680   4.628  20.281 -1.2402  0.0949 -1.5993
  664TIP3    H226188   2.637   4.754  20.210  2.6597  1.3620 -1.9449
  665TIP3   OH226189   2.692   3.423  18.442  0.2713 -0.0556 -0.0739
  665TIP3    H126190   2.666   3.510  18.410  1.5230 -0.5805 -2.8379
  665TIP3    H226191   2.610   3.384  18.474 -0.4658  1.8115  0.4572
  666TIP3   OH226192   5.286   3.144  18.573 -0.4740  0.3524  0.5268
  666TIP3    H126193   5.211   3.182  18.618 -0.1077  1.2211  0.4128
  666TIP3    H226194   5.345   3.118  18.644 -0.5727  0.3047  0.5926
  667TIP3   OH226195   2.464   4.880  19.644  0.1140  0.0885 -0.0837
  667TIP3    H126196   2.464   4.871  19.549 -0.4559  1.4232 -0.2343
  667TIP3    H226197   2.383   4.927  19.663  0.4152  0.1735  1.0333
  668TIP3   OH226198   2.963   4.203  18.019  0.4725  0.3813  0.4317
  668TIP3    H126199   2.964   4.153  17.937 -2.7886 -0.4443  0.7673
  668TIP3    H226200   2.874   4.194  18.052  1.1576  2.2551  3.1611
  669TIP3   OH226201   5.450   0.035  17.990  0.0395  0.8589 -0.1751
  669TIP3    H126202   5.408   0.119  18.009 -0.1187  0.8059 -0.2829
  669TIP3    H226203   5.442  -0.014  18.072 -3.3305 -0.5081 -1.1203
  670TIP3   OH226204   3.802   2.575  19.606  0.5602 -0.4370 -0.5705
  670TIP3    H126205   3.857   2.631  19.552  1.4897 -0.7001  0.0854
  670TIP3    H226206   3.798   2.492  19.558 -0.0118 -0.1376 -1.0556
  671TIP3   OH226207   4.777   6.288  17.658  0.4218  0.5780  0.4326
  671TIP3    H126208   4.799   6.199  17.631 -2.5206  0.1727 -1.0280
  671TIP3    H226209   4.698   6.309  17.609 -0.0062  3.3437  2.1017
  672TIP3   OH226210   1.620   6.085  17.620 -0.2854  0.4770 -0.1561
  672TIP3    H126211   1.661   5.999  17.627  0.4206  0.4228 -3.2663
  672TIP3    H226212   1.528   6.067  17.600  0.0758  0.3666 -1.8345
  673TIP3   OH226213   0.484   2.135  17.010  0.2657  0.3878 -0.1595
  673TIP3    H126214   0.515   2.044  17.001  0.2825  0.2217  1.3457
  673TIP3    H226215   0.558   2.181  17.050  0.1383  0.9925 -0.6215
  674TIP3   OH226216   1.366   1.104  17.455 -0.3836  0.6040  0.1439
  674TIP3    H126217   1.396   1.094  17.365  0.1269 -0.9163  0.4567
  674TIP3    H226218   1.344   1.015  17.484 -2.3949  1.2734  0.9129
  675TIP3   OH226219   2.237   2.614  18.979 -0.0726 -0.2866  0.7733
  675TIP3    H126220   2.217   2.593  18.888  2.3327  1.1999 -0.2162
  675TIP3    H226221   2.306   2.552  19.003  1.0834  0.9047  0.6696
  676TIP3   OH226222   6.247   0.980  19.400 -0.0763 -0.0060  0.1055
  676TIP3    H126223   6.210   0.983  19.488  2.0775 -0.6043  1.0959
  676TIP3    H226224   6.236   1.069  19.366 -2.5754 -0.2017  0.1941
  677TIP3   OH226225   5.729   3.339  19.597 -0.3751  0.1097 -0.9413
  677TIP3    H126226   5.762   3.298  19.677  1.5968  1.9072 -0.7425
  677TIP3    H226227   5.802   3.333  19.536 -1.1239  0.6347 -1.9077
  678TIP3   OH226228   5.252   5.658  20.683 -0.0187  0.4291  0.0218
  678TIP3    H126229   5.308   5.636  20.609  1.2807 -0.3997  1.2114
  678TIP3    H226230   5.239   5.752  20.676  1.6077  0.6628 -0.2371
  679TIP3   OH226231   6.735   6.314  19.858 -0.6350 -0.5116 -0.1311
  679TIP3    H126232   6.776   6.245  19.807 -2.4401 -2.8345  1.3124
  679TIP3    H226233   6.654   6.274  19.891 -1.7408  2.2930  0.8819
  680TIP3   OH226234   0.778   0.674  18.104  0.5699  0.1766 -0.2321
  680TIP3    H126235   0.867   0.690  18.135  0.2812  1.5271 -0.0469
  680TIP3    H226236   0.780   0.699  18.012  0.1861  0.9840 -0.0234
  681TIP3   OH226237   3.181   5.973  19.344  0.5939  0.5124  0.9321
  681TIP3    H126238   3.158   5.972  19.251 -1.7345  0.9602  1.4521
  681TIP3    H226239   3.233   5.894  19.357  0.5871  0.2240 -0.6563
  682TIP3   OH226240   0.654   4.707  19.682 -0.0601 -0.0293 -0.3794
  682TIP3    H126241   0.668   4.616  19.709 -0.8609 -0.2003 -0.5039
  682TIP3    H226242   0.562   4.710  19.654  0.2707  0.5479 -1.4627
  683TIP3   OH226243   5.956   0.081  20.425  0.2717  0.2869 -0.2378
  683TIP3    H126244   6.040   0.036  20.416 -0.1129 -0.2250 -1.4312
  683TIP3    H226245   5.898   0.037  20.363 -0.1549  2.3735 -1.4290
  684TIP3   OH226246   0.101   1.533  19.803 -0.4184  0.2439 -0.5003
  684TIP3    H126247   0.178   1.518  19.748 -0.3951  0.7158 -0.5993
  684TIP3    H226248   0.079   1.446  19.838  0.2263  0.1310 -0.3724
  685TIP3   OH226249   4.950   1.313  18.366  0.5139 -0.2097 -0.3539
  685TIP3    H126250   4.878   1.300  18.427  1.3268  0.5996  0.8128
  685TIP3    H226251   5.029   1.304  18.419  1.2464  0.2810 -1.3199
  686TIP3   OH226252   6.581   2.809  20.374  0.0272 -0.0728  0.3735
  686TIP3    H126253   6.500   2.860  20.383 -0.4564 -0.6045 -0.8166
  686TIP3    H226254   6.650   2.875  20.376 -0.4969  0.4896  0.3819
  687TIP3   OH226255   0.537   5.612  19.290  0.4791 -0.5962 -0.4112
  687TIP3    H126256   0.487   5.693  19.283  1.0244 -0.2767 -0.7120
  687TIP3    H226257   0.583   5.606  19.206 -0.1621 -1.6252 -0.6972
  688TIP3   OH226258   0.455   3.112  19.112 -0.7435  0.6068 -0.1382
  688TIP3    H126259   0.420   3.077  19.194 -1.0310 -2.6428 -1.5259
  688TIP3    H226260   0.539   3.068  19.101 -0.9211  0.6140 -1.7879
  689TIP3   OH226261   1.541   1.131  17.956 -0.0729 -0.1948  0.5582
  689TIP3    H126262   1.536   1.056  18.015  0.0875 -0.1274  0.6564
  689TIP3    H226263   1.470   1.189  17.984 -1.2073 -1.0001 -0.4797
  690TIP3   OH226264   0.622   6.642  19.008  0.1128 -0.0557 -0.0132
  690TIP3    H126265   0.581   6.691  19.079  0.8675  2.0270 -0.9450
  690TIP3    H226266   0.704   6.689  18.991  1.4214 -2.2757 -0.2758
  691TIP3   OH226267   5.186   3.105  19.610 -0.1619 -0.0600 -0.1148
  691TIP3    H126268   5.105   3.106  19.661 -0.3685  0.3789 -0.4388
  691TIP3    H226269   5.255   3.125  19.673 -0.2137 -1.0920  0.2972
  692TIP3   OH226270   2.125   4.760  17.719 -0.4397  0.3795 -0.5858
  692TIP3    H126271   2.192   4.700  17.686  0.7589  1.5310 -0.3245
  692TIP3    H226272   2.053   4.751  17.658 -0.6643 -1.9591 -0.0806
  693TIP3   OH226273   4.588   5.480  19.067 -0.1684 -0.3355  0.4355
  693TIP3    H126274   4.660   5.485  19.005  0.5273 -1.3955  1.1386
  693TIP3    H226275   4.546   5.566  19.062 -0.5406 -0.6101 -1.9770
  694TIP3   OH226276   6.089   6.453  18.011  0.1156 -0.5482 -0.1682
  694TIP3    H126277   6.111   6.545  18.025 -0.8557 -0.1569 -1.1113
  694TIP3    H226278   6.164   6.417  17.964 -0.5769  0.4441 -2.1535
  695TIP3   OH226279   1.501   0.464  19.452 -0.6268  0.3449  0.2163
  695TIP3    H126280   1.440   0.535  19.471 -0.1180  0.4317  1.6497
  695TIP3    H226281   1.560   0.462  19.527  1.3131  0.4190 -1.2141
  696TIP3   OH226282   3.635   6.174  18.198  0.3432 -0.5682  0.5548
  696TIP3    H126283   3.602   6.237  18.262 -0.5077 -0.6940  0.2586
  696TIP3    H226284   3.730   6.184  18.201  0.2516  0.3215  0.9336
  697TIP3   OH226285   4.630   6.391  18.387 -0.1648 -0.3821  0.1907
  697TIP3    H126286   4.647   6.305  18.346  0.9137  0.1411 -0.5027
  697TIP3    H226287   4.713   6.415  18.427 -0.4378  0.3808  0.3067
  698TIP3   OH226288   0.971   5.218  20.747  0.1620 -0.4740  0.0749
  698TIP3    H126289   1.007   5.306  20.763  0.5003 -0.5895 -0.0409
  698TIP3    H226290   1.030   5.179  20.682 -0.7456 -0.3082 -0.8696
  699TIP3   OH226291   4.311   2.384  20.743 -0.3714  0.1181  0.4481
  699TIP3    H126292   4.219   2.406  20.758  0.3154  5.5401 -1.0253
  699TIP3    H226293   4.356   2.413  20.823  0.2957 -0.0106  0.1249
  700TIP3   OH226294   1.227   0.344  17.920  0.5008  0.8391  0.1387
  700TIP3    H126295   1.299   0.362  17.980  0.4557 -1.0709  0.8562
  700TIP3    H226296   1.148   0.359  17.971  0.4168 -3.3732  1.6758
  701TIP3   OH226297   0.176   2.531  18.870 -0.2452 -0.4209  0.2388
  701TIP3    H126298   0.224   2.466  18.819  0.5251 -0.7533  1.3630
  701TIP3    H226299   0.176   2.609  18.814  0.0285 -0.9584 -0.5316
  702TIP3   OH226300   3.023   3.281  20.513  0.4031 -0.2656  0.0866
  702TIP3    H126301   2.945   3.336  20.502  0.2550 -0.4589  0.1417
  702TIP3    H226302   3.002   3.225  20.588  0.5525 -0.3897  0.0368
  703TIP3   OH226303   2.690   0.086  20.530  0.6470  0.4218  0.5411
  703TIP3    H126304   2.742   0.014  20.493 -0.5917 -0.3842  0.2757
  703TIP3    H226305   2.639   0.045  20.600 -2.6895  0.0907 -1.8013
  704TIP3   OH226306   5.778   2.688  17.717 -0.2610  0.2426  0.3997
  704TIP3    H126307   5.868   2.707  17.691 -0.1608  0.0415  0.5914
  704TIP3    H226308   5.787   2.637  17.797 -0.5212 -0.4419  0.0025
  705TIP3   OH226309   1.499   3.977  20.333 -0.3845  0.1279 -0.6897
  705TIP3    H126310   1.424   4.002  20.279 -1.4516  1.7978  1.4134
  705TIP3    H226311   1.460   3.938  20.412  1.0924 -1.7280 -0.8083
  706TIP3   OH226312   2.253   6.056  18.550  0.4467 -0.3485  0.6520
  706TIP3    H126313   2.279   6.115  18.479  1.3214 -1.7227 -0.2313
  706TIP3    H226314   2.283   5.970  18.521 -0.7697 -1.2323  1.8999
  707TIP3   OH226315   2.445   1.146  18.331  0.0102 -0.3968  0.3462
  707TIP3    H126316   2.400   1.106  18.405 -0.1969 -3.3249 -1.1759
  707TIP3    H226317   2.423   1.089  18.257  2.5661  0.6764 -1.3812
  708TIP3   OH226318   3.639   3.025  19.141  0.7215  0.8270  0.3677
  708TIP3    H126319   3.623   2.947  19.087  0.7630 -0.2398  1.8331
  708TIP3    H226320   3.615   3.098  19.085 -4.7158 -0.3311  0.5970
  709TIP3   OH226321   5.592   1.451  18.310  0.1683  0.0056 -0.2500
  709TIP3    H126322   5.531   1.426  18.240 -0.9038  0.9134  0.3314
  709TIP3    H226323   5.559   1.406  18.388  1.8764 -1.7231 -0.4553
  710TIP3   OH226324   4.226   0.701  19.908 -0.1425 -0.1664 -0.0157
  710TIP3    H126325   4.173   0.728  19.983  1.2856 -0.4333  1.1298
  710TIP3    H226326   4.163   0.691  19.837 -1.4604  0.6597  0.9871
  711TIP3   OH226327   1.227   5.198  18.716 -0.0727 -0.4266 -0.3878
  711TIP3    H126328   1.212   5.255  18.641  2.3206 -0.2750 -0.7971
  711TIP3    H226329   1.217   5.109  18.681  1.3751 -0.3660 -0.9900
  712TIP3   OH226330   4.152   1.759  18.595  0.4672 -0.1465 -0.0126
  712TIP3    H126331   4.082   1.807  18.551 -0.1440 -1.0628 -0.0806
  712TIP3    H226332   4.232   1.801  18.566 -0.0717  1.3481  0.5721
  713TIP3   OH226333   4.422   0.419  18.629  0.1673 -0.5346  0.1453
  713TIP3    H126334   4.464   0.501  18.607  1.4485 -1.0306  0.6083
  713TIP3    H226335   4.454   0.357  18.564  1.3244 -1.2366  1.3244
  714TIP3   OH226336   0.255   0.095  19.758 -0.2565  0.6628 -0.0181
  714TIP3    H126337   0.328   0.036  19.737  0.7035  1.6436  0.4682
  714TIP3    H226338   0.245   0.087  19.853  0.7749  2.2389  0.2634
  715TIP3   OH226339   1.396   4.715  18.706  0.3596  0.4935  0.0082
  715TIP3    H126340   1.491   4.711  18.699  0.2758 -1.1918 -0.6698
  715TIP3    H226341   1.369   4.775  18.636  0.8337 -0.4248 -0.9914
  716TIP3   OH226342   2.187   3.890  17.528  0.0491  0.1545  0.1406
  716TIP3    H126343   2.222   3.960  17.473  1.1633 -0.5714 -0.1213
  716TIP3    H226344   2.246   3.816  17.512  0.2457 -0.1755  2.0967
  717TIP3   OH226345   4.343   2.339  20.039  0.1101 -0.4377 -0.3246
  717TIP3    H126346   4.401   2.414  20.056 -2.4393  1.9631 -1.4018
  717TIP3    H226347   4.296   2.327  20.122  1.0039 -1.3930  0.0691
  718TIP3   OH226348   5.266   4.778  20.344 -0.4469  0.3553 -0.3620
  718TIP3    H126349   5.335   4.815  20.289  0.4472 -0.6427  0.0661
  718TIP3    H226350   5.261   4.686  20.318  0.5450 -0.3470  1.7361
  719TIP3   OH226351   0.555   0.215  19.683  0.0681  0.0835 -0.2641
  719TIP3    H126352   0.482   0.234  19.742  1.8218  0.9026  1.7783
  719TIP3    H226353   0.578   0.300  19.646  1.7445  0.3725  1.3313
  720TIP3   OH226354   5.569   5.884  19.863  0.0662 -0.2259 -0.1190
  720TIP3    H126355   5.477   5.873  19.841 -0.5790  1.9245  1.2014
  720TIP3    H226356   5.599   5.796  19.886 -1.1664 -1.2482 -2.1018
  721TIP3   OH226357   5.685   2.130  18.875  0.0911  0.5225  0.2535
  721TIP3    H126358   5.665   2.092  18.790  1.1262  0.8686 -0.1607
  721TIP3    H226359   5.757   2.078  18.909  0.4951  1.1426  0.3644
  722TIP3   OH226360   5.162   1.164  20.255  0.0222 -0.4553  0.0278
  722TIP3    H126361   5.105   1.161  20.177  0.1336 -1.6364 -0.0308
  722TIP3    H226362   5.171   1.257  20.275 -1.4454 -0.2123 -0.3274
  723TIP3   OH226363   0.599   0.827  20.460  0.2698 -0.1475  0.6810
  723TIP3    H126364   0.518   0.784  20.434 -0.2286  1.4162 -0.4794
  723TIP3    H226365   0.595   0.830  20.556 -2.2587  2.0730  0.5973
  724TIP3   OH226366   1.309   2.786  18.317 -0.1397  0.0469 -0.0844
  724TIP3    H126367   1.401   2.760  18.329 -0.4357 -0.8745  0.3239
  724TIP3    H226368   1.311   2.882  18.315  1.3003  0.0967 -4.0559
  725TIP3   OH226369   4.627   1.879  18.141 -0.0663  0.3457 -0.4314
  725TIP3    H126370   4.534   1.865  18.159  0.2547 -0.9234  0.4483
  725TIP3    H226371   4.670   1.856  18.224  1.0700  0.2698 -1.0310
  726TIP3   OH226372   2.048   0.305  17.901  0.0899  0.0471 -0.5502
  726TIP3    H126373   2.102   0.382  17.916  1.5309 -1.3556  2.0753
  726TIP3    H226374   2.003   0.323  17.819  2.2039  2.6150 -1.2682
  727TIP3   OH226375   2.084   5.182  18.795  0.6788 -0.5192  0.5917
  727TIP3    H126376   2.037   5.121  18.852  1.6078 -2.3942 -0.5194
  727TIP3    H226377   2.080   5.266  18.840 -0.8706 -1.3384  2.0917
  728TIP3   OH226378   2.494   3.110  19.280 -0.2382  0.4811  0.3311
  728TIP3    H126379   2.460   3.020  19.280 -0.6529  0.6384  0.1250
  728TIP3    H226380   2.574   3.106  19.227  2.0824 -0.6433  3.5381
  729TIP3   OH226381   5.404   6.352  20.295  0.2212 -0.2349  0.4416
  729TIP3    H126382   5.407   6.434  20.247 -1.0553 -0.2498  0.2996
  729TIP3    H226383   5.404   6.378  20.388  0.4107 -0.1097  0.4064
  730TIP3   OH226384   4.211   2.453  19.816  0.5962  0.6445 -0.4299
  730TIP3    H126385   4.281   2.469  19.752  1.4948 -4.0045 -0.9475
  730TIP3    H226386   4.251   2.394  19.880 -2.9062 -2.7411 -1.0683
  731TIP3   OH226387   3.643   1.467  18.744  0.3698  0.3592 -0.1346
  731TIP3    H126388   3.632   1.404  18.673  1.3825  1.8210 -1.6792
  731TIP3    H226389   3.560   1.514  18.749 -0.6267 -1.4541  1.4745
  732TIP3   OH226390   3.507   2.899  17.548  0.2302 -0.1491 -0.0641
  732TIP3    H126391   3.602   2.890  17.547  0.1288 -1.3859 -1.1533
  732TIP3    H226392   3.485   2.929  17.460 -0.3923 -0.0143  0.1341
  733TIP3   OH226393   0.301   6.488  18.078  0.0005  0.0918  0.0134
  733TIP3    H126394   0.207   6.489  18.097  0.3692  0.9464  2.0856
  733TIP3    H226395   0.343   6.473  18.163  1.7341 -2.0533 -1.0945
  734TIP3   OH226396   0.073   3.042  20.240 -0.4029  0.2831  0.3746
  734TIP3    H126397   0.136   2.971  20.227 -0.9466 -0.2598  0.6555
  734TIP3    H226398   0.118   3.121  20.210 -0.1057 -0.3131 -0.7916
  735TIP3   OH226399   1.282   4.807  17.175 -0.4245 -0.1305  0.0029
  735TIP3    H126400   1.211   4.867  17.154 -0.1135  0.0998 -0.4091
  735TIP3    H226401   1.262   4.728  17.124 -0.1795  0.0806 -0.4300
  736TIP3   OH226402   4.945   4.515  18.663 -0.2822  0.4078 -0.2597
  736TIP3    H126403   5.037   4.542  18.669  0.1242 -0.6620 -1.1487
  736TIP3    H226404   4.944   4.427  18.699 -1.0094  0.5043 -0.0362
  737TIP3   OH226405   3.855   4.283  17.470 -0.7100 -0.0826  0.5550
  737TIP3    H126406   3.927   4.246  17.521 -0.0488 -0.4234 -0.5750
  737TIP3    H226407   3.803   4.207  17.443 -0.4577 -0.0173 -0.1369
  738TIP3   OH226408   6.712   5.228  18.074 -0.1267  0.2016 -0.2266
  738TIP3    H126409   6.743   5.190  17.991  0.0308  0.3686 -0.2436
  738TIP3    H226410   6.618   5.213  18.072  0.1226 -1.9252  0.6357
  739TIP3   OH226411   5.333   2.309  17.519  0.0884 -0.1627 -0.3695
  739TIP3    H126412   5.292   2.386  17.480 -0.2470  1.4830  2.8846
  739TIP3    H226413   5.260   2.258  17.554  0.4626  0.9053  2.2084
  740TIP3   OH226414   3.799   5.611  19.465 -0.0657 -0.0921  0.1739
  740TIP3    H126415   3.820   5.518  19.455 -0.8225 -0.2983  0.4267
  740TIP3    H226416   3.712   5.620  19.427  1.0567  1.0611 -2.3633
  741TIP3   OH226417   5.735   2.400  20.613  0.0440 -0.7735  0.5756
  741TIP3    H126418   5.757   2.491  20.595 -1.5154 -0.1970  1.4002
  741TIP3    H226419   5.819   2.354  20.612  0.9497  0.8118  0.9667
  742TIP3   OH226420   2.995   2.932  20.461  0.1918 -0.1801 -0.1110
  742TIP3    H126421   3.011   3.020  20.496  1.2677 -0.8851  1.2884
  742TIP3    H226422   3.080   2.905  20.425  0.2012 -1.0957  0.5581
  743TIP3   OH226423   5.631   5.214  17.870 -0.0745 -0.3075  0.3853
  743TIP3    H126424   5.640   5.153  17.797  0.6005 -1.2361  1.2090
  743TIP3    H226425   5.623   5.300  17.829  1.5327 -0.6550 -0.7590
  744TIP3   OH226426   5.272   2.955  17.860 -0.0718 -0.0115 -0.1247
  744TIP3    H126427   5.282   3.031  17.802  2.3514 -0.6503 -0.6668
  744TIP3    H226428   5.256   2.882  17.801 -0.8492 -0.1784  0.2808
  745TIP3   OH226429   6.205   4.332  18.990  0.4086  0.2022 -0.0275
  745TIP3    H126430   6.218   4.415  19.035 -1.8380  0.1258  0.8642
  745TIP3    H226431   6.188   4.357  18.899 -0.1128  0.7176  0.2059
  746TIP3   OH226432   4.748   6.191  18.590 -0.6092  0.6635 -1.0285
  746TIP3    H126433   4.802   6.269  18.604  0.2362 -0.2569  1.2831
  746TIP3    H226434   4.804   6.118  18.615 -2.2363 -0.4844 -0.5751
  747TIP3   OH226435   5.428   3.419  17.997  0.1633 -0.5885 -0.1322
  747TIP3    H126436   5.413   3.511  18.018  0.7695 -0.5184  0.0145
  747TIP3    H226437   5.440   3.418  17.902  2.1357 -0.2103  0.0645
  748TIP3   OH226438   2.747   0.131  18.724  0.4903  0.1946 -0.5122
  748TIP3    H126439   2.819   0.117  18.786 -0.4519  1.0154  0.8176
  748TIP3    H226440   2.786   0.185  18.655  0.8865  1.7135  0.8256
  749TIP3   OH226441   4.792   5.114  19.914 -0.5293  0.1785 -0.8363
  749TIP3    H126442   4.835   5.081  19.993  0.1104 -0.7246 -1.5448
  749TIP3    H226443   4.728   5.046  19.892 -1.5339  0.9694 -0.4576
  750TIP3   OH226444   2.721   6.146  20.386  0.1842 -0.2592 -0.0588
  750TIP3    H126445   2.635   6.162  20.348  0.0153 -0.9018  0.0481
  750TIP3    H226446   2.762   6.083  20.327  1.2441  1.2737 -1.0496
  751TIP3   OH226447   2.283   4.548  18.383  0.0205 -0.6474  0.1177
  751TIP3    H126448   2.238   4.547  18.298  0.9432 -0.7285 -0.3774
  751TIP3    H226449   2.244   4.622  18.429  1.9077  1.6801 -1.7412
  752TIP3   OH226450   6.229   0.500  16.856  0.1953  0.4508  0.3433
  752TIP3    H126451   6.173   0.457  16.922  0.8053 -2.5760 -0.9287
  752TIP3    H226452   6.318   0.492  16.892  0.3310  0.5022  0.0201
  753TIP3   OH226453   0.858   6.101  19.187  0.7079 -0.9273  0.2621
  753TIP3    H126454   0.847   6.151  19.106 -0.5843  1.0474  1.5610
  753TIP3    H226455   0.952   6.103  19.204  0.8209  0.0156 -0.3959
  754TIP3   OH226456   1.796   0.815  20.326  0.2567  0.3385  0.0985
  754TIP3    H126457   1.830   0.839  20.412  0.2025 -0.1677  0.2646
  754TIP3    H226458   1.792   0.898  20.278 -0.0634  0.6808  0.7035
  755TIP3   OH226459   3.809   1.337  19.653 -0.4710  0.1425  0.4115
  755TIP3    H126460   3.877   1.385  19.701 -0.3496  0.3567  0.0272
  755TIP3    H226461   3.851   1.310  19.572 -0.6286 -0.3673  0.4965
  756TIP3   OH226462   3.691   5.833  17.670  0.0029 -0.7602  0.3624
  756TIP3    H126463   3.650   5.803  17.751 -0.6792 -1.7228 -0.3120
  756TIP3    H226464   3.714   5.924  17.687 -0.8657 -0.7040  1.3630
  757TIP3   OH226465   5.974   4.103  19.537 -0.2482  0.1335 -0.1379
  757TIP3    H126466   5.945   4.018  19.568 -0.8652  1.2555  2.6643
  757TIP3    H226467   5.893   4.152  19.522  0.1032  0.8939  0.3864
  758TIP3   OH226468   5.299   3.385  20.639  0.2209  0.0253  0.2265
  758TIP3    H126469   5.295   3.478  20.615 -3.2285  0.1386  0.7045
  758TIP3    H226470   5.211   3.352  20.620  1.0143 -2.8964  1.1603
  759TIP3   OH226471   4.412   3.040  18.346  0.0207 -0.2606 -0.2183
  759TIP3    H126472   4.438   3.029  18.255  0.2843  1.3602 -0.3630
  759TIP3    H226473   4.493   3.058  18.393 -0.2396 -0.0804  0.1690
  760TIP3   OH226474   1.222   1.883  17.909 -0.1438  0.3521 -0.1828
  760TIP3    H126475   1.183   1.933  17.980  1.2283  2.5906 -0.8876
  760TIP3    H226476   1.316   1.902  17.916  0.1458 -0.2693 -1.8997
  761TIP3   OH226477   1.074   0.066  17.156 -0.4417  0.1880  0.1283
  761TIP3    H126478   1.141   0.044  17.221  1.1205  1.8309 -0.8623
  761TIP3    H226479   1.039  -0.019  17.128  0.0184 -0.6264  1.8652
  762TIP3   OH226480   1.072   4.451  17.138  0.0501 -0.0409 -0.1790
  762TIP3    H126481   0.978   4.455  17.153 -0.0185 -2.3195  0.2714
  762TIP3    H226482   1.109   4.418  17.220  1.0185 -0.8975 -0.9306
  763TIP3   OH226483   4.230   2.711  19.963 -0.3165  0.0590 -0.2917
  763TIP3    H126484   4.178   2.766  19.905  0.5466  0.0777 -1.0692
  763TIP3    H226485   4.202   2.621  19.943  0.7522 -0.0187 -1.5604
  764TIP3   OH226486   3.560   6.331  18.412 -0.0798 -0.2519 -0.1260
  764TIP3    H126487   3.558   6.426  18.400  1.0753 -0.1170  0.5947
  764TIP3    H226488   3.603   6.318  18.496 -1.0178 -1.4008  0.2059
  765TIP3   OH226489   0.874   1.292  18.872 -0.0212  0.1656 -0.4882
  765TIP3    H126490   0.945   1.313  18.812 -0.5967 -0.4937 -1.4082
  765TIP3    H226491   0.795   1.297  18.819 -0.6293  0.4624  0.4254
  766TIP3   OH226492   0.573   5.145  20.341 -0.1675  0.0812 -0.3456
  766TIP3    H126493   0.626   5.186  20.410  0.6667 -0.2120 -0.8042
  766TIP3    H226494   0.483   5.157  20.371  0.1818 -0.1362  0.8581
  767TIP3   OH226495   2.987   1.841  20.155  0.3400 -0.2110 -0.5931
  767TIP3    H126496   3.071   1.858  20.196 -0.1420  1.7594 -0.3328
  767TIP3    H226497   2.930   1.911  20.187 -1.1552 -0.9967 -1.4425
  768TIP3   OH226498   6.082   4.366  20.152  0.1450 -0.1819  0.2777
  768TIP3    H126499   6.016   4.433  20.135 -1.1393 -1.8251 -1.6203
  768TIP3    H226500   6.073   4.346  20.245 -0.0756  1.5727  0.6640
  769TIP3   OH226501   4.099   0.716  20.532 -0.0026  0.4272  0.1012
  769TIP3    H126502   4.132   0.795  20.575  0.0121 -0.2746  1.4277
  769TIP3    H226503   4.004   0.723  20.541 -0.0286  0.5586 -0.2701
  770TIP3   OH226504   0.848   0.172  17.412  0.1857  0.4238 -0.6605
  770TIP3    H126505   0.771   0.166  17.468  1.1254  0.3429  0.6807
  770TIP3    H226506   0.852   0.264  17.386  0.4895  0.7709  0.5578
  771TIP3   OH226507   5.344   0.698  18.044  0.1556 -0.1120 -0.5954
  771TIP3    H126508   5.294   0.717  17.964  0.5933  0.1415 -0.8123
  771TIP3    H226509   5.426   0.660  18.012  0.1067 -0.5250 -0.2420
  772TIP3   OH226510   5.285   4.965  20.802 -0.6203  1.0125 -0.0097
  772TIP3    H126511   5.365   4.929  20.840 -1.3673  0.9229  1.5457
  772TIP3    H226512   5.281   4.927  20.714  0.3541 -0.0262  0.3703
  773TIP3   OH226513   2.619   2.265  19.895 -0.0933 -0.2757 -0.5757
  773TIP3    H126514   2.588   2.317  19.821 -0.7598  2.9875  1.7563
  773TIP3    H226515   2.540   2.221  19.928 -0.2731  0.1480 -0.4327
  774TIP3   OH226516   4.941   6.086  19.427  0.4008 -0.5737 -0.6374
  774TIP3    H126517   4.911   6.147  19.494 -0.9821 -0.7491 -1.0670
  774TIP3    H226518   4.902   6.002  19.451 -1.7394 -0.2610 -2.6366
  775TIP3   OH226519   2.089   4.637  19.315  0.0202 -0.3113  0.1614
  775TIP3    H126520   2.153   4.673  19.254  0.9593 -1.5060  0.4173
  775TIP3    H226521   2.049   4.564  19.269  1.6583 -2.0594  1.3658
  776TIP3   OH226522   3.246   1.744  18.345 -0.0328  0.6433 -0.2280
  776TIP3    H126523   3.329   1.710  18.310 -0.7745 -1.3824 -0.1928
  776TIP3    H226524   3.217   1.807  18.279  0.2182 -0.6770 -1.6930
  777TIP3   OH226525   2.481   4.405  20.073  0.7564  0.4432 -0.0674
  777TIP3    H126526   2.566   4.366  20.096  0.8470  0.8675  0.3429
  777TIP3    H226527   2.504   4.487  20.029  0.5666  0.1050 -0.8130
  778TIP3   OH226528   2.551   0.897  20.431 -0.0957  0.0186  0.6724
  778TIP3    H126529   2.610   0.836  20.475 -1.4570 -1.5686  0.4434
  778TIP3    H226530   2.607   0.969  20.402  1.4506 -0.7250  1.6773
  779TIP3   OH226531   2.758   5.406  17.589 -0.1388 -0.8287  0.3944
  779TIP3    H126532   2.721   5.331  17.542  2.0016 -1.5305 -0.2782
  779TIP3    H226533   2.710   5.482  17.554 -2.1968 -1.7993  0.9407
  780TIP3   OH226534   6.744   2.979  19.312 -0.0164  0.2270  0.5807
  780TIP3    H126535   6.789   2.918  19.253 -2.7207 -1.6314  0.2587
  780TIP3    H226536   6.753   2.940  19.398 -0.8439 -0.0694  0.5370
  781TIP3   OH226537   5.864   3.886  19.689 -0.4048  0.4153  0.0877
  781TIP3    H126538   5.825   3.908  19.774 -1.3370 -0.6450 -0.0547
  781TIP3    H226539   5.813   3.812  19.657  1.1283 -0.4062 -0.5500
  782TIP3   OH226540   0.654   4.645  18.471 -0.0346  0.2371  0.5128
  782TIP3    H126541   0.722   4.669  18.408 -0.0443 -0.0825  0.3756
  782TIP3    H226542   0.662   4.709  18.542 -0.7920  1.3277 -0.3535
  783TIP3   OH226543   2.324   0.578  20.091  0.2680 -0.6292 -0.1108
  783TIP3    H126544   2.366   0.584  20.006 -0.4538 -0.7511 -0.4798
  783TIP3    H226545   2.300   0.486  20.100 -2.9060 -0.0314 -1.3831
  784TIP3   OH226546   0.298   2.371  17.837 -0.9916  0.1995 -0.0220
  784TIP3    H126547   0.346   2.292  17.812  1.4058  1.7217 -0.5615
  784TIP3    H226548   0.214   2.364  17.792 -0.4920 -1.6164 -0.7414
  785TIP3   OH226549   6.081   5.964  19.204 -0.0918  0.6609  0.0501
  785TIP3    H126550   6.096   6.055  19.179 -0.6285  0.6286 -0.4113
  785TIP3    H226551   6.008   5.968  19.266 -0.4451  0.4988 -0.3554
  786TIP3   OH226552   4.700   0.673  19.801 -0.6669  0.9388 -0.0593
  786TIP3    H126553   4.627   0.616  19.775  0.2851 -0.5436  0.3609
  786TIP3    H226554   4.725   0.640  19.888  0.0728  1.8747  0.0897
  787TIP3   OH226555   5.898   0.567  18.901  0.1472 -0.5659  0.1970
  787TIP3    H126556   5.959   0.553  18.973 -0.3801 -0.3803  0.6762
  787TIP3    H226557   5.824   0.509  18.919 -0.4006  0.1463  0.2934
  788TIP3   OH226558   4.728   6.202  19.893  0.1757  0.0013  0.5880
  788TIP3    H126559   4.635   6.224  19.896 -0.3291 -2.0146  1.2994
  788TIP3    H226560   4.770   6.272  19.943 -1.1579  0.1389  1.6003
  789TIP3   OH226561   1.638   1.391  20.331 -0.0793 -0.4785  0.1522
  789TIP3    H126562   1.663   1.482  20.345  0.8063 -0.5377 -0.8891
  789TIP3    H226563   1.720   1.342  20.339 -0.9065 -1.5895  3.4330
  790TIP3   OH226564   3.748   4.459  17.778  0.3670  0.0918 -0.3645
  790TIP3    H126565   3.779   4.529  17.836  1.9132  0.9969 -2.1562
  790TIP3    H226566   3.823   4.400  17.770 -0.6317 -1.3107  0.4114
  791TIP3   OH226567   2.812   1.973  18.558  0.3324  0.0270  0.3225
  791TIP3    H126568   2.747   1.909  18.587 -1.1267  1.8262  1.2174
  791TIP3    H226569   2.835   2.021  18.638  0.9486  0.9940 -0.4245
  792TIP3   OH226570   1.800   4.317  18.995 -0.2037  0.3422 -0.2113
  792TIP3    H126571   1.788   4.379  18.923  1.7041  0.9011 -0.0968
  792TIP3    H226572   1.850   4.245  18.957  0.1712  0.2888  0.3668
  793TIP3   OH226573   6.048   2.475  20.440  0.5448  0.1125 -0.2350
  793TIP3    H126574   6.127   2.468  20.493 -0.0125 -0.3442  0.5713
  793TIP3    H226575   6.019   2.566  20.453  1.0103  0.3248 -0.6545
  794TIP3   OH226576   1.207   5.977  19.632 -0.4999  0.0387 -0.0221
  794TIP3    H126577   1.153   5.944  19.561 -0.6144 -1.9288  0.9178
  794TIP3    H226578   1.294   5.940  19.615 -0.2155  0.5822  0.2029
  795TIP3   OH226579   0.937   2.138  17.787 -0.1987  0.1511  0.2622
  795TIP3    H126580   0.928   2.129  17.882 -2.1690  1.5471  0.2773
  795TIP3    H226581   1.015   2.193  17.776  0.1470 -0.1667  1.0566
  796TIP3   OH226582   2.359   2.200  17.795 -0.3233 -0.3491 -0.7453
  796TIP3    H126583   2.382   2.271  17.734  1.3067 -0.6728 -0.5571
  796TIP3    H226584   2.411   2.219  17.873 -0.3321 -1.4201 -0.4754
  797TIP3   OH226585   3.125   5.422  20.786  0.4404 -0.1953  0.6564
  797TIP3    H126586   3.151   5.340  20.743 -1.6746 -0.1928 -0.8181
  797TIP3    H226587   3.029   5.419  20.786  0.2995  2.3343  0.4622
  798TIP3   OH226588   5.352   0.100  18.758  0.2678 -0.3320  0.4651
  798TIP3    H126589   5.372   0.193  18.759 -2.0799  0.2344  1.0783
  798TIP3    H226590   5.434   0.058  18.785  0.8321  1.6765  2.2053
  799TIP3   OH226591   0.860   5.234  17.791 -0.3068  0.0047  0.1783
  799TIP3    H126592   0.923   5.204  17.725 -1.1546 -0.4309 -0.4432
  799TIP3    H226593   0.908   5.227  17.874  0.3960 -0.5175 -0.2592
  800TIP3   OH226594   1.616   3.732  18.389  0.1912  0.5137  0.2196
  800TIP3    H126595   1.634   3.652  18.339 -0.5835 -0.5717  1.5953
  800TIP3    H226596   1.535   3.765  18.352  0.4630  0.6083 -0.2947
  801TIP3   OH226597   5.641   1.497  16.998  0.0729  0.1945  0.3178
  801TIP3    H126598   5.549   1.524  16.994 -0.7093 -2.3545 -1.7512
  801TIP3    H226599   5.675   1.519  16.911  1.7749  1.9441  1.3471
  802TIP3   OH226600   4.954   5.733  19.214 -1.0546 -0.4239 -0.3654
  802TIP3    H126601   4.906   5.801  19.262  0.9107  0.4032  0.5665
  802TIP3    H226602   4.945   5.655  19.267 -1.2637 -0.2406 -0.1298
  803TIP3   OH226603   3.830   0.354  17.685  0.1067  0.0176 -0.1783
  803TIP3    H126604   3.849   0.434  17.733  0.3794 -0.0027 -0.2498
  803TIP3    H226605   3.830   0.380  17.593 -0.5898  0.0924 -0.1676
  804TIP3   OH226606   5.934   0.357  19.855 -0.0828  0.3036 -0.2775
  804TIP3    H126607   6.020   0.386  19.823  1.1371 -1.2422  1.3558
  804TIP3    H226608   5.929   0.265  19.829 -0.6462  0.0167  0.8104
  805TIP3   OH226609   1.272   2.122  16.992 -0.3254  0.3495  0.2980
  805TIP3    H126610   1.333   2.072  16.938 -1.0518  0.5546 -0.7347
  805TIP3    H226611   1.186   2.107  16.953 -0.8013  0.9179  1.0887
  806TIP3   OH226612   2.508   3.416  20.816 -0.4771 -0.6528 -0.2138
  806TIP3    H126613   2.535   3.327  20.793  0.0283 -0.0654 -2.0854
  806TIP3    H226614   2.420   3.424  20.780 -1.2631 -0.9621  1.5623
  807TIP3   OH226615   0.693   4.272  19.146  0.0936 -0.3961  0.2322
  807TIP3    H126616   0.616   4.293  19.199  0.5557  0.3442  0.6339
  807TIP3    H226617   0.682   4.180  19.122 -0.0143 -0.8185  1.8127
  808TIP3   OH226618   2.999   4.457  18.105 -0.2242 -0.3393  0.0284
  808TIP3    H126619   3.011   4.363  18.093  3.7523 -0.3411  2.4639
  808TIP3    H226620   2.970   4.466  18.195 -0.0533  0.8069 -0.0166
  809TIP3   OH226621   3.142   4.310  17.590  0.1091 -0.2598 -0.3735
  809TIP3    H126622   3.139   4.397  17.629  2.6303 -0.4722  0.5081
  809TIP3    H226623   3.180   4.324  17.504  1.8053 -0.5576  0.2806
  810TIP3   OH226624   6.279   5.395  12.309  0.0373 -0.1591  0.0305
  810TIP3    H126625   6.240   5.318  12.351 -0.9410  0.5356  0.4193
  810TIP3    H226626   6.312   5.448  12.382  1.0958 -0.3954 -0.2569
  811TIP3   OH226627   0.027   4.738  19.396 -0.0442  0.1757 -0.8395
  811TIP3    H126628   0.010   4.826  19.431  0.6745  0.4049 -1.0464
  811TIP3    H226629   0.087   4.753  19.323  0.4668 -0.5333 -0.5732
  812TIP3   OH226630   1.486   5.238  18.066 -0.0845  0.0759 -0.2607
  812TIP3    H126631   1.485   5.149  18.029  0.2017  0.3048 -0.8337
  812TIP3    H226632   1.484   5.295  17.989 -1.9113  0.5906  0.1314
  813TIP3   OH226633   3.639   5.951  18.461  0.0824  0.4761 -0.3155
  813TIP3    H126634   3.735   5.961  18.464  0.0803  0.6322 -0.6521
  813TIP3    H226635   3.607   6.040  18.444 -0.1321  0.4447 -0.0874
  814TIP3   OH226636   6.388   2.195  17.891 -0.4352 -0.0225 -0.1305
  814TIP3    H126637   6.330   2.124  17.920 -0.8739 -0.1054 -1.1624
  814TIP3    H226638   6.342   2.275  17.915 -1.2341 -0.0836 -1.3611
  815TIP3   OH226639   6.604   0.560  17.702  0.3654 -0.4985 -0.2186
  815TIP3    H126640   6.673   0.510  17.745  0.5535 -0.6832 -0.7348
  815TIP3    H226641   6.634   0.651  17.706  0.0916 -0.4291  0.5906
  816TIP3   OH226642   0.333   5.481  19.114  0.3607  0.8077 -0.3516
  816TIP3    H126643   0.361   5.528  19.193  0.9425  0.6880 -0.4821
  816TIP3    H226644   0.366   5.392  19.127  0.7550  0.8740 -0.8806
  817TIP3   OH226645   6.204   0.346  19.853 -0.1501 -0.9402 -0.5992
  817TIP3    H126646   6.233   0.284  19.786 -2.6586 -0.9663 -1.7798
  817TIP3    H226647   6.282   0.399  19.873  1.6089 -3.2975 -0.8173
  818TIP3   OH226648   4.964   3.482  19.012 -0.4150  0.1974 -0.5851
  818TIP3    H126649   4.974   3.445  19.100 -0.9452 -0.7756 -0.9153
  818TIP3    H226650   4.896   3.428  18.971  1.3717 -0.8524 -2.3530
  819TIP3   OH226651   3.397   2.873  18.387 -0.1324  0.1315 -0.2205
  819TIP3    H126652   3.437   2.956  18.415  0.2649 -0.1083 -0.0680
  819TIP3    H226653   3.470   2.822  18.351 -0.4154 -0.0669 -0.5218
  820TIP3   OH226654   3.364   0.504  19.485  0.3866  1.0717 -0.1291
  820TIP3    H126655   3.292   0.557  19.452  0.3474 -0.3406 -2.5145
  820TIP3    H226656   3.366   0.427  19.428  3.2655  0.6787  0.3361
  821TIP3   OH226657   2.652   2.914  18.747 -0.1510 -0.3816 -0.0921
  821TIP3    H126658   2.611   2.874  18.825 -1.1479  2.1602  0.7870
  821TIP3    H226659   2.742   2.932  18.774  0.7389 -3.0301 -0.9411
  822TIP3   OH226660   5.680   4.577  20.636 -0.0899  0.8138 -0.4415
  822TIP3    H126661   5.681   4.518  20.712 -0.4869  2.0937  0.5922
  822TIP3    H226662   5.615   4.538  20.577  0.3342 -0.2805 -0.2167
  823TIP3   OH226663   3.320   6.499  19.188 -0.4776  0.0384  0.5320
  823TIP3    H126664   3.411   6.482  19.213 -0.6541  0.3965  1.4489
  823TIP3    H226665   3.309   6.451  19.105  0.5410 -0.0003  0.4010
  824TIP3   OH226666   4.860   2.011  20.787 -0.5888  0.0443 -0.3298
  824TIP3    H126667   4.792   2.051  20.732  0.4931 -0.1284 -1.8682
  824TIP3    H226668   4.862   2.065  20.866 -2.5185  0.0372 -0.2261
  825TIP3   OH226669   6.233   4.371  20.917  1.0892 -0.2933 -0.0840
  825TIP3    H126670   6.235   4.391  21.011  0.6311 -1.9190  0.3017
  825TIP3    H226671   6.140   4.378  20.894  1.2320  0.3459 -0.4862
  826TIP3   OH226672   5.095   0.064  18.637  0.1341 -0.7171 -0.2807
  826TIP3    H126673   5.109   0.152  18.601  0.6971 -0.9821 -0.7064
  826TIP3    H226674   5.171   0.049  18.693 -0.7472 -0.2965  1.0676
  827TIP3   OH226675   4.018   1.632  20.025 -0.4843  0.3866  0.5152
  827TIP3    H126676   3.949   1.679  20.073 -0.0284  1.3166  0.3012
  827TIP3    H226677   4.062   1.701  19.975 -0.1414 -0.3770 -0.2480
  828TIP3   OH226678   3.327   1.764  19.482  0.6312  0.3563 -0.0525
  828TIP3    H126679   3.309   1.825  19.553  1.9873  1.9911 -1.0086
  828TIP3    H226680   3.418   1.737  19.495  0.4537 -0.4459 -0.3805
  829TIP3   OH226681   3.191   3.648  18.746  0.5333 -0.2061 -0.0390
  829TIP3    H126682   3.283   3.672  18.735  0.5029  0.6327  1.3327
  829TIP3    H226683   3.167   3.606  18.664  1.8240  0.5776 -0.8407
  830TIP3   OH226684   1.399   2.072  17.778  0.2149 -0.0900  0.3169
  830TIP3    H126685   1.488   2.069  17.814  0.0683  1.4848  0.9271
  830TIP3    H226686   1.378   1.982  17.757  2.4588 -0.3559 -1.1161
  831TIP3   OH226687   2.979   2.201  17.612 -0.0300  0.2103 -0.1499
  831TIP3    H126688   3.029   2.235  17.537  0.4922 -1.4308 -0.5892
  831TIP3    H226689   3.008   2.253  17.686 -0.0939  1.4576 -0.9627
  832TIP3   OH226690   3.455   0.970  18.836  0.1536  0.5453  0.1991
  832TIP3    H126691   3.386   1.036  18.846  0.1670  1.1062 -2.7189
  832TIP3    H226692   3.537   1.019  18.842  0.2513  0.3455  0.6079
  833TIP3   OH226693   4.355   6.087  20.617 -0.2987 -0.0467 -0.0921
  833TIP3    H126694   4.280   6.105  20.675 -0.4775 -0.0346 -0.3243
  833TIP3    H226695   4.404   6.168  20.615  0.1035 -0.2656  0.6175
  834TIP3   OH226696   0.224   1.399  19.482 -0.5917  0.1263 -0.2068
  834TIP3    H126697   0.277   1.418  19.560 -2.6968  1.3328  1.0394
  834TIP3    H226698   0.230   1.304  19.472 -1.2295 -0.2564  2.2449
  835TIP3   OH226699   1.990   0.091  18.542 -0.4556 -0.2050  0.2092
  835TIP3    H126700   1.990   0.140  18.460 -0.1836 -2.0423 -0.9274
  835TIP3    H226701   2.042   0.145  18.601 -1.4084  1.5955 -0.5090
  836TIP3   OH226702   6.569   1.290  18.195 -0.1109  0.4343 -0.0232
  836TIP3    H126703   6.481   1.255  18.179  0.2526 -0.3675 -0.3562
  836TIP3    H226704   6.625   1.242  18.133  0.7089  0.2237  0.8658
  837TIP3   OH226705   3.430   3.849  18.692  0.0872 -0.0284 -0.3428
  837TIP3    H126706   3.399   3.889  18.611 -0.0237 -0.9193 -0.7472
  837TIP3    H226707   3.512   3.895  18.712  0.0753  0.2447 -0.9122
  838TIP3   OH226708   6.621   1.531  19.426 -0.2762 -0.1682 -0.2225
  838TIP3    H126709   6.651   1.454  19.475 -0.6877 -0.9994 -1.2367
  838TIP3    H226710   6.556   1.571  19.483  0.0413 -0.4904  0.3803
  839TIP3   OH226711   0.386   5.714  18.258 -0.0536 -0.3872 -0.1944
  839TIP3    H126712   0.317   5.665  18.303  0.0992 -0.3121  0.1224
  839TIP3    H226713   0.468   5.681  18.296  0.0148  1.3256  1.3154
  840TIP3   OH226714   1.989   2.390  18.797 -0.3320 -0.0391  0.9077
  840TIP3    H126715   2.021   2.406  18.886  3.4286 -0.1049 -0.2773
  840TIP3    H226716   1.952   2.301  18.801  3.3526 -1.7047  1.7011
  841TIP3   OH226717   0.748   1.149  19.347  0.4716  0.3219  0.0600
  841TIP3    H126718   0.828   1.099  19.328 -0.0459 -0.8191  0.7506
  841TIP3    H226719   0.715   1.177  19.262  1.4414  0.5506 -0.2508
  842TIP3   OH226720   2.293   4.791  20.004  0.0828  0.1025 -0.0046
  842TIP3    H126721   2.340   4.784  20.087 -1.5933  0.5065  1.0284
  842TIP3    H226722   2.301   4.883  19.980  1.3384 -0.1897 -0.8019
  843TIP3   OH226723   3.491   1.523  19.875 -0.4112  0.0559 -0.4480
  843TIP3    H126724   3.401   1.499  19.897 -0.7242  1.3208 -0.2470
  843TIP3    H226725   3.492   1.528  19.780  0.1468 -2.4370 -0.6507
  844TIP3   OH226726   1.496   0.546  19.926 -0.2046  0.1531  0.3589
  844TIP3    H126727   1.543   0.616  19.971 -0.4043  0.6379 -0.1705
  844TIP3    H226728   1.565   0.486  19.897  0.0992  0.8299 -0.3666
  845TIP3   OH226729   2.867   6.181  20.006  0.1520 -0.0497  0.6282
  845TIP3    H126730   2.791   6.170  19.949 -0.3554 -0.0932  1.2924
  845TIP3    H226731   2.872   6.098  20.054  1.0121 -0.2922  0.1330
  846TIP3   OH226732   6.098   5.359  18.901  0.0379  0.6739 -0.2362
  846TIP3    H126733   6.191   5.377  18.907  0.1033  0.0802  0.9006
  846TIP3    H226734   6.060   5.435  18.857  1.4428 -0.4111 -3.6920
  847TIP3   OH226735   5.698   3.310  18.610  0.5938  0.0717 -0.1640
  847TIP3    H126736   5.643   3.283  18.537  0.7890  1.2669 -0.7804
  847TIP3    H226737   5.728   3.398  18.586  0.8688  0.3789  1.2422
  848TIP3   OH226738   3.229   2.101  17.696 -0.2318  0.2032 -0.1127
  848TIP3    H126739   3.249   2.187  17.659 -0.1988  0.3858  0.3256
  848TIP3    H226740   3.157   2.068  17.642 -1.5815  1.3488  0.9174
  849TIP3   OH226741   4.647   4.266  17.910 -0.4892  0.0525 -0.2112
  849TIP3    H126742   4.725   4.306  17.872 -0.0550  0.1944  0.7826
  849TIP3    H226743   4.663   4.270  18.005 -1.8429  0.3688  0.0148
  850TIP3   OH226744   2.039   6.159  18.232 -0.2411  0.0538  0.1966
  850TIP3    H126745   2.034   6.081  18.287  0.2191 -0.2921 -0.2502
  850TIP3    H226746   1.949   6.192  18.230 -0.6678 -1.0886 -0.5196
  851TIP3   OH226747   4.407   4.885  20.732 -0.2629  0.2930  0.1500
  851TIP3    H126748   4.493   4.844  20.742 -1.0101 -1.1631  0.9562
  851TIP3    H226749   4.420   4.975  20.760  0.5722 -0.4549  2.3570
  852TIP3   OH226750   1.094   5.484  18.069  0.4121  0.4747 -0.0166
  852TIP3    H126751   1.131   5.424  18.005  0.4690  0.5322 -0.0374
  852TIP3    H226752   1.134   5.459  18.152 -1.2062 -1.0025  0.4072
  853TIP3   OH226753   4.742   2.135  18.010 -0.2764  0.8997  0.2512
  853TIP3    H126754   4.837   2.145  18.013  0.0189 -1.0260 -0.6925
  853TIP3    H226755   4.726   2.054  18.059 -1.3673  0.9423 -0.0206
  854TIP3   OH226756   2.373   5.317  19.473 -0.6533 -0.0413 -0.2891
  854TIP3    H126757   2.285   5.351  19.484 -0.6218  0.2798 -0.9998
  854TIP3    H226758   2.430   5.391  19.492 -0.5916  0.4459 -2.2183
  855TIP3   OH226759   4.557   5.196  20.440  0.3539 -0.7252  0.6106
  855TIP3    H126760   4.533   5.288  20.438  1.3457 -0.4397  1.4363
  855TIP3    H226761   4.616   5.187  20.515  0.3187 -2.0194  0.5171
  856TIP3   OH226762   4.886   6.430  18.533  0.3823  0.2443 -0.2567
  856TIP3    H126763   4.963   6.374  18.528  0.7880  0.8731 -1.5068
  856TIP3    H226764   4.910   6.500  18.593  1.3352  1.1938 -1.6720
  857TIP3   OH226765   6.518   2.206  19.059 -0.5617 -0.2620  0.3765
  857TIP3    H126766   6.470   2.273  19.010 -0.7772  0.3035  1.3308
  857TIP3    H226767   6.605   2.206  19.020 -0.4881  0.7419  0.5057
  858TIP3   OH226768   2.109   5.704  18.234 -0.5461 -0.1445 -0.0182
  858TIP3    H126769   2.184   5.661  18.192 -0.2835 -1.2508  1.4839
  858TIP3    H226770   2.033   5.676  18.183 -0.2887 -1.7939  0.4391
  859TIP3   OH226771   3.364   4.120  17.941  0.8003 -0.0299 -0.5430
  859TIP3    H126772   3.459   4.128  17.940  0.9445 -1.4273 -2.1215
  859TIP3    H226773   3.338   4.147  18.029  2.7016 -0.1768  0.0939
  860TIP3   OH226774   3.509   6.543  20.847  0.2916 -0.4071  0.1496
  860TIP3    H126775   3.599   6.575  20.837  0.3876 -0.6047  0.3938
  860TIP3    H226776   3.455   6.621  20.833  0.4949 -0.3071 -0.1006
  861TIP3   OH226777   1.158   5.412  20.433 -0.2218 -0.7770  0.0748
  861TIP3    H126778   1.184   5.370  20.515 -1.3296  1.0180  1.4111
  861TIP3    H226779   1.120   5.340  20.381 -0.2713 -1.8031  1.4650
  862TIP3   OH226780   3.424   0.590  19.884 -0.0065  0.1988 -0.2511
  862TIP3    H126781   3.332   0.585  19.856  0.3361  0.0219 -1.4031
  862TIP3    H226782   3.472   0.545  19.815  0.9163 -0.0693  0.5481
  863TIP3   OH226783   1.424   4.170  19.966  0.0267  0.3920 -0.1937
  863TIP3    H126784   1.467   4.085  19.965 -1.0808 -0.1787 -0.6253
  863TIP3    H226785   1.471   4.221  19.900  2.6365  1.1594  2.0500
  864TIP3   OH226786   4.973   4.260  18.776  0.4055 -0.4164 -0.0030
  864TIP3    H126787   5.029   4.184  18.792 -1.2420 -1.4227  1.2693
  864TIP3    H226788   4.892   4.223  18.741 -0.5020  0.7194  0.8293
  865TIP3   OH226789   3.625   1.775  18.425 -0.1456  0.4192 -0.3287
  865TIP3    H126790   3.568   1.819  18.487 -0.6902  1.3843 -1.4886
  865TIP3    H226791   3.578   1.695  18.401 -0.4345  0.5921 -0.3366
  866TIP3   OH226792   1.167   1.877  19.773 -0.2506 -0.4592 -0.5354
  866TIP3    H126793   1.146   1.854  19.863  1.5915  0.1313  0.0880
  866TIP3    H226794   1.191   1.969  19.776 -0.7358 -0.2756 -1.7350
  867TIP3   OH226795   3.670   6.222  18.636 -0.0457 -0.4026  0.1598
  867TIP3    H126796   3.630   6.227  18.723 -1.1453 -0.9798 -0.2965
  867TIP3    H226797   3.763   6.239  18.652 -0.5441  1.7685  1.1548
  868TIP3   OH226798   0.583   6.420  19.738 -0.1877 -0.0674 -0.2584
  868TIP3    H126799   0.643   6.453  19.805  1.3082  1.1866 -2.1142
  868TIP3    H226800   0.497   6.449  19.766  0.3584  0.2420  1.2071
  869TIP3   OH226801   4.164   0.686  18.330  0.0167  0.7407 -0.8448
  869TIP3    H126802   4.241   0.721  18.286  1.6272  0.6442  1.6720
  869TIP3    H226803   4.122   0.763  18.370  1.1317  0.3922  1.1104
  870TIP3   OH226804   4.052   2.511  20.820 -0.0219  0.1908 -0.4423
  870TIP3    H126805   4.023   2.588  20.869  1.0848  2.1216 -2.6014
  870TIP3    H226806   3.972   2.461  20.805 -0.5286 -0.0465  2.4354
  871TIP3   OH226807   1.217   2.669  18.562  0.1395  0.1526  0.1259
  871TIP3    H126808   1.279   2.603  18.531 -0.2407 -1.2194  2.1375
  871TIP3    H226809   1.231   2.744  18.504  0.6988 -1.6092 -2.1320
  872TIP3   OH226810   5.620   3.334  20.138  0.1311 -0.3551 -0.0047
  872TIP3    H126811   5.708   3.349  20.172  0.2460 -0.6504 -0.1626
  872TIP3    H226812   5.584   3.264  20.193 -0.6376  0.8840  1.1337
  873TIP3   OH226813   6.459   5.792  18.129  0.0592 -0.2144 -0.3779
  873TIP3    H126814   6.549   5.826  18.135  0.5020 -0.8461 -2.3916
  873TIP3    H226815   6.465   5.702  18.159 -0.4766  0.4598  1.9397
  874TIP3   OH226816   2.983   0.631  17.816  0.3182 -0.5778 -0.1189
  874TIP3    H126817   3.043   0.558  17.832  1.3046 -0.1848 -1.7444
  874TIP3    H226818   2.903   0.590  17.783  1.0618 -0.9235 -1.5477
  875TIP3   OH226819   3.394   6.171  19.791  0.1853  0.1321  0.1681
  875TIP3    H126820   3.302   6.147  19.779  0.5655 -1.9929  0.9365
  875TIP3    H226821   3.397   6.214  19.876 -0.1827  0.7978 -0.1499
  876TIP3   OH226822   0.519   5.029  20.721  0.5709  0.4753  0.0842
  876TIP3    H126823   0.455   4.961  20.701  0.3485  0.4368  0.8689
  876TIP3    H226824   0.467   5.103  20.752  0.6875  1.6116 -2.2484
  877TIP3   OH226825   4.725   0.624  20.765  0.1363 -0.1390  0.0688
  877TIP3    H126826   4.818   0.604  20.776  0.2410  1.2646  2.4849
  877TIP3    H226827   4.683   0.538  20.755  1.5238 -0.9257  0.7054
  878TIP3   OH226828   5.187   3.714  20.405  0.2133 -0.3631 -0.1199
  878TIP3    H126829   5.106   3.668  20.381  0.6132 -0.5206 -1.2020
  878TIP3    H226830   5.257   3.655  20.378  0.7223  0.6589 -1.0633
  879TIP3   OH226831   5.191   6.158  19.434  0.1192  0.0453 -0.7375
  879TIP3    H126832   5.099   6.132  19.442  0.0237  0.6516  0.3625
  879TIP3    H226833   5.238   6.099  19.493  0.3636  0.0710 -0.9050
  880TIP3   OH226834   3.548   0.203  20.433 -0.3801 -0.3003 -0.1013
  880TIP3    H126835   3.592   0.288  20.436  0.9612 -1.0017  0.6729
  880TIP3    H226836   3.605   0.148  20.378 -0.9706 -0.8496 -0.1795
  881TIP3   OH226837   3.628   5.083  20.288 -0.7445 -0.6199  0.5571
  881TIP3    H126838   3.705   5.039  20.324 -1.2741 -1.4599  0.7033
  881TIP3    H226839   3.620   5.049  20.199  0.7344  1.6745 -0.5547
  882TIP3   OH226840   4.415   3.168  18.779  0.1728 -0.6323  0.5833
  882TIP3    H126841   4.478   3.232  18.745 -1.1610  0.0025 -0.7723
  882TIP3    H226842   4.329   3.207  18.764 -0.8101 -3.3529 -1.7277
  883TIP3   OH226843   4.519   1.595  18.640  0.3296 -0.8870 -0.0141
  883TIP3    H126844   4.435   1.564  18.607  0.5990  0.8381 -2.6718
  883TIP3    H226845   4.583   1.561  18.578  0.8693  2.6530 -1.6768
  884TIP3   OH226846   1.812   5.766  17.272 -0.0209 -0.2175  0.2260
  884TIP3    H126847   1.896   5.773  17.226 -0.8558  1.0279 -1.1836
  884TIP3    H226848   1.837   5.760  17.365  1.6370 -0.4603 -0.1976
  885TIP3   OH226849   2.038   0.008  19.681  0.3661  0.0530  0.1700
  885TIP3    H126850   2.066   0.024  19.771 -0.5171 -0.0716  0.4688
  885TIP3    H226851   2.000   0.091  19.652  0.4429  0.0255 -0.0117
  886TIP3   OH226852   2.051   5.775  19.975 -1.1307 -0.3029 -0.3435
  886TIP3    H126853   1.980   5.767  20.039 -0.5158 -0.7109  0.3011
  886TIP3    H226854   2.092   5.689  19.974 -1.3152 -0.3902 -1.5186
  887TIP3   OH226855   5.842   2.437  17.526  0.1470 -0.0790 -0.0607
  887TIP3    H126856   5.780   2.510  17.526  0.9914  0.6592  0.1964
  887TIP3    H226857   5.922   2.474  17.489  1.1968 -0.3249  1.8330
  888TIP3   OH226858   2.374   3.025  18.656  0.4081 -0.0914  0.2541
  888TIP3    H126859   2.338   2.936  18.654  0.0027  0.0734  0.0273
  888TIP3    H226860   2.413   3.033  18.743  0.1663 -0.3813  0.3917
  889TIP3   OH226861   5.250   5.004  20.159  0.4937 -0.4027  0.0223
  889TIP3    H126862   5.215   5.060  20.089 -3.1174  1.0253  2.6807
  889TIP3    H226863   5.197   4.924  20.154  0.5374 -0.4856  0.8434
  890TIP3   OH226864   3.179   5.675  19.636  0.2975  0.0323 -0.1778
  890TIP3    H126865   3.139   5.762  19.633  0.6698  0.1869 -1.8512
  890TIP3    H226866   3.130   5.624  19.572  0.0795 -1.0185  0.7969
  891TIP3   OH226867   0.284   4.444  17.641  0.1313 -0.0555 -0.2706
  891TIP3    H126868   0.283   4.458  17.736 -0.2294 -0.8810 -0.1451
  891TIP3    H226869   0.210   4.385  17.625  2.0068 -2.4722 -0.6542
  892TIP3   OH226870   5.917   1.333  18.642 -0.4717  0.0575 -0.1154
  892TIP3    H126871   5.898   1.425  18.626 -0.7639 -0.0047 -0.1354
  892TIP3    H226872   6.012   1.330  18.656 -0.7333  0.6770  2.1243
  893TIP3   OH226873   2.478   6.335  18.204  0.1364  0.3653 -0.0397
  893TIP3    H126874   2.483   6.392  18.127 -2.1756 -1.1454 -1.4311
  893TIP3    H226875   2.512   6.389  18.276 -0.9068  3.1366 -1.4670
  894TIP3   OH226876   1.455   3.783  18.025  0.1594  0.7799  0.1538
  894TIP3    H126877   1.506   3.835  17.964  0.8758  1.5283  1.3685
  894TIP3    H226878   1.484   3.693  18.010 -0.5177  0.7795 -1.3968
  895TIP3   OH226879   5.384   0.207  19.484 -0.3638  0.1210  0.2696
  895TIP3    H126880   5.445   0.155  19.432 -0.4178  0.0784  0.2493
  895TIP3    H226881   5.440   0.268  19.533 -0.3242  0.2586  0.0530
  896TIP3   OH226882   2.921   5.942  18.490  0.4788 -0.0984  0.0351
  896TIP3    H126883   2.914   5.866  18.548  0.1282 -1.1577 -1.3509
  896TIP3    H226884   2.832   5.977  18.486  0.7941  0.9539  1.3523
  897TIP3   OH226885   1.221   0.018  20.403  0.3727 -0.0712 -0.0563
  897TIP3    H126886   1.146  -0.020  20.358  0.3633  1.4519 -1.4185
  897TIP3    H226887   1.215  -0.017  20.492 -0.8375 -1.4829 -0.6455
  898TIP3   OH226888   4.611   4.846  18.726  0.5829 -0.3904 -0.0691
  898TIP3    H126889   4.601   4.937  18.756 -2.9207 -0.2937 -1.1490
  898TIP3    H226890   4.535   4.801  18.762  0.0206 -1.8930 -2.9305
  899TIP3   OH226891   4.108   3.181  18.218 -0.0637 -0.0823  0.3222
  899TIP3    H126892   4.130   3.090  18.238  0.6086 -0.0836 -0.3812
  899TIP3    H226893   4.016   3.177  18.191 -0.0929 -0.5307  0.4782
  900TIP3   OH226894   3.757   3.574  20.450 -0.7635  0.3846  0.1255
  900TIP3    H126895   3.780   3.548  20.361  0.4395 -0.3921  0.6283
  900TIP3    H226896   3.672   3.533  20.466  0.7180 -2.8076  0.6222
  901TIP3   OH226897   1.631   1.407  17.944  0.4215 -0.1999 -0.9160
  901TIP3    H126898   1.624   1.314  17.924 -1.0900 -0.3673  0.2075
  901TIP3    H226899   1.697   1.412  18.013  1.5907 -0.2316 -1.9857
  902TIP3   OH226900   5.161   0.228  20.652  0.0201  0.4378 -0.3319
  902TIP3    H126901   5.102   0.297  20.679 -1.9130 -1.3040  0.1469
  902TIP3    H226902   5.132   0.204  20.564 -0.5488 -0.9287  0.1890
  903TIP3   OH226903   0.349   1.901  18.464  0.4646 -0.1461  0.3514
  903TIP3    H126904   0.359   1.857  18.380 -0.3680 -1.5925  0.9671
  903TIP3    H226905   0.259   1.933  18.464  0.2435 -0.7347  0.9280
  904TIP3   OH226906   5.180   0.646  20.209 -0.5336 -0.1165 -0.0211
  904TIP3    H126907   5.191   0.726  20.157  0.1251 -0.1158  0.1141
  904TIP3    H226908   5.247   0.653  20.277 -0.9719 -0.4228  0.4445
  905TIP3   OH226909   5.064   5.745  20.360  0.1403 -0.1964  0.2050
  905TIP3    H126910   5.001   5.717  20.293  0.1408 -1.7892  0.8227
  905TIP3    H226911   5.149   5.723  20.323  0.1264 -1.3628  0.8229
  906TIP3   OH226912   4.569   4.935  20.276  0.3895 -0.1628  0.3736
  906TIP3    H126913   4.480   4.900  20.285 -0.5863  1.6394 -1.5400
  906TIP3    H226914   4.580   4.991  20.353  0.2906 -1.1502  1.1327
  907TIP3   OH226915   3.971   4.220  19.536 -0.0572 -0.2430  0.0522
  907TIP3    H126916   4.031   4.294  19.522 -0.9069  0.5015  0.2509
  907TIP3    H226917   3.928   4.208  19.451 -0.2490 -0.2107  0.1445
  908TIP3   OH226918   2.541   0.310  17.426  0.0974 -0.1660  0.6115
  908TIP3    H126919   2.627   0.270  17.442  2.2722  3.1127 -1.7451
  908TIP3    H226920   2.505   0.260  17.353 -0.5935 -2.1622  2.2012
  909TIP3   OH226921   5.335   2.961  18.302 -0.1571  0.2178 -0.0799
  909TIP3    H126922   5.374   2.927  18.222 -0.1015 -1.6568  0.7011
  909TIP3    H226923   5.331   3.056  18.288  1.3932  0.1037 -1.6012
  910TIP3   OH226924   6.610   3.779  19.692 -0.1038 -0.3800  0.3549
  910TIP3    H126925   6.690   3.767  19.743  0.4942  1.6885 -0.0009
  910TIP3    H226926   6.540   3.778  19.757  0.5548  1.2383  1.1514
  911TIP3   OH226927   3.781   3.733  18.439 -0.1730 -0.0513 -0.3078
  911TIP3    H126928   3.717   3.713  18.370 -0.7832 -0.5731  0.4002
  911TIP3    H226929   3.743   3.697  18.519  0.9679 -0.2816  0.1494
  912TIP3   OH226930   3.962   3.002  17.373 -0.4184  0.5624  0.3731
  912TIP3    H126931   3.987   2.947  17.298 -0.0509  0.3259  0.6619
  912TIP3    H226932   4.046   3.033  17.409 -0.5320 -0.1430  1.2889
  913TIP3   OH226933   0.862   0.159  19.591  0.4874 -0.1715 -0.0540
  913TIP3    H126934   0.920   0.177  19.664  1.1905 -0.3932 -0.5499
  913TIP3    H226935   0.828   0.246  19.566  1.4325  0.1030 -0.4333
  914TIP3   OH226936   6.359   5.407  18.902 -0.6725  0.0204 -0.1462
  914TIP3    H126937   6.329   5.486  18.947 -0.3617 -0.4951  1.0045
  914TIP3    H226938   6.442   5.385  18.943 -0.2114 -0.3053 -1.2006
  915TIP3   OH226939   3.538   0.418  19.045 -0.1120 -0.2502  0.2228
  915TIP3    H126940   3.547   0.425  18.949  0.1668  2.1687  0.3611
  915TIP3    H226941   3.451   0.454  19.064  0.2711  0.3373  0.9344
  916TIP3   OH226942   2.561   5.182  19.325  0.2158  0.8569  0.1827
  916TIP3    H126943   2.488   5.216  19.376 -0.8706 -0.0885 -0.6789
  916TIP3    H226944   2.532   5.190  19.234  1.0901  0.2668 -0.1631
  917TIP3   OH226945   0.788   5.926  18.815  0.4713 -0.5788 -0.6238
  917TIP3    H126946   0.762   5.849  18.764  1.8397 -1.3137 -0.2914
  917TIP3    H226947   0.719   5.990  18.800  0.0547 -1.3326 -2.1262
  918TIP3   OH226948   3.939   3.666  20.711 -0.6273  0.7344 -0.5126
  918TIP3    H126949   3.958   3.756  20.738  1.0842 -0.0681  1.2034
  918TIP3    H226950   3.851   3.670  20.673 -0.7639  3.0334 -0.1033
  919TIP3   OH226951   5.937   6.189  19.381 -0.0041  0.7506  0.9777
  919TIP3    H126952   5.942   6.277  19.417  0.4007  1.3706 -0.5079
  919TIP3    H226953   5.864   6.148  19.428 -0.0022  1.7631  1.9072
  920TIP3   OH226954   6.524   1.148  18.867  0.0600  0.6041 -0.5335
  920TIP3    H126955   6.562   1.066  18.898 -0.4602  0.1655 -1.0382
  920TIP3    H226956   6.435   1.147  18.903 -0.4941  0.1730 -1.8566
  921TIP3   OH226957   4.618   4.494  20.946  0.1820  0.2853  0.0348
  921TIP3    H126958   4.678   4.564  20.920  1.0041 -0.7007 -0.8294
  921TIP3    H226959   4.531   4.528  20.924  0.6945  0.3134 -2.2171
  922TIP3   OH226960   4.811   6.343  18.939 -0.4350  0.0359 -0.2888
  922TIP3    H126961   4.855   6.380  18.862 -2.0798 -0.4393 -1.4927
  922TIP3    H226962   4.718   6.356  18.923 -0.8508 -0.5942  1.3782
  923TIP3   OH226963   0.586   1.303  19.521 -0.7003  0.5261 -0.2279
  923TIP3    H126964   0.499   1.264  19.513 -1.0352  0.6416  2.1097
  923TIP3    H226965   0.643   1.244  19.473 -1.9346 -0.0305 -1.0551
  924TIP3   OH226966   4.020   3.161  19.813 -0.1686 -0.2705  0.0421
  924TIP3    H126967   4.084   3.231  19.800 -1.1436  0.4740 -1.0467
  924TIP3    H226968   4.072   3.084  19.837  0.8885  0.9240  1.7613
  925TIP3   OH226969   5.726   0.780  19.237 -0.4577 -0.1362  0.2777
  925TIP3    H126970   5.805   0.803  19.189 -0.7567 -0.4832 -0.3875
  925TIP3    H226971   5.756   0.725  19.309  0.2723  2.1032  1.8193
  926TIP3   OH226972   0.522   2.762  20.278  0.1103 -0.1280  0.0283
  926TIP3    H126973   0.611   2.754  20.314  0.4165 -1.1405 -0.8969
  926TIP3    H226974   0.470   2.699  20.328 -0.1483  0.6057  0.7033
  927TIP3   OH226975   4.673   0.630  17.934  0.1408 -0.2052  0.2819
  927TIP3    H126976   4.732   0.600  17.864 -0.8974  0.3844 -0.8904
  927TIP3    H226977   4.705   0.718  17.955  0.2112 -0.2257  0.2629
  928TIP3   OH226978   0.415   1.475  17.740  0.2373  0.1048 -0.1692
  928TIP3    H126979   0.367   1.517  17.668  1.3494  1.5071 -0.1295
  928TIP3    H226980   0.490   1.433  17.698  1.4014  1.6942  0.1976
  929TIP3   OH226981   3.984   0.503  19.078 -0.3622  0.0066 -0.5508
  929TIP3    H126982   4.045   0.557  19.028  0.5033 -0.5333 -0.1015
  929TIP3    H226983   4.022   0.500  19.166 -0.2780 -1.5051 -0.6239
  930TIP3   OH226984   1.298   1.042  17.140  0.1683  0.3248  0.2099
  930TIP3    H126985   1.312   1.131  17.107  2.0685 -0.5224 -1.4623
  930TIP3    H226986   1.386   1.006  17.150 -0.5808 -1.6121  0.2041
  931TIP3   OH226987   0.008   6.320  18.689 -0.1473 -0.4902  0.3252
  931TIP3    H126988  -0.088   6.318  18.688 -0.2154  1.2415  0.3374
  931TIP3    H226989   0.031   6.378  18.616  0.8427  0.1239  1.1126
  932TIP3   OH226990   1.772   0.440  19.918  0.1729 -0.2488 -0.1380
  932TIP3    H126991   1.863   0.424  19.942  0.0091  0.4132  1.0352
  932TIP3    H226992   1.740   0.356  19.885  1.4531 -0.2523 -1.4530
  933TIP3   OH226993   1.601   1.055  16.579  0.1548  0.2089  0.3123
  933TIP3    H126994   1.509   1.079  16.579  0.0951  0.1160  1.8592
  933TIP3    H226995   1.607   0.982  16.518 -0.8677 -0.0325  0.4842
  934TIP3   OH226996   4.532   1.179  18.944 -0.1918  0.1701 -0.2728
  934TIP3    H126997   4.535   1.211  18.854 -0.8291 -0.1537 -0.4137
  934TIP3    H226998   4.597   1.109  18.946 -0.2386  0.1175 -0.5071
  935TIP3   OH226999   6.012   4.215  20.730  0.6290  0.2200 -0.5612
  935TIP3    H127000   5.970   4.288  20.774 -1.3565 -0.2256 -1.6194
  935TIP3    H227001   6.065   4.256  20.661 -1.0586  0.6757 -1.6330
  936TIP3   OH227002   4.856   5.848  18.942 -0.0911  0.1230  0.2332
  936TIP3    H127003   4.830   5.758  18.919  0.6488  0.4553 -2.2566
  936TIP3    H227004   4.923   5.837  19.009 -0.4840 -1.1586  0.4453
  937TIP3   OH227005   3.145   1.342  19.515 -0.3023  0.6339 -0.0306
  937TIP3    H127006   3.133   1.247  19.512  0.3918  0.5613 -1.2873
  937TIP3    H227007   3.086   1.371  19.584 -0.6633 -0.6886  0.2576
  938TIP3   OH227008   1.143   3.619  19.099  0.4677  0.1823 -0.0810
  938TIP3    H127009   1.142   3.671  19.179 -0.5048 -0.5085  0.3645
  938TIP3    H227010   1.115   3.680  19.031  0.5573  0.5683  0.2263
  939TIP3   OH227011   5.343   3.087  20.787 -0.4109  0.2101  0.1267
  939TIP3    H127012   5.387   3.016  20.741 -0.9675 -0.4591  0.6008
  939TIP3    H227013   5.396   3.165  20.768  1.2320 -0.6321  1.0326
  940TIP3   OH227014   0.643   5.427  19.441  0.0917 -0.1142  0.4285
  940TIP3    H127015   0.584   5.491  19.402  0.1684 -0.3822 -0.1384
  940TIP3    H227016   0.722   5.430  19.386  0.2792 -0.3567  0.6797
  941TIP3   OH227017   6.210   4.224  18.268 -0.4535  0.6513  0.6338
  941TIP3    H127018   6.194   4.132  18.245 -0.7005  0.3406  2.0118
  941TIP3    H227019   6.181   4.272  18.191  1.8572 -0.5235 -1.1228
  942TIP3   OH227020   6.712   0.485  19.202  0.4090 -0.3009 -0.1119
  942TIP3    H127021   6.753   0.555  19.151  1.0769 -0.7336 -0.1664
  942TIP3    H227022   6.776   0.463  19.270  0.0832 -0.6712  0.0784
  943TIP3   OH227023   4.813   3.820  19.239  0.5852  0.2749  0.1447
  943TIP3    H127024   4.891   3.766  19.225  0.2888  0.1052 -1.0340
  943TIP3    H227025   4.832   3.902  19.193 -0.0264  0.1265 -0.3910
  944TIP3   OH227026   6.665   3.547  19.038  0.2381 -0.0768  0.0792
  944TIP3    H127027   6.733   3.486  19.008 -0.1700  0.0578 -1.1832
  944TIP3    H227028   6.640   3.514  19.124  0.5298 -1.2862 -0.2785
  945TIP3   OH227029   2.952   4.878  19.956  0.0302 -0.0234  0.0377
  945TIP3    H127030   2.914   4.900  20.042  1.0557 -0.2435  0.5673
  945TIP3    H227031   2.995   4.959  19.928 -0.6808  0.1819 -0.4910
  946TIP3   OH227032   2.725   4.701  18.543  0.3732  0.0034  0.0381
  946TIP3    H127033   2.792   4.735  18.601  0.3930  0.1691 -0.0804
  946TIP3    H227034   2.685   4.779  18.504  0.1137 -0.0950  0.1093
  947TIP3   OH227035   3.286   3.195  20.788 -0.2735  0.6012 -0.0243
  947TIP3    H127036   3.335   3.131  20.840 -2.4212 -0.6047  0.6388
  947TIP3    H227037   3.353   3.248  20.746  1.5768 -0.1230  1.8355
  948TIP3   OH227038   5.653   4.877  17.778 -0.1626  0.1456  0.5026
  948TIP3    H127039   5.571   4.873  17.729 -0.4875 -0.0652  1.0584
  948TIP3    H227040   5.629   4.916  17.862  0.1905 -0.5165  0.9156
  949TIP3   OH227041   0.820   4.972  18.011 -0.9398  0.3098 -0.1011
  949TIP3    H127042   0.837   4.946  18.101 -1.2643 -3.7405 -1.0291
  949TIP3    H227043   0.727   4.953  17.998 -0.7261  0.1175 -1.4934
  950TIP3   OH227044   0.353   6.213  17.710  0.0234 -0.1685  0.2894
  950TIP3    H127045   0.334   6.121  17.726  1.5604 -1.2696 -3.2618
  950TIP3    H227046   0.293   6.238  17.639 -2.3569  2.5623  2.9395
  951TIP3   OH227047   0.790   4.947  18.309  0.3619  0.2869  0.3298
  951TIP3    H127048   0.815   4.858  18.333 -0.0243 -0.1976 -0.9823
  951TIP3    H227049   0.859   5.002  18.346  2.2526 -0.8189 -1.3589
  952TIP3   OH227050   5.839   4.796  20.287  0.0035 -0.1157  0.0141
  952TIP3    H127051   5.805   4.886  20.281 -0.4595 -0.3202 -0.5596
  952TIP3    H227052   5.851   4.782  20.381 -0.0867  0.4859  0.1238
  953TIP3   OH227053   1.600   5.517  18.161  0.1101  0.3797 -0.1744
  953TIP3    H127054   1.592   5.431  18.201 -0.3994  0.3577 -0.3088
  953TIP3    H227055   1.689   5.520  18.127  0.7021  0.5646  1.3355
  954TIP3   OH227056   3.245   3.793  18.163  0.2440 -0.3594 -0.2892
  954TIP3    H127057   3.170   3.853  18.159 -0.2886 -1.0735 -1.9671
  954TIP3    H227058   3.276   3.800  18.253 -1.3798  0.5068  0.2533
  955TIP3   OH227059   2.406   1.084  20.167  0.4275  0.5136 -0.1453
  955TIP3    H127060   2.363   0.999  20.166  0.7766  0.3383 -0.8321
  955TIP3    H227061   2.391   1.118  20.255  1.2855 -0.7633  0.5228
  956TIP3   OH227062   5.095   0.197  17.922  0.4054  0.0368  0.1193
  956TIP3    H127063   5.071   0.117  17.969  1.5433 -0.4214 -0.0455
  956TIP3    H227064   5.015   0.250  17.922 -0.1756 -0.8125  0.8123
  957TIP3   OH227065   2.891   6.654  20.436 -0.0701  0.3355 -0.3428
  957TIP3    H127066   2.984   6.671  20.450 -0.2336 -0.3821  2.1044
  957TIP3    H227067   2.884   6.559  20.442 -0.8198  0.2843 -1.7483
  958TIP3   OH227068   5.302   4.224  19.671  0.3888 -0.0922  0.0299
  958TIP3    H127069   5.363   4.275  19.619  0.2772  0.9002  0.8572
  958TIP3    H227070   5.344   4.138  19.680  0.6810 -0.0850 -1.1659
  959TIP3   OH227071   5.357   5.579  20.436  0.0117 -0.5750 -0.3177
  959TIP3    H127072   5.346   5.602  20.344  0.0666  1.6147  0.1518
  959TIP3    H227073   5.323   5.490  20.444 -2.2996  0.0775 -1.9937
  960TIP3   OH227074   4.799   3.291  18.904 -0.5496  0.1477  0.6802
  960TIP3    H127075   4.713   3.321  18.874  0.1258  0.8162 -0.7003
  960TIP3    H227076   4.798   3.196  18.891 -0.1877  0.4084 -1.9877
  961TIP3   OH227077   1.690   2.056  17.238 -0.0407 -0.1857  0.9889
  961TIP3    H127078   1.721   2.011  17.159  1.2829  1.6777  0.3712
  961TIP3    H227079   1.725   2.004  17.310  1.0542 -0.4247  0.3066
  962TIP3   OH227080   4.248   6.511  18.837  0.0502  0.3310 -0.1567
  962TIP3    H127081   4.179   6.575  18.816  1.3491  1.6999 -0.3858
  962TIP3    H227082   4.229   6.483  18.926 -0.4738  1.1172 -0.0163
  963TIP3   OH227083   2.246   6.003  20.047  0.3248 -0.6859  0.3837
  963TIP3    H127084   2.164   5.958  20.027  0.2543 -0.1825 -0.5124
  963TIP3    H227085   2.230   6.045  20.132 -1.4723  1.8875 -1.0619
  964TIP3   OH227086   3.411   3.412  19.291 -0.2406 -0.6599 -0.0304
  964TIP3    H127087   3.320   3.430  19.312  0.0150 -0.1167  0.6485
  964TIP3    H227088   3.412   3.399  19.196 -0.8453  0.4057 -0.1923
  965TIP3   OH227089   5.760   4.243  20.333 -0.1240  0.2308  0.3409
  965TIP3    H127090   5.734   4.189  20.408 -1.5777  0.7308  0.2248
  965TIP3    H227091   5.835   4.294  20.365  1.3259 -1.8593  0.4243
  966TIP3   OH227092   2.640   3.995  19.259 -0.0574  0.1020 -0.1027
  966TIP3    H127093   2.627   3.908  19.221  0.3631  0.0828 -0.2091
  966TIP3    H227094   2.649   4.053  19.183 -0.4876  0.2641 -0.0327
  967TIP3   OH227095   3.101   4.432  19.019  0.3004 -0.1719 -0.0015
  967TIP3    H127096   3.059   4.509  18.982  0.1161 -0.2698  0.0019
  967TIP3    H227097   3.193   4.443  18.998  0.3667  0.3499  0.5239
  968TIP3   OH227098   3.400   5.757  19.290 -0.5941 -0.1280  0.5452
  968TIP3    H127099   3.442   5.680  19.329 -0.2640 -0.0916  0.2561
  968TIP3    H227100   3.460   5.829  19.308 -0.4395 -0.1083 -0.0252
  969TIP3   OH227101   3.861   0.629  20.269  0.4256 -1.0835 -0.2085
  969TIP3    H127102   3.912   0.710  20.277 -1.4590  0.1489 -0.0844
  969TIP3    H227103   3.859   0.594  20.359  2.3180 -2.0192 -0.4777
  970TIP3   OH227104   4.491   6.375  18.795  1.0008  1.1562  0.0654
  970TIP3    H127105   4.514   6.321  18.871 -0.5284  0.0562 -0.2008
  970TIP3    H227106   4.413   6.423  18.823 -0.3350 -0.2022 -1.1711
  971TIP3   OH227107   2.066   2.671  20.032  0.5627  0.1009 -0.0375
  971TIP3    H127108   1.989   2.691  19.978 -0.9836  0.4005  2.1553
  971TIP3    H227109   2.103   2.592  19.992 -0.0275  0.7165 -1.9537
  972TIP3   OH227110   6.233   0.103  17.849 -0.2076 -0.0061  0.3081
  972TIP3    H127111   6.236   0.189  17.808  1.2017  0.1641  0.7122
  972TIP3    H227112   6.244   0.041  17.777  2.3109  0.2883  0.3246
  973TIP3   OH227113   1.922   6.210  18.845  0.1045  0.1631  0.8305
  973TIP3    H127114   1.965   6.151  18.783  1.0695  1.0349  0.6379
  973TIP3    H227115   1.878   6.274  18.790  0.9419  0.9240  1.0206
  974TIP3   OH227116   1.661   1.511  20.082  0.3113  0.3316 -0.1245
  974TIP3    H127117   1.663   1.475  20.171 -0.5136  1.8672  0.5742
  974TIP3    H227118   1.750   1.544  20.067  0.4452  0.0984  0.1566
  975TIP3   OH227119   0.343   1.840  18.164  0.1283  0.1828  0.3679
  975TIP3    H127120   0.328   1.769  18.101 -0.2662  1.4043 -0.9915
  975TIP3    H227121   0.363   1.916  18.109  0.5484  1.1311  1.7725
  976TIP3   OH227122   5.037   0.543  17.883  0.1252  0.2135 -0.1856
  976TIP3    H127123   5.109   0.505  17.831 -0.3879  1.2983 -1.7533
  976TIP3    H227124   4.965   0.481  17.874  1.4109 -2.1048  3.2898
  977TIP3   OH227125   1.738   6.052  20.213 -0.1782 -0.2325 -0.4148
  977TIP3    H127126   1.660   6.028  20.163 -1.1328  1.2720  0.2596
  977TIP3    H227127   1.725   6.145  20.233  0.9176 -0.4093  1.2646
  978TIP3   OH227128   0.843   5.423  19.201  0.1051  0.4620 -0.0166
  978TIP3    H127129   0.764   5.394  19.156 -1.2222  1.8201  1.3342
  978TIP3    H227130   0.896   5.464  19.133 -1.4008  1.5772 -0.5459
  979TIP3   OH227131   6.470   4.886  19.238  0.0316 -0.1766 -0.2358
  979TIP3    H127132   6.502   4.795  19.239  1.6362  0.3153  2.9418
  979TIP3    H227133   6.434   4.900  19.325  1.1302  2.6406 -0.1304
  980TIP3   OH227134   2.540   5.690  18.223 -0.4413 -0.1935  1.0773
  980TIP3    H127135   2.575   5.700  18.311 -1.0616  0.7799  1.2363
  980TIP3    H227136   2.577   5.764  18.174  0.1032 -0.8669  0.4365
  981TIP3   OH227137   5.938   1.830  20.192 -0.9342 -0.2198  0.0817
  981TIP3    H127138   5.933   1.815  20.287  0.2911 -0.2285  0.1617
  981TIP3    H227139   5.853   1.869  20.170 -0.2809  2.4448  1.6930
  982TIP3   OH227140   4.667   2.385  20.790  0.1910  0.4723  0.1888
  982TIP3    H127141   4.706   2.467  20.759  0.7747  0.3714  0.6518
  982TIP3    H227142   4.741   2.330  20.815 -0.2474  0.3263  1.1970
  983TIP3   OH227143   3.076   4.189  20.661  0.2231 -0.0482 -0.2498
  983TIP3    H127144   3.167   4.215  20.643  0.5756 -1.8630 -1.4244
  983TIP3    H227145   3.026   4.270  20.655  2.0643  1.5898  3.4318
  984TIP3   OH227146   3.719   1.498  20.756  0.4635 -0.1309  0.0300
  984TIP3    H127147   3.731   1.506  20.662  1.7480 -0.5679  0.1396
  984TIP3    H227148   3.636   1.451  20.766  0.3536 -0.1484 -0.8708
  985TIP3   OH227149   4.767   2.876  20.423 -0.8350  0.1278 -0.1675
  985TIP3    H127150   4.722   2.836  20.349  0.1716 -0.6421 -0.3735
  985TIP3    H227151   4.827   2.809  20.454  0.4569  1.2559 -0.1476
  986TIP3   OH227152   0.972   3.209  20.047  0.0567  0.2287 -0.9930
  986TIP3    H127153   0.947   3.295  20.012  0.8973  0.4813 -0.9927
  986TIP3    H227154   1.067   3.207  20.038  0.1400 -0.3035 -0.0721
  987TIP3   OH227155   4.416   2.662  20.490  0.0092 -0.0386  0.0683
  987TIP3    H127156   4.406   2.639  20.397 -2.5449  1.2371 -0.0743
  987TIP3    H227157   4.510   2.678  20.501  0.2598  0.8152 -2.5734
  988TIP3   OH227158   0.495   2.133  19.875 -0.1020 -1.2352  0.5104
  988TIP3    H127159   0.444   2.099  19.801  0.0759 -0.7591  0.1706
  988TIP3    H227160   0.449   2.212  19.902  1.9006  0.7356 -1.5107
  989TIP3   OH227161   4.923   3.068  19.720 -0.0698 -0.4103 -0.6498
  989TIP3    H127162   4.881   3.093  19.802  0.2002 -0.3227 -0.5386
  989TIP3    H227163   4.855   3.081  19.653  0.0918  0.7289 -0.6107
  990TIP3   OH227164   3.668   4.450  18.190 -0.1572  0.5457 -0.1585
  990TIP3    H127165   3.749   4.400  18.199 -1.0142 -0.5095  2.6234
  990TIP3    H227166   3.694   4.540  18.209  0.5329  0.4199 -0.4396
  991TIP3   OH227167   3.806   6.021  18.863  0.4881  0.2525 -0.0209
  991TIP3    H127168   3.880   6.004  18.804  1.1323  0.1750  0.7925
  991TIP3    H227169   3.839   6.086  18.925  0.2201 -0.5674  1.0029
  992TIP3   OH227170   6.530   2.096  20.026 -0.7477 -0.1053  0.0932
  992TIP3    H127171   6.603   2.038  20.049  0.4413  0.8218 -1.1975
  992TIP3    H227172   6.568   2.184  20.028 -1.5937  0.3205 -1.4572
  993TIP3   OH227173   3.722   2.589  20.467 -0.0491 -0.0238 -0.8927
  993TIP3    H127174   3.790   2.654  20.452  0.7252 -0.5939  0.0407
  993TIP3    H227175   3.643   2.640  20.484  0.5526  0.6800 -0.1278
  994TIP3   OH227176   4.824   4.715  18.828  0.4076  0.9947  0.6867
  994TIP3    H127177   4.760   4.767  18.780 -0.2871 -0.7997 -0.4115
  994TIP3    H227178   4.838   4.637  18.775 -0.9652 -1.5261  3.6814
  995TIP3   OH227179   1.110   6.173  18.383 -0.2802  0.6153 -0.0450
  995TIP3    H127180   1.163   6.229  18.440  0.2314 -0.0855  0.1680
  995TIP3    H227181   1.172   6.114  18.342 -1.0528 -1.6160  1.7540
  996TIP3   OH227182   3.605   5.182  19.272  0.6586 -0.1947 -0.7383
  996TIP3    H127183   3.527   5.136  19.240 -0.8212  2.2761 -0.8806
  996TIP3    H227184   3.597   5.179  19.367  0.2992  0.1938 -0.7549
  997TIP3   OH227185   4.230   4.697  17.975 -0.2449 -0.0832 -0.0413
  997TIP3    H127186   4.301   4.652  17.927 -0.3144 -1.3431  0.9727
  997TIP3    H227187   4.163   4.712  17.909 -0.2943 -1.6794 -0.4125
  998TIP3   OH227188   6.102   4.872  18.652  0.2866 -0.5771 -0.4727
  998TIP3    H127189   6.107   4.956  18.696 -0.2616 -0.6065 -0.3502
  998TIP3    H227190   6.124   4.808  18.720 -3.5888 -0.9029  0.7098
  999TIP3   OH227191   5.793   4.648  18.733 -1.3256 -0.9116  0.3524
  999TIP3    H127192   5.846   4.648  18.653 -1.9117  2.2852 -0.1819
  999TIP3    H227193   5.715   4.597  18.710 -0.5411 -1.8379 -0.3540
 1000TIP3   OH227194   1.802   2.925  17.647 -0.1977  0.0086 -0.2715
 1000TIP3    H127195   1.844   2.873  17.578 -0.7397 -0.8094 -0.0086
 1000TIP3    H227196   1.872   2.979  17.682  0.6478 -1.2711  0.1065
 1001TIP3   OH227197   2.925   5.873  20.757  0.1215  0.5149 -0.6997
 1001TIP3    H127198   2.925   5.865  20.852 -0.0535  1.5565 -0.5988
 1001TIP3    H227199   2.999   5.820  20.728 -0.7260 -1.0481 -0.1156
 1002TIP3   OH227200   0.379   0.843  18.632 -0.6937 -0.7940 -0.1305
 1002TIP3    H127201   0.422   0.770  18.587 -2.0174 -0.4433 -2.0397
 1002TIP3    H227202   0.340   0.895  18.563 -1.3497  0.7427  1.3317
 1003TIP3   OH227203   4.534   2.934  19.466 -0.4817  0.2177  0.4387
 1003TIP3    H127204   4.586   2.961  19.391  0.4198 -0.2645  0.8771
 1003TIP3    H227205   4.468   2.875  19.429  0.2362 -0.3776  0.0726
 1004TIP3   OH227206   2.882   5.954  17.625  0.1403 -0.2080 -0.0991
 1004TIP3    H127207   2.830   6.026  17.587 -0.3464 -1.0374 -1.0475
 1004TIP3    H227208   2.861   5.878  17.571  0.1109 -1.2446  1.2999
 1005TIP3   OH227209   3.720   5.332  20.156 -0.0480 -0.1194 -0.1463
 1005TIP3    H127210   3.706   5.275  20.231  0.7409  1.5334  1.3231
 1005TIP3    H227211   3.684   5.283  20.082 -1.6140 -1.4429  1.4066
 1006TIP3   OH227212   3.203   1.709  17.301  0.1416 -0.2960 -0.3431
 1006TIP3    H127213   3.262   1.676  17.233  0.2548 -1.1021  0.1425
 1006TIP3    H227214   3.142   1.766  17.254  0.8683 -0.0095 -0.9564
 1007TIP3   OH227215   5.130   1.348  19.607 -0.4415  0.4096 -0.3743
 1007TIP3    H127216   5.164   1.358  19.696 -1.3435  0.9462 -0.0839
 1007TIP3    H227217   5.204   1.313  19.557  0.2265  0.5840  0.4748
 1008TIP3   OH227218   5.821   3.960  18.645 -0.2114 -0.3276  0.0436
 1008TIP3    H127219   5.771   3.907  18.707  0.2065 -0.4394  0.2909
 1008TIP3    H227220   5.910   3.925  18.650 -0.1894 -0.3671 -0.6583
 1009TIP3   OH227221   2.575   2.403  20.272  0.2051 -0.4050  0.4919
 1009TIP3    H127222   2.515   2.460  20.225 -0.7122 -2.1246 -0.5482
 1009TIP3    H227223   2.600   2.453  20.350 -0.7358  1.2711 -0.2262
 1010TIP3   OH227224   0.589   3.852  20.029  0.1858 -1.0041 -0.4715
 1010TIP3    H127225   0.602   3.848  19.935 -1.4747  0.0248 -0.7810
 1010TIP3    H227226   0.539   3.932  20.044  1.5492 -0.4251  1.4400
 1011TIP3   OH227227   1.545   2.733  19.434 -0.2370 -0.0449 -0.2491
 1011TIP3    H127228   1.514   2.806  19.380  2.6950 -0.6785 -3.1076
 1011TIP3    H227229   1.522   2.655  19.385 -0.7058 -0.9210  1.2919
 1012TIP3   OH227230   1.221   5.234  20.187  0.0835  0.3667 -0.1610
 1012TIP3    H127231   1.227   5.299  20.117 -1.9644  1.1900  0.3254
 1012TIP3    H227232   1.311   5.209  20.205  0.8356  2.0144 -1.3621
 1013TIP3   OH227233   0.783   3.059  17.156  0.3357 -0.6286 -1.0067
 1013TIP3    H127234   0.821   3.146  17.171  2.0503 -1.3709 -0.8411
 1013TIP3    H227235   0.694   3.077  17.126 -0.1157  1.1391  1.1187
 1014TIP3   OH227236   6.562   0.921  19.420 -0.1869  0.0702  0.5915
 1014TIP3    H127237   6.499   0.931  19.491  0.1585  1.7953  0.7100
 1014TIP3    H227238   6.516   0.952  19.342  0.2896  0.7821  0.5752
 1015TIP3   OH227239   3.323   2.299  17.942 -0.2996  0.2325  0.2947
 1015TIP3    H127240   3.396   2.360  17.948 -1.0424  1.0330  1.3742
 1015TIP3    H227241   3.313   2.264  18.030 -1.0785 -0.0295  0.1117
 1016TIP3   OH227242   5.262   5.981  20.799 -0.1730 -0.4030  0.1182
 1016TIP3    H127243   5.281   5.962  20.707 -1.1233  0.3969 -0.2532
 1016TIP3    H227244   5.328   6.046  20.823 -0.9167  0.5817 -0.4693
 1017TIP3   OH227245   4.173   4.404  19.768 -0.2066 -0.2100 -0.1714
 1017TIP3    H127246   4.236   4.475  19.780 -0.9639  0.4768 -0.1833
 1017TIP3    H227247   4.203   4.358  19.689  0.6080 -0.2576  0.1549
 1018TIP3   OH227248   5.582   4.875  20.426  0.3994  0.0718 -0.3502
 1018TIP3    H127249   5.591   4.804  20.362  1.5628 -2.0543  2.0102
 1018TIP3    H227250   5.635   4.848  20.500 -1.2917  2.1424  1.7795
 1019TIP3   OH227251   4.664   0.874  20.305  0.3747  0.1044 -0.4543
 1019TIP3    H127252   4.727   0.861  20.375 -0.4679 -0.7752  0.1654
 1019TIP3    H227253   4.584   0.832  20.336 -0.4934  1.0908 -1.2688
 1020TIP3   OH227254   3.925   2.142  20.230  0.4883 -0.4338  0.4524
 1020TIP3    H127255   3.984   2.216  20.244  2.2204 -1.7384  0.3891
 1020TIP3    H227256   3.930   2.092  20.312 -3.2081  1.1048  1.8265
 1021TIP3   OH227257   5.469   3.851  20.366  0.1237  0.6722 -0.0201
 1021TIP3    H127258   5.400   3.915  20.382 -1.1192 -0.3635 -1.0325
 1021TIP3    H227259   5.467   3.837  20.271  1.1753 -0.0033  0.0413
 1022TIP3   OH227260   4.511   2.056  19.592 -0.1442 -0.5680 -0.8361
 1022TIP3    H127261   4.518   2.128  19.654 -0.5820 -0.9939 -0.2875
 1022TIP3    H227262   4.599   2.046  19.556 -0.4012  1.3230 -2.1580
 1023TIP3   OH227263   3.533   0.474  18.589  0.1154 -0.4953 -0.3219
 1023TIP3    H127264   3.522   0.407  18.522 -0.1043 -0.3757 -0.4070
 1023TIP3    H227265   3.461   0.460  18.650  0.7258 -1.0503  0.2763
 1024TIP3   OH227266   5.321   0.678  20.420 -0.0542 -0.0236  0.2310
 1024TIP3    H127267   5.311   0.771  20.438  1.5590  0.4649 -1.1850
 1024TIP3    H227268   5.367   0.643  20.497  1.7305  0.9067 -0.3655
 1025TIP3   OH227269   2.249   2.738  18.543 -0.0776 -0.1383  0.3239
 1025TIP3    H127270   2.236   2.711  18.452 -0.1747  1.7000 -0.2415
 1025TIP3    H227271   2.209   2.667  18.595 -0.9355 -0.7253 -1.0783
 1026TIP3   OH227272   0.876   6.189  18.513 -0.6296  0.0811  0.0303
 1026TIP3    H127273   0.823   6.224  18.441  0.8704  1.7010 -0.3583
 1026TIP3    H227274   0.961   6.170  18.473 -0.0214  0.2520  1.2078
 1027TIP3   OH227275   3.851   0.987  20.716  0.3018  0.0779  0.8642
 1027TIP3    H127276   3.878   1.048  20.784  0.5782  2.0671 -0.9208
 1027TIP3    H227277   3.804   1.041  20.653 -0.8756 -1.8783 -0.0418
 1028TIP3   OH227278   3.630   4.270  19.825  0.2123 -0.0415 -0.9596
 1028TIP3    H127279   3.663   4.322  19.752  0.1194 -1.0554 -1.7564
 1028TIP3    H227280   3.561   4.323  19.863 -1.5834 -0.5511 -3.2788
 1029TIP3   OH227281   3.677   5.458  18.492 -0.3915  0.1908  0.1302
 1029TIP3    H127282   3.739   5.437  18.422  0.4933  2.7561  0.0231
 1029TIP3    H227283   3.722   5.433  18.573 -0.1753 -0.0436 -0.0611
 1030TIP3   OH227284   1.563   1.604  16.488  0.4987 -0.2380  0.4589
 1030TIP3    H127285   1.608   1.665  16.429  1.5694  0.3399  1.8197
 1030TIP3    H227286   1.544   1.528  16.433  2.2059 -0.0654 -0.4589
 1031TIP3   OH227287   2.578   3.968  20.917 -0.6151 -0.2314 -0.3765
 1031TIP3    H127288   2.631   3.957  20.838 -4.6816  0.3312 -3.5423
 1031TIP3    H227289   2.532   3.885  20.927  0.2602 -0.5220  1.9397
 1032TIP3   OH227290   4.302   0.842  19.361  0.0116  1.1690  0.4087
 1032TIP3    H127291   4.291   0.855  19.455 -3.6302  0.3327  0.2517
 1032TIP3    H227292   4.257   0.917  19.321 -1.6145 -0.2603 -0.5759
 1033TIP3   OH227293   0.323   5.786  19.220 -0.1314  0.0885 -0.3066
 1033TIP3    H127294   0.369   5.826  19.147 -0.0496  0.8632  0.1670
 1033TIP3    H227295   0.240   5.834  19.226  0.0700  0.3551  0.4191
 1034TIP3   OH227296   3.297   3.550  19.975  0.4171 -0.1161 -0.2076
 1034TIP3    H127297   3.242   3.520  20.047 -0.9711  1.0328 -0.7463
 1034TIP3    H227298   3.318   3.470  19.927  1.9932 -1.0172  1.8260
 1035TIP3   OH227299   4.636   5.680  18.202 -0.6244  0.2017  0.1070
 1035TIP3    H127300   4.653   5.756  18.258 -0.1163  2.6127 -3.0381
 1035TIP3    H227301   4.720   5.634  18.198 -0.4506  0.4545  0.6748
 1036TIP3   OH227302   4.311   1.609  18.943 -0.0865  0.1600  0.2167
 1036TIP3    H127303   4.358   1.526  18.952  0.5982  0.5686  0.5688
 1036TIP3    H227304   4.222   1.585  18.918  0.8288 -0.5737 -2.7228
 1037TIP3   OH227305   5.719   6.731  20.262 -0.1650  0.1557 -0.2924
 1037TIP3    H127306   5.775   6.768  20.193  0.9878 -0.4409  0.2951
 1037TIP3    H227307   5.712   6.638  20.240 -2.3765  0.4917 -1.3055
 1038TIP3   OH227308   2.125   5.332  18.181  0.0757 -0.0951  0.0896
 1038TIP3    H127309   2.200   5.362  18.129 -0.3516  1.0190  0.0919
 1038TIP3    H227310   2.152   5.346  18.272  0.1770 -0.4576  0.1152
 1039TIP3   OH227311   0.040   3.852  19.901  0.2597 -0.2374 -0.2883
 1039TIP3    H127312   0.130   3.857  19.932  0.0727  1.0291  0.1309
 1039TIP3    H227313  -0.013   3.872  19.978 -0.2673  1.4655 -1.0486
 1040TIP3   OH227314   5.875   3.600  17.845  0.1149 -0.4312 -0.4649
 1040TIP3    H127315   5.787   3.628  17.820  0.3863 -0.3065 -1.3048
 1040TIP3    H227316   5.921   3.588  17.762  1.2454  0.6324 -0.0312
 1041TIP3   OH227317   0.423   6.444  18.546 -0.3954 -0.1036  0.3374
 1041TIP3    H127318   0.374   6.433  18.627 -0.8669 -1.0038 -0.0537
 1041TIP3    H227319   0.502   6.391  18.558  0.8965  1.9168  1.2525
 1042TIP3   OH227320   4.089   4.787  19.687 -0.3293 -0.4049  0.0238
 1042TIP3    H127321   4.176   4.751  19.704 -0.2669 -0.7254 -0.9342
 1042TIP3    H227322   4.029   4.716  19.707 -0.2073 -1.0753 -1.8529
 1043TIP3   OH227323   1.912   2.339  17.745  0.2640  0.3230 -0.2030
 1043TIP3    H127324   1.877   2.305  17.663 -0.8395 -0.7645  0.6646
 1043TIP3    H227325   1.986   2.281  17.766  1.9052  1.8675 -1.4165
 1044TIP3   OH227326   0.479   2.773  18.766  0.2404  0.2179  0.0112
 1044TIP3    H127327   0.431   2.741  18.842  2.0589  0.4669  1.3211
 1044TIP3    H227328   0.458   2.866  18.760 -1.5228 -0.2106 -1.0881
 1045TIP3   OH227329   3.511   2.729  19.894 -0.1354 -0.1082 -0.5991
 1045TIP3    H127330   3.591   2.781  19.893 -0.2587  0.0881 -0.2011
 1045TIP3    H227331   3.541   2.639  19.907  0.0412 -0.0694 -0.7484
 1046TIP3   OH227332   3.140   4.449  19.295  0.1423 -0.3829 -0.1240
 1046TIP3    H127333   3.139   4.459  19.200  1.8566 -2.5773 -0.4533
 1046TIP3    H227334   3.233   4.456  19.319 -0.2312 -0.0836  1.3829
 1047TIP3   OH227335   6.375   5.593  19.377  0.1331 -0.2590 -0.1548
 1047TIP3    H127336   6.337   5.678  19.357  1.2843  0.8224  1.9647
 1047TIP3    H227337   6.455   5.612  19.426 -0.2528 -2.5682  1.5475
 1048TIP3   OH227338   2.325   2.052  20.727  0.5187 -0.4778 -0.3454
 1048TIP3    H127339   2.382   2.125  20.749 -0.3890  0.0564  0.3159
 1048TIP3    H227340   2.236   2.087  20.737  0.0674 -1.6937  0.0952
 1049TIP3   OH227341   5.156   1.804  19.123 -0.2992 -0.3014 -0.2992
 1049TIP3    H127342   5.063   1.786  19.132  0.2593 -2.5741  1.9169
 1049TIP3    H227343   5.160   1.880  19.064 -3.5180  0.1328 -0.1243
 1050TIP3   OH227344   3.785   3.512  17.833 -0.5230 -0.6317 -0.0083
 1050TIP3    H127345   3.740   3.494  17.750  0.7206 -1.9450 -0.4463
 1050TIP3    H227346   3.850   3.578  17.810 -1.5174  0.5257  0.4048
 1051TIP3   OH227347   4.701   3.874  18.953 -0.5408 -0.7507 -0.6211
 1051TIP3    H127348   4.757   3.911  19.021 -0.8659 -0.3039 -0.5930
 1051TIP3    H227349   4.626   3.837  19.000  0.3810 -2.6460 -0.5190
 1052TIP3   OH227350   4.022   5.469  20.552 -0.3444  0.4633  0.6664
 1052TIP3    H127351   4.087   5.535  20.575 -0.0225 -0.0244  1.1738
 1052TIP3    H227352   4.049   5.391  20.599  0.0286 -0.4240 -0.9669
 1053TIP3   OH227353   1.847   1.767  19.733 -0.0135 -0.1278  0.0657
 1053TIP3    H127354   1.903   1.757  19.811  1.2335 -1.9321 -0.9784
 1053TIP3    H227355   1.759   1.780  19.769  0.6829  0.1458  1.7799
 1054TIP3   OH227356   2.035   5.925  18.390 -0.5578 -0.3513 -0.5699
 1054TIP3    H127357   2.070   5.863  18.326  0.9899  0.4498 -0.5671
 1054TIP3    H227358   1.960   5.881  18.429  0.1144 -1.9512 -1.0205
 1055TIP3   OH227359   0.401   3.095  20.316  0.0086  0.6618 -0.2177
 1055TIP3    H127360   0.395   3.077  20.223  0.4226  0.1932 -0.1551
 1055TIP3    H227361   0.348   3.027  20.358  2.1115 -0.8941  0.0566
 1056TIP3   OH227362   5.098   4.557  19.211  0.0596 -0.0796 -0.3778
 1056TIP3    H127363   5.075   4.633  19.157 -1.1816 -1.2920 -1.6186
 1056TIP3    H227364   5.135   4.494  19.149 -1.4135 -1.5094  0.1330
 1057TIP3   OH227365   4.235   5.637  20.602 -0.2679  0.3739  0.6004
 1057TIP3    H127366   4.312   5.593  20.637 -0.2507  1.5298  2.1161
 1057TIP3    H227367   4.268   5.717  20.562 -0.4795 -0.1534 -0.6965
 1058TIP3   OH227368   3.426   4.205  20.318  0.3799  0.3465 -0.6108
 1058TIP3    H127369   3.411   4.170  20.406  1.2918 -1.9998 -1.3118
 1058TIP3    H227370   3.342   4.244  20.293 -0.4734 -0.6541  0.5697
 1059TIP3   OH227371   0.710   1.795  17.062 -0.6253 -0.3508 -0.6675
 1059TIP3    H127372   0.627   1.808  17.106 -0.6616 -0.2191 -0.7758
 1059TIP3    H227373   0.696   1.827  16.973  0.1284  1.5790 -0.1481
 1060TIP3   OH227374   4.268   4.859  18.400 -0.6847  0.3822 -0.1143
 1060TIP3    H127375   4.318   4.827  18.325 -1.5634 -2.1877  0.2944
 1060TIP3    H227376   4.298   4.806  18.473 -0.1292  2.5743  1.3468
 1061TIP3   OH227377   1.004   0.433  18.074 -0.2219  0.5159  0.1379
 1061TIP3    H127378   1.003   0.405  18.165 -0.1914  2.0741  0.6422
 1061TIP3    H227379   1.027   0.526  18.077  0.4117  0.4474 -1.5018
 1062TIP3   OH227380   2.409   0.223  20.540 -0.2047  0.3307  0.2169
 1062TIP3    H127381   2.432   0.135  20.511  1.2499  0.2999  1.3513
 1062TIP3    H227382   2.356   0.259  20.468 -0.8770 -1.4593 -0.2458
 1063TIP3   OH227383   1.420   1.993  20.212  0.2438 -0.0420 -0.5449
 1063TIP3    H127384   1.401   1.908  20.251  0.0337 -0.1685 -0.9140
 1063TIP3    H227385   1.504   1.981  20.167  0.1983 -0.0634 -0.6246
 1064TIP3   OH227386   3.920   0.453  20.481 -0.2507  0.3016 -0.4437
 1064TIP3    H127387   3.915   0.361  20.504  1.5175  0.1433 -0.5038
 1064TIP3    H227388   3.917   0.499  20.565 -0.7647  0.1728 -0.3891
 1065TIP3   OH227389   2.292   3.531  18.356 -0.1731  0.0714 -1.0229
 1065TIP3    H127390   2.254   3.458  18.405  1.6736 -1.0042 -1.1001
 1065TIP3    H227391   2.290   3.503  18.265 -0.9133  0.8134 -1.2449
 1066TIP3   OH227392   2.936   3.373  18.543  0.4922  0.2346  0.2848
 1066TIP3    H127393   2.921   3.355  18.636  0.7387 -2.1990 -0.0913
 1066TIP3    H227394   2.850   3.400  18.510 -0.1498 -1.1369  0.7637
 1067TIP3   OH227395   0.822   2.946  20.363 -0.4901 -0.0698 -0.2717
 1067TIP3    H127396   0.745   2.996  20.390 -0.4647 -0.9381  1.5414
 1067TIP3    H227397   0.896   3.005  20.380 -0.6362  0.2423 -0.6873
 1068TIP3   OH227398   6.360   3.501  17.508 -0.2426  0.0052  0.3221
 1068TIP3    H127399   6.281   3.451  17.487  0.3910 -1.1055  0.5161
 1068TIP3    H227400   6.387   3.540  17.425 -0.4623 -0.4025  0.0551
 1069TIP3   OH227401   4.618   4.281  18.932  0.3826  0.3715 -0.2637
 1069TIP3    H127402   4.530   4.281  18.894  0.4856 -0.5385 -0.5302
 1069TIP3    H227403   4.628   4.369  18.968  0.2067  1.2371 -2.1884
 1070TIP3   OH227404   1.076   5.515  19.969  0.2187 -0.1289 -0.0444
 1070TIP3    H127405   1.150   5.466  20.005  0.8238  0.4552 -0.4767
 1070TIP3    H227406   1.093   5.606  19.993 -0.8223 -0.0895  0.6236
 1071TIP3   OH227407   5.448   3.893  19.017 -0.2271  0.1050  0.1507
 1071TIP3    H127408   5.381   3.955  19.046  0.6708  0.8298  0.7543
 1071TIP3    H227409   5.528   3.923  19.061  0.2072 -1.5568  0.5317
 1072TIP3   OH227410   0.667   1.563  19.118  0.1662  0.4943  0.5487
 1072TIP3    H127411   0.755   1.525  19.126 -0.0346  0.3581  2.4999
 1072TIP3    H227412   0.683   1.652  19.087  0.8750 -0.0207 -0.6452
 1073TIP3   OH227413   2.406   3.005  20.480 -0.6041 -0.2886 -0.0960
 1073TIP3    H127414   2.366   3.008  20.393  0.2701 -0.9578 -0.5438
 1073TIP3    H227415   2.465   3.080  20.482 -0.6191 -0.2773 -0.0860
 1074TIP3   OH227416   5.440   6.205  20.814  0.8356 -0.1022 -0.3795
 1074TIP3    H127417   5.527   6.244  20.825 -0.5711  2.8444  1.7497
 1074TIP3    H227418   5.383   6.279  20.795 -1.4954 -1.6613  0.0812
 1075TIP3   OH227419   3.013   5.024  18.037 -0.2653 -0.0496  0.0403
 1075TIP3    H127420   3.105   5.000  18.027  0.1307  1.3644  0.0601
 1075TIP3    H227421   2.973   5.000  17.953 -0.4156 -2.7671  0.8096
 1076TIP3   OH227422   1.453   4.394  20.146 -0.5528  0.6996 -0.0423
 1076TIP3    H127423   1.491   4.353  20.223  0.5118  2.2465  0.3075
 1076TIP3    H227424   1.428   4.321  20.090  2.4295 -0.4779 -0.0416
 1077TIP3   OH227425   6.434   6.522  18.846  0.3845 -0.2591 -0.1157
 1077TIP3    H127426   6.528   6.518  18.859  0.2966 -2.5295  0.2848
 1077TIP3    H227427   6.422   6.518  18.752  0.6700 -0.6424 -0.1343
 1078TIP3   OH227428   0.628   1.023  17.687 -0.5868  0.0039 -0.2671
 1078TIP3    H127429   0.644   1.006  17.594 -2.3093  0.8347 -0.7645
 1078TIP3    H227430   0.714   1.040  17.723  0.0113  0.9731 -2.0036
 1079TIP3   OH227431   0.862   0.032  18.964 -0.3788  0.2233 -0.3100
 1079TIP3    H127432   0.828   0.067  18.882  0.8293  0.0279 -0.8970
 1079TIP3    H227433   0.879   0.110  19.018 -2.3170  0.3227  0.2698
 1080TIP3   OH227434   4.800   0.898  20.830 -0.2626 -0.1006 -0.1512
 1080TIP3    H127435   4.711   0.934  20.837  0.0282  0.3855  1.4116
 1080TIP3    H227436   4.790   0.805  20.849 -0.5873 -0.3171 -1.2533
 1081TIP3   OH227437   0.991   0.920  18.755 -0.2485 -0.2043 -0.1423
 1081TIP3    H127438   0.965   0.867  18.680 -0.8470 -0.9314  0.5505
 1081TIP3    H227439   1.062   0.975  18.723 -0.8146 -0.1623 -1.3600
 1082TIP3   OH227440   6.294   3.904  20.264  0.6506 -0.4832 -0.1106
 1082TIP3    H127441   6.381   3.864  20.270  0.4576 -0.7069  1.5035
 1082TIP3    H227442   6.238   3.834  20.228  1.2051 -0.1810 -1.6348
 1083TIP3   OH227443   3.295   0.160  18.874 -0.0957  0.3174  0.7246
 1083TIP3    H127444   3.361   0.229  18.879 -0.2783  0.4866  0.8361
 1083TIP3    H227445   3.340   0.082  18.907  0.8205 -0.1773 -1.5328
 1084TIP3   OH227446   1.425   5.879  19.388  0.6993 -0.3348 -0.1357
 1084TIP3    H127447   1.355   5.813  19.386 -1.8396  2.2149 -0.8672
 1084TIP3    H227448   1.465   5.869  19.474 -0.0904 -2.3004  0.0630
 1085TIP3   OH227449   0.874   1.808  19.800  0.0296  0.3061 -0.5387
 1085TIP3    H127450   0.845   1.780  19.712 -0.3900  1.2716 -0.7137
 1085TIP3    H227451   0.794   1.809  19.852  0.4087 -1.1723  0.1299
 1086TIP3   OH227452   2.303   2.163  18.675  0.2558 -0.0898  0.3337
 1086TIP3    H127453   2.279   2.234  18.615 -0.2705  0.1898  0.8744
 1086TIP3    H227454   2.273   2.192  18.761 -0.1046 -1.0351  0.5361
 1087TIP3   OH227455   5.784   1.020  20.070 -0.3300  0.5745 -0.6115
 1087TIP3    H127456   5.715   0.954  20.064 -2.3314  2.4412  0.5674
 1087TIP3    H227457   5.842   0.988  20.140 -0.8902 -0.2704 -0.5217
 1088TIP3   OH227458   1.271   2.220  19.759 -0.6299 -0.1699  0.4548
 1088TIP3    H127459   1.291   2.175  19.841 -1.7291  0.5969  1.1874
 1088TIP3    H227460   1.236   2.305  19.787  0.9743  0.9818 -0.8629
 1089TIP3   OH227461   5.578   2.128  19.537  0.2522  0.4017  0.7520
 1089TIP3    H127462   5.548   2.154  19.624  1.0949  0.3948  1.0486
 1089TIP3    H227463   5.665   2.091  19.551  0.9568  1.5773 -0.2443
 1090TIP3   OH227464   3.416   2.783  19.637  0.0617  0.2488 -0.2210
 1090TIP3    H127465   3.458   2.791  19.722  1.5750 -0.8449 -0.8143
 1090TIP3    H227466   3.468   2.717  19.591  1.7673  3.4942 -3.4330
 1091TIP3   OH227467   5.464   3.080  20.255 -0.2051 -0.2332 -0.7015
 1091TIP3    H127468   5.395   3.086  20.188 -0.9589 -0.5607  0.0224
 1091TIP3    H227469   5.440   3.146  20.320  0.2335 -0.2701 -0.5002
 1092TIP3   OH227470   6.067   0.772  19.380 -0.0147 -0.2566 -0.2397
 1092TIP3    H127471   6.090   0.748  19.469 -0.4041 -0.5363 -0.2124
 1092TIP3    H227472   6.136   0.832  19.352 -0.8983  1.3640  0.9249
 1093TIP3   OH227473   4.325   6.727  19.850 -0.2762  0.1145  0.0383
 1093TIP3    H127474   4.238   6.764  19.866 -0.1761  0.7728 -0.8431
 1093TIP3    H227475   4.341   6.743  19.757  0.1913 -1.3118 -0.1382
 1094TIP3   OH227476   5.944   0.054  17.527  0.0196 -0.3222 -0.3866
 1094TIP3    H127477   5.862   0.091  17.494  0.4282 -1.2644 -2.6738
 1094TIP3    H227478   5.989   0.127  17.569 -0.5782  1.0329 -1.9817
 1095TIP3   OH227479   4.532   5.148  20.746 -0.0198  0.0439 -0.2637
 1095TIP3    H127480   4.486   5.227  20.719 -0.5182 -0.3852 -0.6938
 1095TIP3    H227481   4.604   5.179  20.800  2.2743  1.1335 -3.6503
 1096TIP3   OH227482   0.490   4.087  19.182  0.1140  0.5567 -0.6287
 1096TIP3    H127483   0.483   4.163  19.123  0.4018  0.9317 -0.1863
 1096TIP3    H227484   0.400   4.067  19.205 -0.0221  0.2523 -1.3876
 1097TIP3   OH227485   4.177   2.041  18.380 -0.2584  0.2389  0.3826
 1097TIP3    H127486   4.243   2.091  18.332 -0.5999 -0.3316 -0.7154
 1097TIP3    H227487   4.201   2.052  18.472  1.7950 -0.4982  0.0082
 1098TIP3   OH227488   0.351   3.068  19.402  0.1666 -0.0918  0.0518
 1098TIP3    H127489   0.335   3.131  19.472  0.9233  1.3725 -1.0542
 1098TIP3    H227490   0.416   3.008  19.438  1.1559  1.1341  0.3384
 1099TIP3   OH227491   5.904   3.512  20.477  0.4165  0.4928 -0.4179
 1099TIP3    H127492   5.853   3.575  20.528  1.0564  0.4289  0.3239
 1099TIP3    H227493   5.969   3.565  20.432  0.7963  0.4058  0.0124
 1100TIP3   OH227494   0.106   5.149  19.377  0.4958 -0.1601  0.6174
 1100TIP3    H127495   0.077   5.062  19.404 -0.2498 -0.1824 -0.1893
 1100TIP3    H227496   0.175   5.172  19.439  1.9424 -2.0614 -0.1544
 1101TIP3   OH227497   3.509   2.602  19.478 -0.0194 -0.3852  0.1092
 1101TIP3    H127498   3.590   2.607  19.427  0.6306  1.8952  1.2191
 1101TIP3    H227499   3.451   2.547  19.426  1.8622 -1.1669 -1.2595
 1102TIP3   OH227500   1.108   6.034  18.948 -0.7745  0.4193  0.5928
 1102TIP3    H127501   1.073   5.952  18.983 -0.2393 -0.4344 -0.7732
 1102TIP3    H227502   1.060   6.047  18.866 -0.1577  0.9473  0.3103
 1103TIP3   OH227503   2.143   3.954  20.484 -0.4300  0.3910 -0.1937
 1103TIP3    H127504   2.128   3.883  20.421  0.7377 -0.8728  0.9019
 1103TIP3    H227505   2.183   3.911  20.560 -2.3609  1.7584  1.7018
 1104TIP3   OH227506   1.190   1.771  18.240  0.0309  0.7304  0.5546
 1104TIP3    H127507   1.250   1.716  18.290 -2.7273 -1.7068  1.5440
 1104TIP3    H227508   1.189   1.732  18.153 -0.1646  0.6510  0.5898
 1105TIP3   OH227509   4.385   4.287  18.795  0.1730  0.0833  0.0680
 1105TIP3    H127510   4.389   4.316  18.703 -0.9487 -0.4051 -0.1426
 1105TIP3    H227511   4.302   4.322  18.828  1.6823  2.4913  1.7048
 1106TIP3   OH227512   0.401   1.109  17.841 -0.0693  0.0338 -0.1446
 1106TIP3    H127513   0.479   1.062  17.813 -0.2082 -0.3968  0.1868
 1106TIP3    H227514   0.330   1.071  17.788 -0.0646  0.3721 -0.3936
 1107TIP3   OH227515   3.801   1.935  20.588  0.6093 -0.6987  0.6459
 1107TIP3    H127516   3.809   1.870  20.657  0.3470 -1.7917 -0.3135
 1107TIP3    H227517   3.782   2.017  20.634 -0.4216 -1.5575  1.8238
 1108TIP3   OH227518   0.135   2.012  17.940 -0.3942 -0.7285  0.4869
 1108TIP3    H127519   0.143   1.942  17.875  0.0064  0.2562 -0.5711
 1108TIP3    H227520   0.067   2.070  17.903  0.6715  0.4628  0.3341
 1109TIP3   OH227521   5.132   6.717  19.000 -0.5286  0.3328 -0.2549
 1109TIP3    H127522   5.041   6.734  19.022 -0.7463 -1.3593  0.3622
 1109TIP3    H227523   5.160   6.793  18.950 -2.5612  0.4547 -1.3072
 1110TIP3   OH227524   6.722   1.232  18.488 -0.4722 -0.1621  0.1720
 1110TIP3    H127525   6.808   1.213  18.452 -1.0309 -1.1663 -0.7007
 1110TIP3    H227526   6.736   1.240  18.582  0.7465  0.8275 -0.0630
 1111TIP3   OH227527   4.644   5.819  20.330  0.3072 -0.5140  0.3587
 1111TIP3    H127528   4.739   5.816  20.347  0.2213 -2.0191  0.7295
 1111TIP3    H227529   4.609   5.747  20.382 -0.9168 -0.6264 -0.5960
 1112TIP3   OH227530   0.582   0.136  17.795  0.0077 -0.4371 -0.4603
 1112TIP3    H127531   0.505   0.109  17.845  0.0627 -0.4408 -0.3786
 1112TIP3    H227532   0.598   0.226  17.822  1.4469 -1.1451  1.3030
 1113TIP3   OH227533   5.349   2.807  19.042 -0.1380 -0.3124  0.0852
 1113TIP3    H127534   5.294   2.837  18.969  1.4488 -0.3211 -1.1849
 1113TIP3    H227535   5.287   2.773  19.107 -1.6900  1.0300 -0.6229
 1114TIP3   OH227536   0.522   1.625  19.819  0.2512 -0.4119  0.5608
 1114TIP3    H127537   0.551   1.714  19.838  0.3907 -0.4403  0.4801
 1114TIP3    H227538   0.560   1.572  19.888 -0.7170 -0.2563  1.2356
 1115TIP3   OH227539   3.434   0.971  20.085  0.0736  0.0538  0.2939
 1115TIP3    H127540   3.458   0.880  20.106 -0.0787 -0.2852 -0.8824
 1115TIP3    H227541   3.395   0.965  19.998 -0.4935  1.1777  0.4573
 1116TIP3   OH227542   0.825   5.389  20.184  0.4188 -0.0568  0.1823
 1116TIP3    H127543   0.829   5.467  20.239 -0.7388 -0.4291  0.8330
 1116TIP3    H227544   0.876   5.323  20.232  1.2323  0.2384 -0.2715
 1117TIP3   OH227545   5.733   6.094  19.540 -0.1035 -0.1655  0.1049
 1117TIP3    H127546   5.711   6.163  19.602 -0.6940  0.8236 -1.1600
 1117TIP3    H227547   5.774   6.026  19.593 -0.3183  0.7730  1.5176
 1118TIP3   OH227548   0.927   1.637  20.080  0.1599 -0.3612  0.0124
 1118TIP3    H127549   0.961   1.715  20.036  0.4950  0.3120  1.4275
 1118TIP3    H227550   0.978   1.565  20.043 -0.5442 -0.0264 -1.7308
 1119TIP3   OH227551   3.081   0.500  19.723  0.2005 -0.3402 -0.4961
 1119TIP3    H127552   2.990   0.486  19.749  0.8024 -0.9288  1.5026
 1119TIP3    H227553   3.098   0.432  19.658 -0.2714 -1.4950  0.5433
 1120TIP3   OH227554   2.724   5.093  18.959  0.4883  0.3194 -0.1676
 1120TIP3    H127555   2.748   5.182  18.934  1.8378  0.0201 -0.0028
 1120TIP3    H227556   2.653   5.069  18.899 -0.9118  1.9957  0.7179
 1121TIP3   OH227557   6.283   3.589  19.814  0.6211 -0.7367 -0.3949
 1121TIP3    H127558   6.277   3.500  19.780  0.3998 -0.7999 -0.1891
 1121TIP3    H227559   6.209   3.635  19.775  0.5777 -0.7135 -0.2853
 1122TIP3   OH227560   4.568   0.403  18.198 -0.0382  0.4229  0.0759
 1122TIP3    H127561   4.657   0.399  18.233  0.2981 -1.3939 -0.8624
 1122TIP3    H227562   4.579   0.393  18.103 -1.2569 -0.3573 -0.0069
 1123TIP3   OH227563   3.651   2.118  19.059  0.3367 -0.0917  0.5533
 1123TIP3    H127564   3.610   2.180  18.999  2.4514 -0.6933 -1.6812
 1123TIP3    H227565   3.582   2.055  19.078 -0.2431 -0.3699 -2.0326
 1124TIP3   OH227566   1.558   0.177  18.671 -0.3178  0.3773 -0.0369
 1124TIP3    H127567   1.464   0.193  18.675 -0.6101 -1.2467  0.4357
 1124TIP3    H227568   1.566   0.090  18.630  0.9052 -0.0365  1.0043
 1125TIP3   OH227569   3.521   3.924  19.222 -0.4343  0.3563 -0.1555
 1125TIP3    H127570   3.530   3.968  19.138 -0.5532 -0.3946 -0.5677
 1125TIP3    H227571   3.456   3.975  19.270  0.4740  1.4657 -0.0593
 1126TIP3   OH227572   1.543   0.760  20.428  0.3290 -0.1663 -0.5348
 1126TIP3    H127573   1.567   0.736  20.517  1.0211 -1.6849 -1.1000
 1126TIP3    H227574   1.606   0.828  20.403  0.2943  0.0769  0.0347
 1127TIP3   OH227575   1.981   1.258  19.262  0.0336  0.5627  0.4714
 1127TIP3    H127576   2.019   1.315  19.195 -0.8673  0.4490 -0.1561
 1127TIP3    H227577   1.979   1.171  19.222  0.6864  0.2364  1.1372
 1128TIP3   OH227578   2.061   3.899  19.481 -0.1147 -0.7293  0.0276
 1128TIP3    H127579   2.076   3.891  19.575 -0.5379 -0.9961  0.0738
 1128TIP3    H227580   2.044   3.992  19.467  2.0481 -0.2966 -0.1013
 1129TIP3   OH227581   1.866   3.814  18.638 -0.5171  0.1274  0.4316
 1129TIP3    H127582   1.853   3.827  18.544 -2.9857 -3.7654 -0.0239
 1129TIP3    H227583   1.944   3.759  18.644 -0.4154  0.2941  0.6330
 1130TIP3   OH227584   4.136   3.399  17.352 -0.2363 -0.4697  0.2441
 1130TIP3    H127585   4.222   3.418  17.314 -1.0685  0.0629 -1.4822
 1130TIP3    H227586   4.108   3.483  17.388 -0.9718 -0.0429 -1.2395
 1131TIP3   OH227587   6.052   3.288  20.518  0.7532 -0.0953  0.4061
 1131TIP3    H127588   5.995   3.282  20.441  0.5150  0.7327  0.5101
 1131TIP3    H227589   6.035   3.375  20.553  1.2148 -0.2918  1.1252
 1132TIP3   OH227590   2.882   2.673  20.582  0.6437 -0.0848  0.4609
 1132TIP3    H127591   2.867   2.764  20.557 -3.2159 -0.6224  0.2296
 1132TIP3    H227592   2.850   2.666  20.672  2.2162 -0.9547  0.9892
 1133TIP3   OH227593   0.488   2.943  19.602  0.3202 -0.7637 -0.1888
 1133TIP3    H127594   0.498   2.848  19.598  0.0395 -0.8508  0.8810
 1133TIP3    H227595   0.494   2.964  19.695  0.7909  0.3196 -0.4459
 1134TIP3   OH227596   1.644   4.473  20.537 -0.4897  0.4139 -0.6176
 1134TIP3    H127597   1.610   4.555  20.573 -0.0975 -0.8901  3.1886
 1134TIP3    H227598   1.568   4.433  20.494 -2.7266 -0.1413  3.3447
 1135TIP3   OH227599   2.714   4.433  17.447  0.3778  0.0487 -0.0257
 1135TIP3    H127600   2.772   4.455  17.520  1.1510 -1.4342 -0.1580
 1135TIP3    H227601   2.773   4.400  17.378 -0.3421  1.3054 -1.2977
 1136TIP3   OH227602   0.136   2.899  17.765  0.1368  0.0093  0.1433
 1136TIP3    H127603   0.114   2.814  17.801 -0.5808  0.2562  0.3011
 1136TIP3    H227604   0.227   2.914  17.791  0.7940 -1.3789 -1.2043
 1137TIP3   OH227605   3.579   4.109  17.645 -0.2079 -0.0104  0.4834
 1137TIP3    H127606   3.649   4.068  17.595  0.1907  3.1983 -1.9171
 1137TIP3    H227607   3.512   4.131  17.581 -2.3016 -0.6420  2.3170
 1138TIP3   OH227608   2.750   0.071  19.575  0.3991 -0.8968 -0.5697
 1138TIP3    H127609   2.758   0.167  19.577 -0.2692 -0.8531  0.3006
 1138TIP3    H227610   2.660   0.055  19.548  0.3104 -1.2675 -0.0716
 1139TIP3   OH227611   2.595   0.275  20.784 -0.4477  0.5516 -0.2618
 1139TIP3    H127612   2.572   0.326  20.861  0.8889 -0.0736  0.5858
 1139TIP3    H227613   2.542   0.195  20.791 -0.6444  0.6840 -0.2322
 1140TIP3   OH227614   5.735   2.334  18.202 -0.7339  0.7644  0.8616
 1140TIP3    H127615   5.749   2.246  18.237  2.0358  1.2354  1.2013
 1140TIP3    H227616   5.680   2.321  18.125 -0.2382 -1.2993  0.7953
 1141TIP3   OH227617   2.914   2.855  18.800 -0.2353  0.2724 -0.6606
 1141TIP3    H127618   2.919   2.794  18.727  0.2040 -1.1984  0.5541
 1141TIP3    H227619   2.987   2.916  18.786  0.5833 -0.7280 -0.8247
 1142TIP3   OH227620   0.719   2.320  19.693 -0.8014 -0.3315  0.3692
 1142TIP3    H127621   0.655   2.368  19.640 -0.2347 -0.0089 -0.0326
 1142TIP3    H227622   0.737   2.378  19.767  1.3240  1.0018 -1.0808
 1143TIP3   OH227623   4.749   6.588  17.302  0.3841 -0.0386 -0.2665
 1143TIP3    H127624   4.704   6.531  17.365 -0.8137  1.1575  0.0141
 1143TIP3    H227625   4.693   6.587  17.224  0.3734  0.6608 -0.2828
 1144TIP3   OH227626   5.646   3.176  19.316 -0.2824  0.8522 -0.3351
 1144TIP3    H127627   5.605   3.229  19.384  0.1000  0.6503  0.0595
 1144TIP3    H227628   5.579   3.111  19.293 -0.0486  0.2665  0.5982
 1145TIP3   OH227629   6.316   5.610  19.078  0.1888 -0.1315 -0.7585
 1145TIP3    H127630   6.244   5.630  19.138  1.0514 -0.8477  0.5565
 1145TIP3    H227631   6.316   5.683  19.015  0.0658  1.3489  0.8837
 1146TIP3   OH227632   4.265   1.733  17.547  0.3386 -0.1079  0.4324
 1146TIP3    H127633   4.300   1.751  17.460 -0.3258  1.2206  0.4190
 1146TIP3    H227634   4.264   1.637  17.553  0.7385 -0.2130 -0.8680
 1147TIP3   OH227635   4.438   1.795  19.699 -0.0597 -0.0273  0.3127
 1147TIP3    H127636   4.470   1.813  19.787  0.3072  2.4824 -0.2532
 1147TIP3    H227637   4.466   1.871  19.647  2.0484 -2.5488 -2.6360
 1148TIP3   OH227638   0.975   0.446  19.091  0.3286 -0.4936 -0.5460
 1148TIP3    H127639   0.976   0.409  19.003  1.6314  2.5569 -1.9412
 1148TIP3    H227640   0.962   0.540  19.078 -0.2089 -0.0334  2.5859
 1149TIP3   OH227641   1.015   4.815  19.741 -0.1430  0.0761 -0.2239
 1149TIP3    H127642   0.991   4.757  19.814 -0.3826  0.3619 -0.0709
 1149TIP3    H227643   1.026   4.901  19.782 -2.0713  0.6318 -0.7900
 1150TIP3   OH227644   3.346   4.191  19.191 -0.2960 -0.5371 -0.4053
 1150TIP3    H127645   3.361   4.283  19.213  1.1898 -0.9615  0.4711
 1150TIP3    H227646   3.280   4.162  19.254 -0.1437 -0.2973 -0.1326
 1151TIP3   OH227647   1.581   2.787  18.321  0.2251  0.7177  0.0561
 1151TIP3    H127648   1.603   2.863  18.267 -0.2920 -0.1660 -1.4297
 1151TIP3    H227649   1.661   2.769  18.371  0.9807  1.0672 -0.9940
 1152TIP3   OH227650   4.472   1.732  17.780  0.1286  0.6059 -0.3339
 1152TIP3    H127651   4.538   1.749  17.847 -0.4612  0.8304  0.1960
 1152TIP3    H227652   4.502   1.651  17.738 -0.5508 -0.6992  1.5783
 1153TIP3   OH227653   3.827   0.892  19.567  0.5456  0.1249 -0.5417
 1153TIP3    H127654   3.849   0.820  19.627  1.5953  1.4618  0.7534
 1153TIP3    H227655   3.778   0.954  19.621 -0.3545  0.3947 -1.6426
 1154TIP3   OH227656   6.563   6.176  19.579 -0.2114  0.2214  0.2106
 1154TIP3    H127657   6.589   6.083  19.578 -2.1941 -0.3890 -0.2361
 1154TIP3    H227658   6.477   6.176  19.621 -0.6649  1.7274 -0.6393
 1155TIP3   OH227659   5.007   6.643  17.236  0.5058 -0.3492 -0.6169
 1155TIP3    H127660   4.923   6.605  17.263 -0.4100  1.9133 -0.0577
 1155TIP3    H227661   5.046   6.577  17.179 -0.4010 -2.6211  1.2095
 1156TIP3   OH227662   5.449   5.911  18.883  0.4560 -0.0041 -0.0759
 1156TIP3    H127663   5.356   5.895  18.899  0.7512  0.0023  1.9160
 1156TIP3    H227664   5.455   5.924  18.788 -1.4029 -0.9952 -0.3835
 1157TIP3   OH227665   0.680   6.292  20.608  0.0037  0.0740 -0.4227
 1157TIP3    H127666   0.734   6.363  20.575 -0.6237  0.5348 -0.4706
 1157TIP3    H227667   0.637   6.256  20.531 -1.1659  0.9014 -0.1825
 1158TIP3   OH227668   2.164   6.174  19.271  0.6650  0.6125  0.0370
 1158TIP3    H127669   2.252   6.147  19.296  1.1802  2.1228 -0.0650
 1158TIP3    H227670   2.110   6.096  19.286  2.0366 -0.4047 -0.0974
 1159TIP3   OH227671   2.798   5.428  19.710  0.6571 -0.9171  0.1646
 1159TIP3    H127672   2.889   5.437  19.737  0.1114  2.2993  1.4035
 1159TIP3    H227673   2.800   5.438  19.615  1.6059 -1.1418  0.1539
 1160TIP3   OH227674   5.340   1.645  18.160  0.2189 -0.1695 -0.6587
 1160TIP3    H127675   5.400   1.719  18.146  2.2514 -1.4794  0.6074
 1160TIP3    H227676   5.276   1.679  18.223  1.4351  0.3935  0.3291
 1161TIP3   OH227677   1.575   1.804  19.788  0.6673  0.3685  0.0538
 1161TIP3    H127678   1.522   1.743  19.840  0.5150  1.9268  1.8111
 1161TIP3    H227679   1.519   1.826  19.713  0.1961 -0.5773  0.1095
 1162TIP3   OH227680   4.669   3.925  19.904  0.4449 -0.3658 -0.0042
 1162TIP3    H127681   4.761   3.924  19.876  0.4266 -0.4216 -0.0624
 1162TIP3    H227682   4.633   4.004  19.863  0.6432  0.0398  0.5893
 1163TIP3   OH227683   2.763   6.726  20.200  0.3245  0.0772  0.3482
 1163TIP3    H127684   2.765   6.644  20.149  0.3171  1.1856 -1.5334
 1163TIP3    H227685   2.797   6.701  20.286  1.2198 -1.7276 -0.4588
 1164TIP3   OH227686   4.175   4.793  20.346 -0.0205 -0.3574 -0.4595
 1164TIP3    H127687   4.151   4.719  20.290 -1.1629 -0.3243 -0.0221
 1164TIP3    H227688   4.124   4.867  20.311 -2.2720 -0.7446  1.7725
 1165TIP3   OH227689   6.389   2.785  19.145 -1.0050  0.3908  0.0034
 1165TIP3    H127690   6.436   2.745  19.218 -0.7553  1.4842  0.4510
 1165TIP3    H227691   6.382   2.715  19.080  1.4352  0.2412 -0.1842
 1166TIP3   OH227692   1.300   2.990  20.756  0.1230  0.7710  0.0910
 1166TIP3    H127693   1.380   3.002  20.807  0.7305 -0.4993 -0.5154
 1166TIP3    H227694   1.245   3.064  20.780  1.2112  1.3073  1.0278
 1167TIP3   OH227695   3.215   1.871  20.288  0.1131  0.0400 -0.0967
 1167TIP3    H127696   3.246   1.950  20.333 -2.0712 -0.1413  1.9353
 1167TIP3    H227697   3.275   1.802  20.318  0.3951  0.4467  0.2990
 1168TIP3   OH227698   4.899   5.155  18.269 -0.1424  0.0654  0.6459
 1168TIP3    H127699   4.954   5.179  18.344  0.6626 -4.7315  1.9914
 1168TIP3    H227700   4.961   5.132  18.200 -0.5054 -1.6611  0.8357
 1169TIP3   OH227701   5.462   0.499  19.057 -0.1067 -0.2951 -0.4385
 1169TIP3    H127702   5.382   0.446  19.050 -1.0718  0.7665  1.5618
 1169TIP3    H227703   5.503   0.468  19.138 -0.0749  1.1563  0.1231
 1170TIP3   OH227704   0.990   3.360  19.613 -0.0357 -0.5263  0.1260
 1170TIP3    H127705   1.063   3.337  19.671  1.9933  1.4903 -1.4574
 1170TIP3    H227706   0.972   3.279  19.565  2.5555 -0.6110 -0.8413
 1171TIP3   OH227707   1.030   3.165  19.221 -0.8227  0.0281 -0.0417
 1171TIP3    H127708   1.024   3.245  19.169  2.2082  0.7515  0.5031
 1171TIP3    H227709   1.032   3.094  19.156  1.6995  0.8288 -0.9604
 1172TIP3   OH227710   1.716   3.626  19.462  0.0384 -0.7293 -0.0781
 1172TIP3    H127711   1.640   3.570  19.445  0.3496 -0.9477 -0.8038
 1172TIP3    H227712   1.776   3.608  19.389  0.5812 -0.2054  0.2268
 1173TIP3   OH227713   3.534   0.960  17.946  0.1551  0.4093  0.0810
 1173TIP3    H127714   3.503   1.041  17.987  0.4057  1.0318 -0.9181
 1173TIP3    H227715   3.487   0.956  17.863 -0.9002 -1.2101  0.7104
 1174TIP3   OH227716   0.164   3.747  18.179  0.3604 -0.2199 -0.0238
 1174TIP3    H127717   0.115   3.763  18.098 -1.2148 -1.3433  0.6423
 1174TIP3    H227718   0.201   3.832  18.202 -0.1529  0.3761 -1.2902
 1175TIP3   OH227719   3.314   0.749  17.938  0.0108 -0.1423 -0.2931
 1175TIP3    H127720   3.292   0.802  18.015 -1.1717 -0.4625 -0.3832
 1175TIP3    H227721   3.233   0.747  17.887  0.2489 -1.4151 -0.6557
 1176TIP3   OH227722   6.048   2.961  20.114  0.2811  0.0230 -0.0433
 1176TIP3    H127723   6.083   2.890  20.169 -0.4834  0.1634  0.6530
 1176TIP3    H227724   5.995   2.917  20.048 -1.0109 -0.0379  0.9895
 1177TIP3   OH227725   2.229   1.934  18.412 -0.0569 -0.0495  0.1584
 1177TIP3    H127726   2.171   2.008  18.395 -0.7081 -0.5578  0.1156
 1177TIP3    H227727   2.310   1.955  18.365 -0.5071  0.2860 -0.4751
 1178TIP3   OH227728   2.665   6.736  19.877  0.3985 -0.4686  0.3440
 1178TIP3    H127729   2.733   6.773  19.821 -0.7916 -0.5897 -1.2300
 1178TIP3    H227730   2.706   6.731  19.964  1.9883  0.5525 -0.3031
 1179TIP3   OH227731   1.081   1.255  19.737  0.2606 -0.3287 -0.2021
 1179TIP3    H127732   1.033   1.275  19.656 -0.2332 -0.3436  0.0858
 1179TIP3    H227733   1.066   1.162  19.751 -0.6724 -0.0730  0.5648
 1180TIP3   OH227734   2.885   1.579  20.214 -0.2241 -0.2250 -0.2136
 1180TIP3    H127735   2.801   1.602  20.175 -0.8021 -0.6825  0.7112
 1180TIP3    H227736   2.940   1.656  20.201 -0.4005 -0.3360 -1.8365
 1181TIP3   OH227737   2.371   5.574  19.534 -0.3011  0.0130 -0.0676
 1181TIP3    H127738   2.456   5.610  19.559 -1.1149  2.2971 -0.4068
 1181TIP3    H227739   2.316   5.585  19.611 -0.0747 -2.4940  0.5462
 1182TIP3   OH227740   0.613   5.916  19.982 -0.0551  0.0591  0.0156
 1182TIP3    H127741   0.539   5.903  19.923 -2.1468  0.2981  2.4426
 1182TIP3    H227742   0.623   5.833  20.027  0.3309  0.4354  0.6349
 1183TIP3   OH227743   3.678   5.534  20.336  0.7615  0.9659  0.4406
 1183TIP3    H127744   3.705   5.608  20.282  1.6664  0.7325  0.5559
 1183TIP3    H227745   3.707   5.457  20.289 -0.5122  0.6385  0.1357
 1184TIP3   OH227746   5.218   0.830  17.251 -0.0996 -0.2973 -0.0127
 1184TIP3    H127747   5.237   0.892  17.180 -0.0362 -0.0959  0.1791
 1184TIP3    H227748   5.301   0.784  17.265 -0.3066 -0.8511 -0.5638
 1185TIP3   OH227749   6.283   3.155  19.507 -0.4988 -0.6991  0.0344
 1185TIP3    H127750   6.193   3.144  19.537 -1.3957  0.8188 -1.8578
 1185TIP3    H227751   6.287   3.106  19.425 -0.5454  1.5116 -1.3874
 1186TIP3   OH227752   3.858   3.134  18.165  0.6421  0.1366 -0.8399
 1186TIP3    H127753   3.834   3.061  18.222  0.7600 -1.0251 -2.2277
 1186TIP3    H227754   3.786   3.140  18.102  0.6250  1.2425 -0.7385
 1187TIP3   OH227755   1.541   2.274  19.323 -0.0539 -0.2280 -0.7380
 1187TIP3    H127756   1.543   2.359  19.366  3.1548 -0.0820 -0.9226
 1187TIP3    H227757   1.525   2.211  19.393 -1.8878  0.4536 -0.5159
 1188TIP3   OH227758   3.454   6.684  19.426  0.0743  0.2268 -0.1830
 1188TIP3    H127759   3.501   6.725  19.499 -0.5597 -0.2086  0.4870
 1188TIP3    H227760   3.513   6.691  19.351 -0.0879  2.5902 -0.1649
 1189TIP3   OH227761   4.993   5.396  20.125  0.4160  0.1817  0.8605
 1189TIP3    H127762   5.009   5.396  20.030  2.2257 -0.4970  1.1280
 1189TIP3    H227763   4.951   5.480  20.142  0.8008  0.6643 -0.4373
 1190TIP3   OH227764   6.051   3.122  18.301 -0.5046  0.0829  0.4086
 1190TIP3    H127765   6.033   3.202  18.351 -1.1171 -0.0009  0.3276
 1190TIP3    H227766   5.965   3.091  18.273 -0.1798  0.1053 -0.6716
 1191TIP3   OH227767   2.175   0.365  18.463  0.2032  0.3511 -0.4602
 1191TIP3    H127768   2.088   0.369  18.502  0.6730 -0.7857  0.7678
 1191TIP3    H227769   2.230   0.421  18.517  0.7599 -0.8927  0.3234
 1192TIP3   OH227770   4.953   4.214  20.658 -0.2707 -0.1013  0.1699
 1192TIP3    H127771   4.953   4.277  20.586 -0.0748 -1.2091 -0.8370
 1192TIP3    H227772   4.967   4.129  20.615  2.4694 -0.5401  1.7262
 1193TIP3   OH227773   5.055   0.761  18.663  0.0409  0.0352  0.0558
 1193TIP3    H127774   5.136   0.723  18.629 -0.8810 -2.1117  0.0691
 1193TIP3    H227775   4.985   0.716  18.615 -1.2254 -0.9583  2.6121
 1194TIP3   OH227776   2.526   1.816  18.500 -0.8873  0.3087 -0.1623
 1194TIP3    H127777   2.457   1.859  18.550 -1.8734  0.7490 -1.8130
 1194TIP3    H227778   2.516   1.851  18.411  1.3463  0.2305 -0.4941
 1195TIP3   OH227779   5.133   5.072  18.897 -0.4536 -0.4106 -0.4048
 1195TIP3    H127780   5.189   5.149  18.881 -0.0751 -0.8694 -1.3348
 1195TIP3    H227781   5.077   5.099  18.970 -0.1154  0.6376 -0.5077
 1196TIP3   OH227782   1.760   4.436  19.525  0.0772 -0.2050  0.4841
 1196TIP3    H127783   1.745   4.487  19.446 -0.9332 -0.9182  0.1922
 1196TIP3    H227784   1.772   4.502  19.594 -0.6324  0.4305  0.0141
 1197TIP3   OH227785   1.847   0.269  19.559  0.2179 -0.8077 -0.1975
 1197TIP3    H127786   1.846   0.191  19.503  1.7009 -1.2509  0.3576
 1197TIP3    H227787   1.932   0.310  19.541  0.8126 -1.0660  1.8556
 1198TIP3   OH227788   1.511   0.543  17.972  0.4775 -0.1437  0.1169
 1198TIP3    H127789   1.481   0.629  17.942 -0.0273  0.0199  1.0563
 1198TIP3    H227790   1.551   0.503  17.894  0.0865  0.6548 -0.5109
 1199TIP3   OH227791   1.450   2.190  18.245  0.2100 -0.4126  0.5943
 1199TIP3    H127792   1.475   2.141  18.166  1.4487  0.9055  0.1230
 1199TIP3    H227793   1.532   2.228  18.276 -0.6757  1.2017  1.0356
 1200TIP3   OH227794   0.523   5.626  19.617 -0.2845  0.3526 -0.1175
 1200TIP3    H127795   0.566   5.557  19.668  0.2602  1.3437  0.8199
 1200TIP3    H227796   0.555   5.614  19.528 -0.2702 -0.6454  0.0100
 1201TIP3   OH227797   6.044   4.414  19.768  0.6393 -0.1325  0.6582
 1201TIP3    H127798   6.053   4.320  19.779  0.1700 -0.2641  0.0045
 1201TIP3    H227799   6.130   4.444  19.739  0.6497 -0.4437  0.3639
 1202TIP3   OH227800   3.228   4.177  19.820  0.9105 -0.3905 -0.1436
 1202TIP3    H127801   3.188   4.232  19.888  1.2794 -0.2897 -0.0105
 1202TIP3    H227802   3.316   4.211  19.810  0.9121 -0.5160 -0.5581
 1203TIP3   OH227803   3.885   3.174  20.477 -0.4235  0.0109 -0.0277
 1203TIP3    H127804   3.830   3.243  20.438  0.4890 -0.4655 -2.3721
 1203TIP3    H227805   3.943   3.148  20.405  1.6085 -0.7920  1.8141
 1204TIP3   OH227806   1.516   5.518  20.752  0.0089 -0.2235  0.3339
 1204TIP3    H127807   1.552   5.434  20.725 -1.5076 -0.7438 -0.1760
 1204TIP3    H227808   1.458   5.544  20.681 -0.2390  0.8255  0.8909
 1205TIP3   OH227809   4.691   2.397  20.366 -0.6637 -0.0797 -0.2811
 1205TIP3    H127810   4.630   2.360  20.429 -1.0886  1.3835  0.2075
 1205TIP3    H227811   4.636   2.435  20.298 -0.3095  1.0596  0.0500
 1206TIP3   OH227812   4.446   5.568  18.452 -0.3400  0.0689 -0.0989
 1206TIP3    H127813   4.481   5.542  18.537 -1.0023 -0.1914  0.0965
 1206TIP3    H227814   4.362   5.522  18.445  0.4416 -1.2033 -1.6038
 1207TIP3   OH227815   0.700   3.577  18.906  0.5736  0.0167 -0.2261
 1207TIP3    H127816   0.692   3.483  18.923 -1.2302  0.0688 -0.5797
 1207TIP3    H227817   0.679   3.619  18.989 -3.2758  0.1469 -1.0814
 1208TIP3   OH227818   5.565   2.241  20.114 -0.4482  0.0728  0.0474
 1208TIP3    H127819   5.622   2.316  20.100 -1.0813  0.4023 -0.8861
 1208TIP3    H227820   5.530   2.253  20.202 -0.4451  0.8178 -0.0468
 1209TIP3   OH227821   5.214   6.035  17.532 -0.0571 -0.5946 -0.0972
 1209TIP3    H127822   5.304   6.065  17.545 -0.5535 -0.2154  3.3542
 1209TIP3    H227823   5.216   5.942  17.554 -0.3161 -0.8927 -1.2693
 1210TIP3   OH227824   4.303   5.346  18.345  0.0452  0.8328 -0.2196
 1210TIP3    H127825   4.303   5.268  18.290 -2.0357  0.7636 -0.2247
 1210TIP3    H227826   4.360   5.408  18.299  1.5233 -0.5528 -0.3527
 1211TIP3   OH227827   3.519   0.314  18.349 -0.3903 -0.2272 -0.0527
 1211TIP3    H127828   3.531   0.272  18.264  0.1095 -0.4210  0.1152
 1211TIP3    H227829   3.492   0.243  18.407  0.9294 -0.4161  0.3435
 1212TIP3   OH227830   4.963   6.252  17.855 -0.3336 -0.0822 -0.0489
 1212TIP3    H127831   4.902   6.273  17.784  1.2521 -2.3376 -2.2454
 1212TIP3    H227832   5.044   6.226  17.811  1.0131 -0.8427  2.6313
 1213TIP3   OH227833   6.594   0.511  19.647  0.0808 -0.2904  0.1867
 1213TIP3    H127834   6.680   0.547  19.625 -0.3526  0.0348 -1.0397
 1213TIP3    H227835   6.613   0.420  19.673  0.7598 -0.3370 -0.4266
 1214TIP3   OH227836   4.811   5.245  20.554  0.4391 -0.5553 -0.1034
 1214TIP3    H127837   4.822   5.308  20.624  0.5794 -1.4235  0.6749
 1214TIP3    H227838   4.858   5.167  20.584  0.3576 -1.0023 -1.0796
 1215TIP3   OH227839   5.588   4.987  18.014  0.0451 -0.5962 -0.2654
 1215TIP3    H127840   5.614   5.077  18.034  0.2629 -0.8867  0.7978
 1215TIP3    H227841   5.502   4.977  18.055 -0.1307 -0.7718 -0.6715
 1216TIP3   OH227842   5.065   4.039  18.327 -0.0781  0.6819  0.3026
 1216TIP3    H127843   5.026   3.973  18.383 -0.7409  0.1256 -0.7745
 1216TIP3    H227844   4.992   4.093  18.298  0.2382  0.9096 -0.0831
 1217TIP3   OH227845   4.032   5.991  18.695 -0.0734  0.6330 -0.4917
 1217TIP3    H127846   4.083   6.040  18.630  0.4287 -0.8203 -1.2412
 1217TIP3    H227847   4.093   5.925  18.727 -0.6368  0.6931  0.7292
 1218TIP3   OH227848   3.690   1.858  20.356 -0.3646  0.7311  0.2231
 1218TIP3    H127849   3.678   1.938  20.305  0.4323  1.4706  1.1548
 1218TIP3    H227850   3.731   1.887  20.438  0.9445 -0.7461  0.1463
 1219TIP3   OH227851   2.606   5.946  18.774  0.6949 -0.7338 -0.0259
 1219TIP3    H127852   2.597   5.915  18.684  0.0432  0.8481 -0.5562
 1219TIP3    H227853   2.525   5.994  18.790  1.2383 -0.1510  1.0585
 1220TIP3   OH227854   0.111   1.010  19.001  0.2460 -0.0796 -0.9453
 1220TIP3    H127855   0.191   1.054  19.028  0.1604 -0.3847 -0.1808
 1220TIP3    H227856   0.139   0.949  18.932  0.6107  0.0566 -0.9187
 1221TIP3   OH227857   1.469   6.503  20.252  0.1512 -0.6266 -0.3497
 1221TIP3    H127858   1.452   6.501  20.346 -0.0426  0.7846 -0.3332
 1221TIP3    H227859   1.440   6.417  20.220 -1.4786 -0.4649  0.6065
 1222TIP3   OH227860   5.236   5.175  19.192 -0.5240  0.4056  0.4040
 1222TIP3    H127861   5.304   5.184  19.260 -1.6052  3.1619  1.2646
 1222TIP3    H227862   5.278   5.207  19.112 -0.1895  0.1047  0.4566
 1223TIP3   OH227863   6.488   4.964  18.530  0.1340 -0.3292 -0.6114
 1223TIP3    H127864   6.493   4.910  18.609 -0.6354  1.2738  0.5702
 1223TIP3    H227865   6.559   5.028  18.540 -1.0017  0.9327 -0.3800
 1224TIP3   OH227866   5.702   4.215  19.410 -0.0863 -0.1927 -0.6309
 1224TIP3    H127867   5.645   4.203  19.334 -0.4325 -1.8068 -0.1626
 1224TIP3    H227868   5.782   4.255  19.374  0.2251 -1.9867 -2.0703
 1225TIP3   OH227869   4.207   4.464  20.506  0.0567  0.5434  0.5195
 1225TIP3    H127870   4.175   4.380  20.539  0.9288 -0.4199 -1.0299
 1225TIP3    H227871   4.185   4.526  20.576 -1.0337 -0.8648  1.4870
 1226TIP3   OH227872   1.394   1.399  17.500 -0.0783  0.1744  0.3008
 1226TIP3    H127873   1.447   1.419  17.577 -1.0890 -1.1200  1.3686
 1226TIP3    H227874   1.419   1.310  17.475 -2.0091 -0.6696  1.1261
 1227TIP3   OH227875   6.439   0.419  18.534 -0.8687  0.0428 -0.0301
 1227TIP3    H127876   6.431   0.329  18.566  0.6515 -0.5655 -1.2109
 1227TIP3    H227877   6.359   0.462  18.564 -1.3410 -1.5186  1.1204
 1228TIP3   OH227878   4.606   6.366  17.470 -0.4265  0.3916  0.0789
 1228TIP3    H127879   4.568   6.286  17.433 -2.2010  1.8287 -1.4552
 1228TIP3    H227880   4.536   6.431  17.460  0.6175  1.9217  2.1389
 1229TIP3   OH227881   2.539   3.526  19.306 -0.1661 -0.3946  1.0616
 1229TIP3    H127882   2.494   3.468  19.367 -0.0403 -0.1614  1.3767
 1229TIP3    H227883   2.616   3.477  19.278 -0.7460 -0.9013  0.3195
 1230TIP3   OH227884   5.421   2.041  19.331 -0.1596 -0.2188  0.0879
 1230TIP3    H127885   5.401   1.951  19.356 -1.8261 -0.0134 -0.3583
 1230TIP3    H227886   5.485   2.070  19.395  0.7171 -1.8318  0.0084
 1231TIP3   OH227887   0.077   4.279  17.566  0.4985 -0.1273 -0.1878
 1231TIP3    H127888   0.056   4.290  17.473  0.8345 -0.9009 -0.3660
 1231TIP3    H227889  -0.005   4.248  17.605  0.4102  0.0138 -0.2603
 1232TIP3   OH227890   3.958   1.643  17.588 -0.0805  0.3458 -0.0876
 1232TIP3    H127891   3.927   1.721  17.634 -0.1633  0.6349 -0.6266
 1232TIP3    H227892   4.032   1.674  17.536  0.0311  0.0135 -0.1300
 1233TIP3   OH227893   6.659   1.747  18.485 -0.7827  0.0986  0.0807
 1233TIP3    H127894   6.656   1.671  18.425 -0.0739 -0.8902  1.2524
 1233TIP3    H227895   6.577   1.793  18.469 -1.1040 -0.7535 -0.8681
 1234TIP3   OH227896   3.787   4.088  19.935  0.4762 -0.2499 -0.1209
 1234TIP3    H127897   3.755   4.114  20.021  1.8952  1.0100  0.0574
 1234TIP3    H227898   3.727   4.132  19.874  0.2359 -0.1144  0.2079
 1235TIP3   OH227899   6.678   6.436  19.627  0.1257  0.1331 -0.6280
 1235TIP3    H127900   6.676   6.400  19.716  1.2299  0.7061 -0.3402
 1235TIP3    H227901   6.636   6.370  19.572  1.9202 -1.5285 -0.1022
 1236TIP3   OH227902   1.259   0.262  19.557  0.4188 -0.1154  0.3371
 1236TIP3    H127903   1.335   0.283  19.503  0.4278 -0.1221  0.3471
 1236TIP3    H227904   1.205   0.341  19.554  0.4319 -0.1063  0.3396
 1237TIP3   OH227905   3.896   1.112  20.063 -0.4339  0.2551  0.4337
 1237TIP3    H127906   3.806   1.137  20.045 -1.0223 -2.0989 -0.1924
 1237TIP3    H227907   3.890   1.039  20.125  0.8575 -1.4618 -1.3244
 1238TIP3   OH227908   2.917   2.745  19.311  0.5194 -0.4543 -0.2367
 1238TIP3    H127909   2.921   2.698  19.228  0.3266  0.8353 -1.0052
 1238TIP3    H227910   2.980   2.817  19.301 -0.0821  0.1781  0.4242
 1239TIP3   OH227911   5.208   0.735  16.553  0.1056  0.0144  0.0405
 1239TIP3    H127912   5.288   0.748  16.503  1.8708  2.1017  3.0404
 1239TIP3    H227913   5.144   0.793  16.511  0.9796  0.3893 -0.8168
 1240TIP3   OH227914   0.362   0.256  20.421  0.3211 -0.2634 -0.1991
 1240TIP3    H127915   0.289   0.301  20.377 -1.3098 -2.3964  0.1997
 1240TIP3    H227916   0.332   0.244  20.511  0.4920 -2.5069 -0.4004
 1241TIP3   OH227917   1.676   3.997  19.037  0.0201  0.5468  0.0640
 1241TIP3    H127918   1.612   3.937  19.000  0.2047 -0.0777  0.7240
 1241TIP3    H227919   1.735   4.018  18.965 -1.6487  2.1838 -0.9109
 1242TIP3   OH227920   1.426   5.008  20.494  0.3837 -0.1702 -0.4256
 1242TIP3    H127921   1.335   4.980  20.505  1.1149 -2.2544  0.8520
 1242TIP3    H227922   1.449   4.981  20.405  0.0088 -0.4465 -0.4416
 1243TIP3   OH227923   2.102   4.209  18.934  0.5729  0.1265 -0.0737
 1243TIP3    H127924   2.191   4.245  18.930  0.0844  1.3001 -0.8226
 1243TIP3    H227925   2.081   4.208  19.027  1.0266  0.7384  0.0448
 1244TIP3   OH227926   4.225   4.172  19.251  0.3652 -0.1413  0.4407
 1244TIP3    H127927   4.298   4.156  19.191  0.4058  0.6201  0.2755
 1244TIP3    H227928   4.231   4.265  19.272  0.4264 -0.4212  1.7335
 1245TIP3   OH227929   2.692   3.253  20.335  0.4308 -0.1931  0.1463
 1245TIP3    H127930   2.706   3.301  20.253  0.5011 -0.5460 -0.0510
 1245TIP3    H227931   2.616   3.296  20.375  1.3094  0.9682  0.6395
 1246TIP3   OH227932   2.670   3.660  18.300  0.2064  0.7669  0.8422
 1246TIP3    H127933   2.736   3.692  18.238 -1.8526  1.0413 -1.3748
 1246TIP3    H227934   2.605   3.730  18.305 -0.0980  0.4031  2.7538
 1247TIP3   OH227935   1.315   0.607  18.450 -0.6565  0.9691  0.1525
 1247TIP3    H127936   1.319   0.586  18.356  0.3789  0.1489  0.3478
 1247TIP3    H227937   1.283   0.697  18.454  0.0279  1.2892 -1.0368
 1248TIP3   OH227938   5.987   0.964  19.132  0.0113  0.0869  0.4569
 1248TIP3    H127939   6.075   0.932  19.152  0.7831  0.9724 -1.3099
 1248TIP3    H227940   5.964   0.922  19.050 -1.2300 -0.1114  0.8843
 1249TIP3   OH227941   5.637   5.884  20.549  0.2573  0.2169  0.2800
 1249TIP3    H127942   5.628   5.972  20.513 -0.1187  0.1145  0.1181
 1249TIP3    H227943   5.553   5.842  20.530  1.5960 -1.3920 -3.0025
 1250TIP3   OH227944   1.158   3.014  18.633  0.2570 -0.0994 -0.1226
 1250TIP3    H127945   1.214   2.974  18.567  1.5916  1.2845  0.0921
 1250TIP3    H227946   1.217   3.072  18.682 -1.0330  0.1469  1.2233
 1251TIP3   OH227947   6.001   5.470  19.390 -0.4759 -0.6576 -0.6462
 1251TIP3    H127948   6.027   5.545  19.335 -1.4131  0.7657  0.7564
 1251TIP3    H227949   6.079   5.450  19.441 -0.4003 -0.2100 -0.5807
 1252TIP3   OH227950   2.499   1.307  20.545  0.2870 -0.7419  0.0984
 1252TIP3    H127951   2.544   1.380  20.586 -0.6531  0.2408 -0.5789
 1252TIP3    H227952   2.521   1.313  20.452 -3.7203  1.7981 -0.9174
 1253TIP3   OH227953   6.451   3.660  20.012  0.2514  0.2113  0.4972
 1253TIP3    H127954   6.386   3.620  19.954 -0.1367  1.6369 -0.0860
 1253TIP3    H227955   6.530   3.608  19.999 -0.2988 -0.5051 -0.0594
 1254TIP3   OH227956   1.720   2.299  19.112  0.3965 -0.2360 -0.8766
 1254TIP3    H127957   1.712   2.220  19.059 -0.8777 -0.3147 -0.5980
 1254TIP3    H227958   1.661   2.285  19.186 -0.4598  1.2791 -1.2192
 1255TIP3   OH227959   1.769   1.024  17.339  0.7140 -0.1680 -0.1531
 1255TIP3    H127960   1.776   1.058  17.428  3.4850  0.6635 -0.5850
 1255TIP3    H227961   1.815   0.940  17.341 -2.3930 -2.0242 -0.0698
 1256TIP3   OH227962   2.873   5.619  18.919 -0.4279  0.2718 -0.8452
 1256TIP3    H127963   2.927   5.578  18.986  1.6694  2.8728 -0.7754
 1256TIP3    H227964   2.796   5.651  18.967  0.3977  0.9137  0.0947
 1257TIP3   OH227965   1.743   2.614  18.117 -0.5056 -0.4659  0.4975
 1257TIP3    H127966   1.755   2.527  18.077  0.0438 -0.6050  0.9469
 1257TIP3    H227967   1.656   2.611  18.156 -1.1417 -0.2660 -0.8320
 1258TIP3   OH227968   6.263   4.846  18.422 -0.9615  0.0886  1.1991
 1258TIP3    H127969   6.349   4.883  18.445 -0.6437 -0.3182  0.6838
 1258TIP3    H227970   6.220   4.832  18.506 -0.2184 -0.4154  1.5062
 1259TIP3   OH227971   5.999   3.869  18.421 -0.0418  0.0536 -0.3274
 1259TIP3    H127972   5.950   3.793  18.392  0.4423 -0.8122  1.0058
 1259TIP3    H227973   5.935   3.940  18.422 -0.6699 -0.4948 -0.9157
 1260TIP3   OH227974   0.786   2.045  18.030  0.7875  0.0684  0.0717
 1260TIP3    H127975   0.854   2.014  18.089  0.2626 -1.6487 -0.1672
 1260TIP3    H227976   0.761   2.131  18.065  2.3758  0.3006  0.7148
 1261TIP3   OH227977   5.071   4.808  20.102  0.6547  0.2928 -0.2368
 1261TIP3    H127978   4.998   4.866  20.080 -0.3857 -0.4319  1.1208
 1261TIP3    H227979   5.030   4.733  20.145  2.1132 -0.6893 -0.4924
 1262TIP3   OH227980   3.967   3.200  19.123 -0.1941  0.1984  0.4146
 1262TIP3    H127981   3.877   3.211  19.092 -0.5581 -2.0731  0.4977
 1262TIP3    H227982   4.018   3.260  19.068 -1.7538  1.8212  0.6188
 1263TIP3   OH227983   0.430   6.612  18.297 -0.0300 -0.5894 -0.6738
 1263TIP3    H127984   0.433   6.577  18.386  0.6497 -1.2425 -0.9517
 1263TIP3    H227985   0.340   6.644  18.288 -0.7289 -2.3967 -0.4652
 1264TIP3   OH227986   5.720   3.491  19.293  0.6156  0.2191 -0.1386
 1264TIP3    H127987   5.780   3.546  19.243  2.0811  0.5579  1.8556
 1264TIP3    H227988   5.753   3.402  19.280  0.7691  0.2652 -0.0660
 1265TIP3   OH227989   0.115   1.608  20.559 -0.6103  0.2855 -0.4408
 1265TIP3    H127990   0.086   1.637  20.473 -2.0478 -0.1787 -0.1316
 1265TIP3    H227991   0.162   1.683  20.595 -0.7354  0.7749 -1.2780
 1266TIP3   OH227992   4.655   5.725  19.979  0.1581 -0.3156 -0.0899
 1266TIP3    H127993   4.591   5.783  20.020  0.2385 -0.1956 -0.1329
 1266TIP3    H227994   4.718   5.784  19.939  1.3722 -0.4072  1.5874
 1267TIP3   OH227995   5.355   3.228  18.220  0.0111  0.5631  0.9668
 1267TIP3    H127996   5.384   3.294  18.158 -0.2178 -1.0942 -1.0170
 1267TIP3    H227997   5.262   3.248  18.235 -0.8768 -0.8332 -1.8812
 1268TIP3   OH227998   1.176   3.580  19.784  0.1581 -0.0247  0.8070
 1268TIP3    H127999   1.085   3.590  19.758  0.9743 -0.5687 -2.6984
 1268TIP3    H228000   1.197   3.488  19.768  2.1603  0.7727 -2.0057
 1269TIP3   OH228001   4.768   3.317  18.267  0.7414  0.5037  0.0285
 1269TIP3    H128002   4.782   3.368  18.187  1.0741 -1.7796 -1.4572
 1269TIP3    H228003   4.795   3.376  18.338  1.4100  2.2550 -1.5869
 1270TIP3   OH228004   1.699   6.645  19.961 -0.6456 -0.2497  0.3678
 1270TIP3    H128005   1.627   6.655  19.899 -1.0434 -0.8425  0.7233
 1270TIP3    H228006   1.685   6.715  20.025 -1.6469 -1.1088  1.1343
 1271TIP3   OH228007   0.007   5.410  19.332  0.2400  0.2398 -0.4924
 1271TIP3    H128008  -0.066   5.409  19.394 -0.2032  2.8851 -0.8540
 1271TIP3    H228009   0.030   5.318  19.320 -1.2704 -0.4885  1.6855
 1272TIP3   OH228010   5.797   5.966  20.195 -0.1115 -0.2459  0.0626
 1272TIP3    H128011   5.828   6.014  20.271  1.1392 -0.3864 -0.3255
 1272TIP3    H228012   5.821   6.021  20.120  0.9159 -1.2214 -0.3607
 1273TIP3   OH228013   4.156   4.201  20.865  0.3662  0.2072  0.1775
 1273TIP3    H128014   4.183   4.260  20.935  0.4925  0.2778  0.0675
 1273TIP3    H228015   4.217   4.128  20.870  0.5420  0.3380 -0.0305
 1274TIP3   OH228016   6.556   5.404  20.137  0.5098 -0.0431  0.5139
 1274TIP3    H128017   6.534   5.492  20.105  1.6275  0.6537  1.5750
 1274TIP3    H228018   6.632   5.378  20.085 -1.0290 -1.2792 -1.2198
 1275TIP3   OH228019   6.745   2.575  20.730  0.0898  0.1020 -0.2702
 1275TIP3    H128020   6.773   2.618  20.649 -1.1923  2.1744  0.3154
 1275TIP3    H228021   6.683   2.508  20.702 -0.9645  1.3448 -0.9926
 1276TIP3   OH228022   3.942   2.757  20.488  0.3495 -0.0649 -0.2075
 1276TIP3    H128023   4.028   2.717  20.500  0.7196  0.1430 -1.9206
 1276TIP3    H228024   3.943   2.789  20.398 -1.5933 -0.2295 -0.3312
 1277TIP3   OH228025   5.002   3.068  17.791 -0.1701 -0.1393  0.3859
 1277TIP3    H128026   5.069   3.136  17.789  0.6040 -0.8968  0.0083
 1277TIP3    H228027   5.045   2.991  17.755 -1.5139 -0.3991 -0.7506
 1278TIP3   OH228028   1.654   1.493  19.403  0.8462 -0.2027  0.0798
 1278TIP3    H128029   1.697   1.484  19.488  0.1446  0.6574  0.5376
 1278TIP3    H228030   1.563   1.469  19.419  0.6356  0.2802 -0.3420
 1279TIP3   OH228031   2.457   0.696  18.110  0.2678  0.0023 -0.4453
 1279TIP3    H128032   2.394   0.657  18.171 -0.0028  0.0137 -0.7193
 1279TIP3    H228033   2.539   0.698  18.159 -0.0442  0.4078  0.0699
 1280TIP3   OH228034   1.815   2.945  18.974 -0.4003  0.0155 -0.3007
 1280TIP3    H128035   1.746   2.951  18.908  0.3212 -0.1749 -1.0865
 1280TIP3    H228036   1.872   2.874  18.943 -0.4388 -0.5609  0.8976
 1281TIP3   OH228037   3.865   3.119  17.780 -0.1912  0.5336  0.5574
 1281TIP3    H128038   3.943   3.068  17.758  0.7241  1.0605  2.4271
 1281TIP3    H228039   3.861   3.186  17.711  1.2137  0.7159  0.6107
 1282TIP3   OH228040   4.829   0.626  16.838  0.1012  0.1491  0.1863
 1282TIP3    H128041   4.819   0.661  16.927  3.0003  0.4393  0.4717
 1282TIP3    H228042   4.844   0.704  16.784  0.2543 -0.1747 -0.2359
 1283TIP3   OH228043   1.239   2.284  19.123  0.6015 -0.7348 -0.5444
 1283TIP3    H128044   1.333   2.300  19.117  0.3840  0.6622 -0.6152
 1283TIP3    H228045   1.227   2.243  19.209  0.9590  1.9450  0.8912
 1284TIP3   OH228046   5.572   2.349  17.985  0.6293  0.1526  0.6219
 1284TIP3    H128047   5.563   2.374  17.893  1.4016  1.7241  0.9466
 1284TIP3    H228048   5.519   2.413  18.033 -0.4716 -1.1676  1.2437
 1285TIP3   OH228049   3.289   2.224  18.226  0.2413  0.1470  0.1369
 1285TIP3    H128050   3.206   2.271  18.226  0.7816  1.1104  0.5791
 1285TIP3    H228051   3.300   2.196  18.316  1.6382  2.2835  0.6931
 1286TIP3   OH228052   0.251   3.992  17.951 -0.4542 -0.2032  0.0786
 1286TIP3    H128053   0.317   4.037  18.004 -0.6705  2.0324 -1.4201
 1286TIP3    H228054   0.256   4.035  17.866 -2.4424 -1.4090 -0.7074
 1287TIP3   OH228055   5.906   6.085  20.428 -0.2035  0.5619 -0.5130
 1287TIP3    H128056   5.829   6.121  20.472  0.2090  0.2716  0.4678
 1287TIP3    H228057   5.922   6.001  20.472 -1.4029 -1.1149 -3.0079
 1288TIP3   OH228058   6.142   0.194  20.158  0.2193  0.7137 -0.2677
 1288TIP3    H128059   6.145   0.199  20.254 -3.9705  0.5610  0.0875
 1288TIP3    H228060   6.168   0.281  20.129 -0.0515  1.3007  1.1397
 1289TIP3   OH228061   0.538   5.382  20.195  0.2112  0.0064 -0.3064
 1289TIP3    H128062   0.526   5.307  20.254  2.2859  0.2773  0.5440
 1289TIP3    H228063   0.627   5.373  20.162 -0.1249  1.1410 -1.6200
 1290TIP3   OH228064   4.821   6.192  19.174  0.4941  0.2733 -0.2072
 1290TIP3    H128065   4.855   6.278  19.149  1.2196  0.1204  0.2234
 1290TIP3    H228066   4.875   6.166  19.249 -0.0724 -0.3231  0.0001
 1291TIP3   OH228067   3.293   6.282  18.712 -0.0263  0.1359 -0.3583
 1291TIP3    H128068   3.356   6.214  18.689 -0.4349 -0.2932 -0.2099
 1291TIP3    H228069   3.208   6.245  18.691 -0.2228  0.8128 -0.8023
 1292TIP3   OH228070   1.790   4.452  18.491 -0.1894 -0.0629  0.2089
 1292TIP3    H128071   1.704   4.413  18.500  1.2196 -2.9482  3.3177
 1292TIP3    H228072   1.847   4.379  18.468  1.9366  1.0268  1.6937
 1293TIP3   OH228073   6.247   2.426  19.184 -0.5579  0.7047 -0.0880
 1293TIP3    H128074   6.165   2.462  19.216 -0.8095  0.2616 -0.2409
 1293TIP3    H228075   6.314   2.463  19.243 -0.6234  2.6458 -1.1338
 1294TIP3   OH228076   2.966   3.258  19.807 -0.1159 -0.4776  0.5191
 1294TIP3    H128077   3.032   3.295  19.748  0.6535 -1.4056  0.7718
 1294TIP3    H228078   2.891   3.240  19.750  0.3194 -0.5894 -0.0274
 1295TIP3   OH228079   0.802   2.982  18.055 -0.1450 -0.2197  0.2509
 1295TIP3    H128080   0.875   2.929  18.087  0.7404  1.3363  0.9359
 1295TIP3    H228081   0.835   3.025  17.976 -0.5549 -0.0423  0.1697
 1296TIP3   OH228082   0.715   5.193  20.590 -0.2697  0.4873 -0.0648
 1296TIP3    H128083   0.670   5.112  20.617 -1.8069  1.3603  0.1149
 1296TIP3    H228084   0.802   5.186  20.628 -0.4957 -0.9180  0.2592
 1297TIP3   OH228085   6.097   5.272  18.550  0.3376 -0.1433  0.6732
 1297TIP3    H128086   6.191   5.281  18.566  0.3480 -2.0453  2.0743
 1297TIP3    H228087   6.092   5.220  18.470  0.4787  0.0119  0.5616
 1298TIP3   OH228088   1.993   3.252  19.556 -0.4345 -0.4126  0.1893
 1298TIP3    H128089   2.037   3.330  19.590 -2.5591  1.4930 -1.2277
 1298TIP3    H228090   2.057   3.181  19.570  1.9625  1.6945  0.6409
 1299TIP3   OH228091   2.493   4.445  19.412  0.3618 -0.1635  0.2770
 1299TIP3    H128092   2.442   4.409  19.485 -0.8976  0.9207 -0.0147
 1299TIP3    H228093   2.445   4.416  19.334 -0.9152  2.2941  0.0345
 1300TIP3   OH228094   5.449   6.019  18.637  0.0640 -0.0400  0.1543
 1300TIP3    H128095   5.412   6.085  18.578 -0.5765 -0.5927 -0.0730
 1300TIP3    H228096   5.541   6.012  18.610 -0.6442 -1.6977 -2.1232
 1301TIP3   OH228097   3.259   3.579  20.454  0.1644 -0.6561 -0.2527
 1301TIP3    H128098   3.187   3.591  20.517  0.2740 -2.3398  0.2275
 1301TIP3    H228099   3.220   3.528  20.383  1.0181 -2.1458  0.3147
 1302TIP3   OH228100   3.204   2.469  18.876 -0.5622  0.5287  0.3825
 1302TIP3    H128101   3.142   2.411  18.832 -0.9477  1.2113  0.0026
 1302TIP3    H228102   3.201   2.550  18.825 -2.0090  1.8331  2.3693
 1303TIP3   OH228103   3.892   1.143  18.479 -0.8447  0.2488 -0.2973
 1303TIP3    H128104   3.808   1.098  18.483 -1.5775  1.6021  0.0736
 1303TIP3    H228105   3.919   1.151  18.571 -0.0399 -0.6245 -0.4373
 1304TIP3   OH228106   3.849   0.749  18.130 -0.0130  0.6135  0.2242
 1304TIP3    H128107   3.893   0.831  18.156 -0.2461  0.8947 -0.2494
 1304TIP3    H228108   3.884   0.683  18.190  0.9812  0.8520 -0.0636
 1305TIP3   OH228109   2.786   2.493  17.420 -0.1633  0.3185  0.4334
 1305TIP3    H128110   2.849   2.461  17.356 -1.8393  1.4849 -1.9713
 1305TIP3    H228111   2.736   2.415  17.446  1.0793 -0.3091  1.0137
 1306TIP3   OH228112   1.633   2.044  18.963  0.2748  0.1659 -0.2030
 1306TIP3    H128113   1.660   1.962  19.004  0.8857  0.1607 -0.6176
 1306TIP3    H228114   1.560   2.020  18.907  1.1849 -0.3063 -1.2170
 1307TIP3   OH228115   4.238   6.603  18.077 -0.1634 -0.9053 -0.1964
 1307TIP3    H128116   4.199   6.533  18.129 -0.2443 -1.0499 -0.4480
 1307TIP3    H228117   4.164   6.655  18.046 -0.1814 -1.3123 -0.8621
 1308TIP3   OH228118   6.667   0.883  16.565 -0.5063 -0.2697 -0.3567
 1308TIP3    H128119   6.761   0.899  16.576 -0.9502  1.9555  0.8309
 1308TIP3    H228120   6.654   0.884  16.471  0.5326  0.3606 -0.5156
 1309TIP3   OH228121   3.956   2.333  18.906  0.1400 -0.2277 -0.0458
 1309TIP3    H128122   4.048   2.308  18.897  0.2707 -0.0252  0.6721
 1309TIP3    H228123   3.959   2.421  18.944 -0.3456  0.0008 -0.5315
 1310TIP3   OH228124   0.410   2.975  17.277  0.0967  0.3585  0.5810
 1310TIP3    H128125   0.318   2.968  17.304 -0.8895 -0.8478 -2.5802
 1310TIP3    H228126   0.444   2.886  17.284  1.0435  0.7745  1.6098
 1311TIP3   OH228127   3.352   3.806  19.914 -0.1528  0.0564 -0.0188
 1311TIP3    H128128   3.388   3.776  19.830 -2.7345 -1.1655 -0.7894
 1311TIP3    H228129   3.326   3.726  19.959 -0.3246  0.7883  1.2315
 1312TIP3   OH228130   0.831   0.043  20.534 -0.0521 -0.2574  0.2852
 1312TIP3    H128131   0.762   0.091  20.490  0.9508  0.1383 -0.9142
 1312TIP3    H228132   0.795  -0.045  20.548 -0.9682  0.0943  0.1625
 1313TIP3   OH228133   1.724   4.786  20.768  0.1338  0.0939 -0.5334
 1313TIP3    H128134   1.664   4.763  20.696  0.9258 -0.4935 -1.0127
 1313TIP3    H228135   1.781   4.853  20.731  0.9935 -0.7021 -0.6874
 1314TIP3   OH228136   3.227   6.185  19.495  0.1509 -0.4871  0.1281
 1314TIP3    H128137   3.315   6.168  19.531  1.5711  1.9677 -1.8900
 1314TIP3    H228138   3.214   6.117  19.430  1.4204  0.2089 -0.8879
 1315TIP3   OH228139   5.385   2.780  18.510  0.4727  0.3569  0.1004
 1315TIP3    H128140   5.480   2.773  18.522  0.6330 -0.6967 -1.4589
 1315TIP3    H228141   5.375   2.852  18.447  0.3482 -0.4366 -0.8018
 1316TIP3   OH228142   6.144   0.580  18.034 -0.0571 -0.0540 -0.3119
 1316TIP3    H128143   6.168   0.670  18.011  0.6227 -0.1766 -0.1125
 1316TIP3    H228144   6.054   0.586  18.066  0.7336  0.9342  1.9476
 1317TIP3   OH228145   2.790   2.379  17.707 -0.8532  0.4647 -0.6464
 1317TIP3    H128146   2.816   2.467  17.680 -0.8338  0.8724  0.6373
 1317TIP3    H228147   2.799   2.326  17.628  1.7065  1.0520 -0.8485
 1318TIP3   OH228148   0.942   3.430  19.136 -0.2537  0.2400  0.0947
 1318TIP3    H128149   0.891   3.497  19.181  0.6914 -0.0471  1.7064
 1318TIP3    H228150   1.027   3.471  19.120  0.8990 -0.9359  2.5227
 1319TIP3   OH228151   3.720   3.529  19.656  0.1147 -0.5379 -0.7531
 1319TIP3    H128152   3.796   3.588  19.658  1.5411 -2.2846 -1.2849
 1319TIP3    H228153   3.721   3.491  19.569 -1.3509 -0.6779 -0.7412
 1320TIP3   OH228154   6.302   5.890  18.611  0.7738  0.0364 -0.4166
 1320TIP3    H128155   6.300   5.829  18.537 -0.0215 -1.2635  0.6303
 1320TIP3    H228156   6.245   5.850  18.676 -0.8970  2.6143 -0.1964
 1321TIP3   OH228157   5.838   2.206  17.218 -0.0318  0.3409 -0.1350
 1321TIP3    H128158   5.760   2.176  17.264  0.0370  1.2059  0.5598
 1321TIP3    H228159   5.908   2.148  17.249  0.4488  2.1427  2.4797
 1322TIP3   OH228160   4.706   5.785  18.432 -0.7295 -0.1227 -0.1976
 1322TIP3    H128161   4.653   5.715  18.470 -0.0853 -0.8695 -0.6247
 1322TIP3    H228162   4.795   5.765  18.460 -0.6720  1.2128  0.6537
 1323TIP3   OH228163   5.051   1.087  19.140  0.3996 -0.1408 -0.7460
 1323TIP3    H128164   5.100   1.126  19.067 -0.7712  1.7601 -0.5658
 1323TIP3    H228165   4.980   1.038  19.097  0.0735  0.4682 -0.9122
 1324TIP3   OH228166   5.009   2.914  20.246  0.1278 -0.0587 -0.1651
 1324TIP3    H128167   4.958   2.975  20.299 -0.2256 -0.3799 -0.1374
 1324TIP3    H228168   5.100   2.937  20.266  0.0881  2.1404 -2.0231
 1325TIP3   OH228169   0.336   2.648  20.738  0.3415  0.5234  0.8335
 1325TIP3    H128170   0.317   2.678  20.827  2.6085  0.8829  1.2377
 1325TIP3    H228171   0.406   2.585  20.747 -0.0642 -0.1945 -0.6384
 1326TIP3   OH228172   0.738   4.458  20.025  0.0766 -0.9542  0.1976
 1326TIP3    H128173   0.682   4.411  20.087 -0.0930  2.3198  2.7889
 1326TIP3    H228174   0.692   4.450  19.941 -1.3913 -2.8727  1.1001
 1327TIP3   OH228175   5.733   4.036  19.917 -0.2570 -0.5444 -1.3213
 1327TIP3    H128176   5.728   4.125  19.882  0.4623 -0.8107 -2.1231
 1327TIP3    H228177   5.815   4.034  19.966 -1.1759 -0.2250  0.3047
 1328TIP3   OH228178   6.154   2.504  18.617 -0.0667  0.2647  0.4579
 1328TIP3    H128179   6.213   2.490  18.543  0.0219  1.6917  0.2292
 1328TIP3    H228180   6.176   2.592  18.649  0.3454 -0.5622  2.6081
 1329TIP3   OH228181   2.085   3.680  20.042  0.1954 -0.7648  0.0271
 1329TIP3    H128182   2.136   3.704  19.964 -0.3186 -0.1522 -0.1215
 1329TIP3    H228183   2.055   3.763  20.078  0.2182 -1.0612  0.7446
 1330TIP3   OH228184   6.744   6.574  17.417  0.3063  0.4452  0.3053
 1330TIP3    H128185   6.766   6.502  17.358  1.9388  2.7229 -2.1275
 1330TIP3    H228186   6.658   6.604  17.386 -0.5888 -0.6744  1.6194
 1331TIP3   OH228187   3.555   0.627  17.957  0.6238 -0.1504 -0.3083
 1331TIP3    H128188   3.481   0.686  17.970  0.5581 -0.1602 -0.6165
 1331TIP3    H228189   3.515   0.543  17.932  0.6650 -0.6541  1.2477
 1332TIP3   OH228190   3.238   2.873  19.869 -0.2675  0.5315  0.0225
 1332TIP3    H128191   3.316   2.819  19.874 -0.9587 -0.3944  1.3183
 1332TIP3    H228192   3.180   2.827  19.808 -0.0817  0.8455 -0.3924
 1333TIP3   OH228193   1.368   1.263  20.335 -0.1428 -0.4437  0.3727
 1333TIP3    H128194   1.457   1.290  20.358 -0.4040 -1.2543  2.5845
 1333TIP3    H228195   1.344   1.199  20.403 -2.2660 -0.5556 -0.4044
 1334TIP3   OH228196   4.957   1.806  19.388  0.0465 -0.7365  0.0983
 1334TIP3    H128197   4.942   1.886  19.338 -1.7872  0.2253  2.0194
 1334TIP3    H228198   4.944   1.735  19.325  1.6992  0.4102 -1.6478
 1335TIP3   OH228199   4.573   4.307  20.197 -0.0018  0.2769 -0.3272
 1335TIP3    H128200   4.632   4.248  20.243 -1.6112 -0.9227  0.3124
 1335TIP3    H228201   4.526   4.353  20.267 -1.4125 -0.4705 -0.7408
 1336TIP3   OH228202   4.704   3.934  18.321  0.2989  0.1255 -0.0401
 1336TIP3    H128203   4.705   4.021  18.281  0.9434  0.5826  0.9250
 1336TIP3    H228204   4.732   3.875  18.252  1.4834  0.9029 -0.2426
 1337TIP3   OH228205   5.909   5.515  20.552  0.0101  0.1903 -0.1980
 1337TIP3    H128206   5.827   5.483  20.514  0.7118  1.3096 -2.8773
 1337TIP3    H228207   5.882   5.580  20.617 -1.2362 -0.9613  0.4838
 1338TIP3   OH228208   4.638   6.393  18.037  0.3966  0.4346 -0.4335
 1338TIP3    H128209   4.597   6.475  18.064  0.3558  0.0029  0.9052
 1338TIP3    H228210   4.604   6.377  17.949  0.0495  1.6085 -0.5392
 1339TIP3   OH228211   0.568   6.438  20.281  0.2201  0.1517 -0.3480
 1339TIP3    H128212   0.476   6.464  20.280  0.0739 -0.3381  0.3305
 1339TIP3    H228213   0.567   6.343  20.272  0.7256  0.2693 -1.9738
 1340TIP3   OH228214   0.437   4.285  18.948  0.1593 -0.0569  0.5177
 1340TIP3    H128215   0.426   4.380  18.949  0.8958  0.0354  0.1586
 1340TIP3    H228216   0.378   4.255  18.879 -1.0938 -0.0055  1.5338
 1341TIP3   OH228217   0.981   2.053  16.798 -0.7772  0.0465 -0.2951
 1341TIP3    H128218   0.957   2.134  16.842 -0.0844  0.6021 -0.9113
 1341TIP3    H228219   0.953   1.984  16.857 -0.3774  0.7594  0.7480
 1342TIP3   OH228220   1.719   1.291  16.460 -0.1625  0.4858 -0.6661
 1342TIP3    H128221   1.719   1.202  16.496  2.4585  0.1227 -1.3697
 1342TIP3    H228222   1.627   1.309  16.442 -1.3243 -0.3853  3.4090
 1343TIP3   OH228223   5.542   0.831  20.015  0.0805 -0.5685 -0.0761
 1343TIP3    H128224   5.464   0.786  19.983 -1.2531  1.1350  0.6050
 1343TIP3    H228225   5.556   0.795  20.103 -2.2504  1.6476  1.3484
 1344TIP3   OH228226   0.441   0.421  17.533  0.3168 -0.3580  0.4300
 1344TIP3    H128227   0.480   0.420  17.445  1.3556  0.8759  0.8412
 1344TIP3    H228228   0.415   0.330  17.549  1.1842 -0.8288 -0.6757
 1345TIP3   OH228229   0.710   4.101  18.606 -0.2334 -0.5886 -0.6508
 1345TIP3    H128230   0.773   4.109  18.677 -0.9215  0.3644 -0.1273
 1345TIP3    H228231   0.674   4.189  18.596  0.4578 -0.4911 -2.7650
 1346TIP3   OH228232   3.842   2.201  19.580  0.0372 -0.4621 -0.4551
 1346TIP3    H128233   3.914   2.237  19.631  0.7724  0.3177 -1.9675
 1346TIP3    H228234   3.846   2.107  19.595  0.6040 -0.3033  0.4332
 1347TIP3   OH228235   4.279   1.449  17.555  0.3919 -0.1289  1.2050
 1347TIP3    H128236   4.228   1.428  17.477 -0.7602 -0.2474  1.9652
 1347TIP3    H228237   4.325   1.367  17.577  0.8732 -0.0386  0.5540
 1348TIP3   OH228238   1.835   2.135  18.787 -0.6841  0.4989 -0.8088
 1348TIP3    H128239   1.763   2.122  18.849 -0.2504  0.8775 -0.2192
 1348TIP3    H228240   1.828   2.061  18.726 -1.2071  0.2101 -0.4020
 1349TIP3   OH228241   6.573   2.230  19.645 -0.4917  0.1330 -0.2562
 1349TIP3    H128242   6.555   2.141  19.676 -1.7935  0.5339  0.1911
 1349TIP3    H228243   6.521   2.239  19.566 -0.2778  0.4655 -0.3615
 1350TIP3   OH228244   5.757   0.958  17.252  0.0843 -0.2460 -0.0079
 1350TIP3    H128245   5.814   1.029  17.223  1.0946 -1.2605 -0.5982
 1350TIP3    H228246   5.809   0.879  17.240 -1.4929 -1.2291 -0.6783
 1351TIP3   OH228247   6.247   0.361  20.444 -0.0096 -0.3641  0.4907
 1351TIP3    H128248   6.230   0.267  20.438 -1.9813 -0.0600  0.5717
 1351TIP3    H228249   6.342   0.369  20.443  0.1851 -2.2765 -0.8106
 1352TIP3   OH228250   0.679   5.990  18.582  0.3579  0.2916  0.8251
 1352TIP3    H128251   0.721   5.912  18.546  2.5481  1.1447  1.3672
 1352TIP3    H228252   0.708   6.061  18.526 -0.0053  0.9912  1.5019
 1353TIP3   OH228253   2.209   2.421  17.067 -0.1899  0.1869  0.0898
 1353TIP3    H128254   2.185   2.514  17.060  1.0327  0.7825  2.6668
 1353TIP3    H228255   2.302   2.419  17.048 -0.1725 -0.4964  0.2398
 1354TIP3   OH228256   4.919   4.391  20.453  0.3928  0.0706 -0.8613
 1354TIP3    H128257   5.009   4.413  20.431  0.5677  0.6732  0.3730
 1354TIP3    H228258   4.886   4.345  20.376  1.0777  1.7289 -2.2231
 1355TIP3   OH228259   2.129   1.920  19.818 -0.4740 -0.2864 -0.0544
 1355TIP3    H128260   2.074   1.954  19.747 -1.9427 -1.3299  0.5295
 1355TIP3    H228261   2.206   1.884  19.774  0.0204  1.6025 -0.8622
 1356TIP3   OH228262   6.384   4.709  19.892 -0.4498  0.4322 -0.0522
 1356TIP3    H128263   6.416   4.657  19.966  1.3075  2.9102  1.0794
 1356TIP3    H228264   6.315   4.764  19.929 -1.0819  0.1645 -0.8029
 1357TIP3   OH228265   5.932   0.797  16.655 -0.3724 -0.1798  0.0390
 1357TIP3    H128266   6.011   0.824  16.703  0.1316  0.4675 -1.1087
 1357TIP3    H228267   5.963   0.780  16.566 -1.8489  2.5049 -1.1243
 1358TIP3   OH228268   5.663   6.123  18.287  0.4295 -0.3882 -0.3040
 1358TIP3    H128269   5.710   6.152  18.209 -0.2536 -0.3641 -0.7159
 1358TIP3    H228270   5.573   6.152  18.274  0.5191  0.5681  0.9898
 1359TIP3   OH228271   2.562   0.841  19.476  0.2598  0.5969  0.0804
 1359TIP3    H128272   2.617   0.769  19.507  1.3239  1.1016 -0.5615
 1359TIP3    H228273   2.519   0.808  19.397  1.3108  0.8714 -0.6315
 1360TIP3   OH228274   5.067   5.213  18.472  0.2439  0.7689  0.3131
 1360TIP3    H128275   5.093   5.242  18.559  0.1294 -1.7843  1.2675
 1360TIP3    H228276   5.149   5.201  18.424  0.4767 -0.2483  0.9329
 1361TIP3   OH228277   3.991   3.940  20.777  0.5597 -0.0719  0.7938
 1361TIP3    H128278   4.041   3.986  20.845 -0.3226 -0.1996  1.5533
 1361TIP3    H228279   3.914   3.995  20.762  0.6280 -0.1671  0.0594
 1362TIP3   OH228280   1.806   2.899  19.523 -0.7031  0.3854 -0.1089
 1362TIP3    H128281   1.796   2.978  19.575 -1.6823  0.4383 -0.3522
 1362TIP3    H228282   1.789   2.927  19.433 -0.0528  0.0963 -0.3280
 1363TIP3   OH228283   5.508   1.270  18.511 -0.0235 -0.2478  0.1198
 1363TIP3    H128284   5.550   1.329  18.573  0.0011 -0.2316  0.0876
 1363TIP3    H228285   5.415   1.273  18.534  0.0557 -0.6462  0.4981
 1364TIP3   OH228286   2.270   1.913  17.839 -0.3828 -0.0137 -0.4029
 1364TIP3    H128287   2.256   1.922  17.933 -0.8032 -3.3492 -0.0115
 1364TIP3    H228288   2.360   1.943  17.824 -0.2822  0.4700  1.0751
 1365TIP3   OH228289   6.319   5.038  18.847  0.6958  0.2775 -0.2113
 1365TIP3    H128290   6.370   5.081  18.915 -0.3561 -1.0283  1.4782
 1365TIP3    H228291   6.367   4.957  18.829  0.6522  0.3367 -0.5989
 1366TIP3   OH228292   5.340   6.491  18.666  0.3847 -0.4319  0.1375
 1366TIP3    H128293   5.266   6.473  18.725  0.4782 -1.0167  0.0791
 1366TIP3    H228294   5.414   6.445  18.705  0.0414 -2.4256 -1.4068
 1367TIP3   OH228295   5.311   0.910  19.000 -0.1732 -0.3380  0.4963
 1367TIP3    H128296   5.389   0.962  19.020  1.2602 -2.0401 -0.3183
 1367TIP3    H228297   5.297   0.924  18.906 -1.6235  0.9033  0.8714
 1368TIP3   OH228298   5.053   2.254  18.792  0.4828  0.0901 -0.1925
 1368TIP3    H128299   5.082   2.181  18.739  1.6734  0.0665  0.4634
 1368TIP3    H228300   5.089   2.331  18.749  1.5295  0.0633  0.6151
 1369TIP3   OH228301   0.227   1.639  19.355  0.3395  0.1076 -0.2364
 1369TIP3    H128302   0.216   1.559  19.406 -0.8598  1.9243  2.5308
 1369TIP3    H228303   0.321   1.644  19.339  0.9266 -0.0887  2.6742
 1370TIP3   OH228304   4.016   5.293  19.006 -0.0184 -0.1043 -0.3290
 1370TIP3    H128305   3.997   5.325  18.918 -0.5756  0.6048  0.0405
 1370TIP3    H228306   4.056   5.368  19.051 -2.3829  0.5140  0.9039
 1371TIP3   OH228307   5.388   2.852  20.022 -0.1205 -0.5647  0.2905
 1371TIP3    H128308   5.444   2.914  19.975 -0.3218 -0.8689 -0.3719
 1371TIP3    H228309   5.301   2.893  20.021  0.0198 -0.2399  1.0380
 1372TIP3   OH228310   0.820   6.181  20.823  0.4902  0.4251 -0.3238
 1372TIP3    H128311   0.770   6.206  20.745 -0.0910  1.8091  0.4587
 1372TIP3    H228312   0.772   6.107  20.859 -0.3147  0.9643 -0.2638
 1373TIP3   OH228313   5.766   2.532  18.918 -0.0415  0.7010 -0.0937
 1373TIP3    H128314   5.861   2.524  18.927 -0.1751  0.6925  1.8391
 1373TIP3    H228315   5.741   2.590  18.989 -1.4258  1.2501 -1.0032
 1374TIP3   OH228316   3.877   5.739  18.372  0.3441  0.1547  0.1880
 1374TIP3    H128317   3.899   5.831  18.391  0.8205  0.1952 -0.5117
 1374TIP3    H228318   3.952   5.707  18.322  0.1836 -0.6234  0.4368
 1375TIP3   OH228319   2.321   4.066  17.347  0.1132  0.3875  0.0198
 1375TIP3    H128320   2.243   4.122  17.345 -0.6048 -0.4585  1.8392
 1375TIP3    H228321   2.392   4.126  17.373 -0.6189  0.5441  1.7987
 1376TIP3   OH228322   4.307   2.107  20.688  0.3897 -0.1561 -0.2017
 1376TIP3    H128323   4.213   2.098  20.673  0.6513 -0.5973 -1.7596
 1376TIP3    H228324   4.320   2.200  20.708 -0.3447 -0.0469 -0.2314
 1377TIP3   OH228325   3.176   4.013  18.576 -0.2003  0.6981 -0.1070
 1377TIP3    H128326   3.241   3.985  18.512 -0.1761  0.9201 -0.1822
 1377TIP3    H228327   3.198   4.105  18.593 -0.1552  0.6157  0.2845
 1378TIP3   OH228328   1.408   2.733  19.691  0.5404 -0.2923 -0.1653
 1378TIP3    H128329   1.441   2.822  19.703  1.8304 -0.6289 -0.9634
 1378TIP3    H228330   1.448   2.704  19.609 -0.5873 -1.2911 -0.3916
 1379TIP3   OH228331   1.668   1.279  19.209 -0.0670 -0.6480 -0.6730
 1379TIP3    H128332   1.758   1.253  19.194  0.2934  0.9234 -1.4285
 1379TIP3    H228333   1.673   1.343  19.280 -0.7760 -1.5583  0.2401
 1380TIP3   OH228334   0.057   4.782  20.510  0.0220  0.6069  0.2175
 1380TIP3    H128335   0.073   4.875  20.529  0.2023  0.6679 -0.2288
 1380TIP3    H228336   0.098   4.735  20.583  0.7048  0.8377 -0.0089
 1381TIP3   OH228337   0.244   3.693  20.465 -0.1180 -0.0645 -0.1495
 1381TIP3    H128338   0.331   3.653  20.456 -0.1814 -0.8280  2.0063
 1381TIP3    H228339   0.184   3.619  20.463 -0.4315  0.1063  1.5436
 1382TIP3   OH228340   1.996   3.082  19.945 -0.7307 -0.1473  0.0045
 1382TIP3    H128341   1.988   3.173  19.974 -0.6834  0.1914 -1.0133
 1382TIP3    H228342   1.923   3.069  19.885 -0.9106 -0.8815  0.3697
 1383TIP3   OH228343   3.229   5.271  20.370  0.3193  0.1010  0.0750
 1383TIP3    H128344   3.168   5.337  20.337  1.2608  0.3697 -1.2248
 1383TIP3    H228345   3.307   5.320  20.394  0.4079 -0.3545  0.7563
 1384TIP3   OH228346   1.973   3.205  18.316 -0.3834  0.7253 -0.2290
 1384TIP3    H128347   1.925   3.130  18.352  1.0629 -0.8158 -1.3197
 1384TIP3    H228348   1.910   3.249  18.259 -1.0347 -0.1501 -0.2041
 1385TIP3   OH228349   0.155   0.760  18.821  0.2427  0.0017  0.3574
 1385TIP3    H128350   0.208   0.815  18.764 -0.0087  0.1240  0.2377
 1385TIP3    H228351   0.065   0.773  18.790  0.1529 -0.2702  0.4992
 1386TIP3   OH228352   4.714   4.677  19.969 -0.3800 -0.6812 -0.4705
 1386TIP3    H128353   4.692   4.674  20.063 -3.2759  0.6863 -0.9965
 1386TIP3    H228354   4.704   4.587  19.939  1.6828 -1.3582  0.6795
 1387TIP3   OH228355   2.776   5.834  19.751 -0.1198  0.3854 -0.0640
 1387TIP3    H128356   2.817   5.908  19.707 -0.5658 -0.5028 -2.0649
 1387TIP3    H228357   2.752   5.773  19.681 -0.2436 -1.4388  1.4533
 1388TIP3   OH228358   6.479   3.654  17.307  0.0548 -0.7905  0.1892
 1388TIP3    H128359   6.543   3.639  17.238  0.1060 -2.3338  0.5392
 1388TIP3    H228360   6.524   3.712  17.368  0.8898 -1.3076  0.0863
 1389TIP3   OH228361   2.829   0.022  19.228 -0.1945  0.0587  0.0340
 1389TIP3    H128362   2.891  -0.038  19.268 -0.8275  0.0806  1.0680
 1389TIP3    H228363   2.746   0.005  19.272 -0.7268  0.6542 -0.6974
 1390TIP3   OH228364   1.344   0.845  17.485  0.0952  0.4594  0.8832
 1390TIP3    H128365   1.328   0.778  17.419 -2.5631  1.4023  0.4231
 1390TIP3    H228366   1.408   0.806  17.544  1.6261 -0.8857 -1.5286
 1391TIP3   OH228367   4.037   5.940  19.410 -0.2204  0.2143 -0.3909
 1391TIP3    H128368   4.047   5.987  19.327  0.6492  1.3086  0.3022
 1391TIP3    H228369   4.036   6.009  19.477 -0.2118 -0.6854  0.5613
 1392TIP3   OH228370   0.083   2.622  18.168 -0.0291 -0.0735  0.2019
 1392TIP3    H128371  -0.004   2.586  18.187  0.1290 -0.4561  0.2147
 1392TIP3    H228372   0.142   2.570  18.222  0.3878 -0.9386 -1.0222
 1393TIP3   OH228373   5.395   4.387  19.448  0.6318 -0.2888  0.0600
 1393TIP3    H128374   5.443   4.370  19.367  0.3542 -1.2058  0.0776
 1393TIP3    H228375   5.461   4.418  19.509  1.0599 -0.7484 -0.1628
 1394TIP3   OH228376   4.703   4.496  18.419 -0.4580  0.1934 -0.3177
 1394TIP3    H128377   4.790   4.473  18.449 -0.3443  1.3882  0.3021
 1394TIP3    H228378   4.695   4.589  18.436 -1.2393  0.4556 -1.9097
 1395TIP3   OH228379   4.627   1.524  17.636  0.1449  0.1501  0.4270
 1395TIP3    H128380   4.642   1.550  17.546 -0.5816  0.9287  0.5157
 1395TIP3    H228381   4.586   1.437  17.630 -1.5156  0.9205 -0.0994
 1396TIP3   OH228382   0.500   1.129  18.464 -0.4761  0.4638 -0.5243
 1396TIP3    H128383   0.407   1.153  18.462  0.0307  2.6295 -0.8172
 1396TIP3    H228384   0.533   1.154  18.377  0.0941 -1.6709 -0.9617
 1397TIP3   OH228385   1.244   2.976  20.263  0.2035  0.7171  0.0209
 1397TIP3    H128386   1.213   2.971  20.354 -1.0001 -4.5409 -0.3333
 1397TIP3    H228387   1.338   2.958  20.269 -0.0631 -0.7431  0.2664
 1398TIP3   OH228388   6.701   6.226  17.900 -0.2872 -0.3772 -0.4765
 1398TIP3    H128389   6.754   6.166  17.847  1.2660 -0.4574  1.0620
 1398TIP3    H228390   6.710   6.311  17.857 -1.0144 -0.8767 -1.6572
 1399TIP3   OH228391   6.124   2.719  19.200  0.3200 -0.5250  0.2734
 1399TIP3    H128392   6.079   2.708  19.117 -1.5361  2.0943  0.8281
 1399TIP3    H228393   6.217   2.724  19.177 -0.1253 -0.1915 -1.5910
 1400TIP3   OH228394   1.132   0.786  19.420  0.0781  0.0119  0.0786
 1400TIP3    H128395   1.126   0.860  19.359  0.8281 -0.7261 -0.9149
 1400TIP3    H228396   1.225   0.780  19.440 -0.1221  0.0427  1.0749
 1401TIP3   OH228397   2.372   5.336  18.025  0.2476 -0.1976 -0.0479
 1401TIP3    H128398   2.448   5.368  18.073  0.7135 -1.5709  0.1751
 1401TIP3    H228399   2.404   5.322  17.936  0.0908 -0.1833 -0.1067
 1402TIP3   OH228400   0.951   5.106  18.458 -0.1138  0.2554  0.1017
 1402TIP3    H128401   0.887   5.161  18.503 -0.9454 -0.7435  0.1792
 1402TIP3    H228402   1.029   5.161  18.451 -0.8484  1.3677  0.3503
 1403TIP3   OH228403   1.907   5.830  19.487  0.3343 -0.1696  0.1342
 1403TIP3    H128404   1.843   5.885  19.532  1.0968 -1.2219  2.6863
 1403TIP3    H228405   1.983   5.830  19.544  0.8312 -2.7979 -0.3954
 1404TIP3   OH228406   4.957   2.038  19.240  0.3257  0.1481  0.4349
 1404TIP3    H128407   5.033   2.092  19.262  0.7699 -0.3389  0.1227
 1404TIP3    H228408   4.896   2.098  19.197  0.7233  0.4432  0.2810
 1405TIP3   OH228409   6.598   1.039  18.317  0.0357 -0.5845 -0.3221
 1405TIP3    H128410   6.636   1.116  18.359 -0.5920  0.1568 -1.0705
 1405TIP3    H228411   6.670   0.999  18.268  0.1000  0.1940 -0.8690
 1406TIP3   OH228412   2.656   1.624  19.493 -0.3040 -0.4880  0.3987
 1406TIP3    H128413   2.723   1.691  19.509 -0.9398  0.1807  0.3145
 1406TIP3    H228414   2.706   1.545  19.474  0.4666  0.0279  0.2157
 1407TIP3   OH228415   0.944   0.347  18.314  0.2085  0.1092 -0.0947
 1407TIP3    H128416   0.949   0.330  18.408  2.3407  0.4617 -0.1003
 1407TIP3    H228417   0.859   0.311  18.288 -0.7852  0.7307  2.0845
 1408TIP3   OH228418   0.202   0.480  18.646  0.1383  0.1086  0.0114
 1408TIP3    H128419   0.271   0.505  18.707  0.7081 -0.1755 -0.5123
 1408TIP3    H228420   0.123   0.523  18.680  0.6153  0.6182  0.4819
 1409TIP3   OH228421   3.090   3.670  19.770 -0.3630 -0.1313 -0.2227
 1409TIP3    H128422   3.084   3.764  19.789 -3.4694 -0.1851 -0.4266
 1409TIP3    H228423   3.169   3.641  19.816  0.3417  2.4503  0.3416
 1410TIP3   OH228424   5.608   4.790  18.361  0.6891  0.4983 -0.0997
 1410TIP3    H128425   5.600   4.706  18.405 -1.9510  0.7106 -0.0442
 1410TIP3    H228426   5.623   4.768  18.269 -0.6421 -0.0867 -0.2013
 1411TIP3   OH228427   1.544   6.082  20.728  0.0358 -0.0342  0.2368
 1411TIP3    H128428   1.627   6.064  20.773 -0.5381  1.1852  1.8817
 1411TIP3    H228429   1.549   6.031  20.648  1.9181 -0.8479  0.8096
 1412TIP3   OH228430   3.864   3.765  20.020 -0.3984 -0.2673 -0.0486
 1412TIP3    H128431   3.774   3.745  20.046  0.0885 -1.6738  0.6435
 1412TIP3    H228432   3.869   3.861  20.026 -1.8948 -0.1439 -0.3001
 1413TIP3   OH228433   1.348   0.271  20.055 -0.2031 -0.0131 -0.3397
 1413TIP3    H128434   1.380   0.186  20.086  1.3498  0.2106 -1.2320
 1413TIP3    H228435   1.322   0.254  19.964 -0.9104  0.2331 -0.1864
 1414TIP3   OH228436   6.501   0.103  17.294  0.0169 -0.0186 -0.0312
 1414TIP3    H128437   6.447   0.067  17.364  0.1785  2.4107  1.4376
 1414TIP3    H228438   6.444   0.167  17.250 -0.4090 -2.1250 -2.8521
 1415TIP3   OH228439   6.254   1.585  19.814  0.1923  0.5223 -0.0223
 1415TIP3    H128440   6.273   1.531  19.891  0.0672  0.2374 -0.1863
 1415TIP3    H228441   6.163   1.613  19.825 -0.3386 -0.7796 -0.7947
 1416TIP3   OH228442   0.111   2.486  18.527  0.2534 -0.2969  0.1499
 1416TIP3    H128443   0.162   2.475  18.447  0.8798  1.0156  0.3415
 1416TIP3    H228444   0.137   2.572  18.560 -0.1064 -0.7529  1.6910
 1417TIP3   OH228445   2.379   4.075  18.667  0.0473  0.2140 -0.6119
 1417TIP3    H128446   2.299   4.041  18.707  2.1095 -1.5005  2.4235
 1417TIP3    H228447   2.399   4.153  18.718  0.1836  0.8380 -1.5949
 1418TIP3   OH228448   0.519   5.205  19.322 -0.2075  0.3995 -0.0013
 1418TIP3    H128449   0.544   5.249  19.241 -0.2474 -0.6219 -0.5980
 1418TIP3    H228450   0.561   5.255  19.392 -0.7010  1.6778 -0.5940
 1419TIP3   OH228451   6.139   4.681  18.842  0.4967 -0.0266  0.0122
 1419TIP3    H128452   6.102   4.664  18.928  2.1241  0.1017  0.7892
 1419TIP3    H228453   6.234   4.682  18.857  0.8791 -1.1082 -1.9787
 1420TIP3   OH228454   3.250   1.367  19.939 -0.4513 -0.4338  0.4981
 1420TIP3    H128455   3.168   1.415  19.947 -0.9918 -1.3276  0.4181
 1420TIP3    H228456   3.267   1.333  20.027 -0.6725 -1.0454  0.3120
 1421TIP3   OH228457   4.344   4.118  20.111  0.5852 -0.0197  0.0348
 1421TIP3    H128458   4.269   4.096  20.166  1.9066  0.1746  2.0007
 1421TIP3    H228459   4.405   4.162  20.170  2.2600 -0.1816 -1.4967
 1422TIP3   OH228460   5.604   0.415  18.488  0.1219 -0.6478  0.1842
 1422TIP3    H128461   5.583   0.401  18.396  0.6759 -0.3719  0.0103
 1422TIP3    H228462   5.588   0.508  18.503 -1.1278 -0.9210  0.6884
 1423TIP3   OH228463   6.036   3.119  19.634 -0.1224  0.1907 -0.6310
 1423TIP3    H128464   6.053   3.128  19.728 -0.5003  1.0736 -0.6385
 1423TIP3    H228465   5.955   3.067  19.629 -0.1841  0.2695 -0.4616
 1424TIP3   OH228466   0.860   2.993  17.410 -0.0976  0.8081  0.5222
 1424TIP3    H128467   0.847   3.016  17.317  1.6064 -0.6114 -0.1151
 1424TIP3    H228468   0.891   3.074  17.450 -0.7783  1.4199 -0.1535
 1425TIP3   OH228469   1.519   3.453  19.402 -0.0090  0.5970 -0.7326
 1425TIP3    H128470   1.532   3.361  19.426  1.5404  1.1859  0.9180
 1425TIP3    H228471   1.448   3.483  19.459  2.0240  1.3460  1.5715
 1426TIP3   OH228472   2.545   6.665  18.174  0.7324  0.3358  0.4237
 1426TIP3    H128473   2.545   6.761  18.180  1.0263  0.4059 -0.4234
 1426TIP3    H228474   2.635   6.640  18.197  1.6595  0.5552 -2.4706
 1427TIP3   OH228475   2.892   1.725  19.298  0.1406 -0.2056 -0.2334
 1427TIP3    H128476   2.948   1.786  19.250 -0.6104  1.1549  0.5701
 1427TIP3    H228477   2.806   1.736  19.259 -0.8372  2.0666  2.3483
 1428TIP3   OH228478   0.918   4.509  17.839 -0.2483  0.5916 -0.5403
 1428TIP3    H128479   0.915   4.604  17.849 -0.3919  0.5626 -0.2897
 1428TIP3    H228480   0.971   4.479  17.913 -0.2336  0.4735 -0.5986
 1429TIP3   OH228481   1.407   4.102  18.435 -0.3994 -0.4255  0.1940
 1429TIP3    H128482   1.338   4.083  18.372 -0.7532  1.1365  0.0549
 1429TIP3    H228483   1.407   4.198  18.443  1.4843 -0.4012  0.4959
 1430TIP3   OH228484   2.077   1.093  20.262  0.1328 -0.8097  0.6478
 1430TIP3    H128485   2.092   1.026  20.196  0.0346  0.0218 -0.2435
 1430TIP3    H228486   2.163   1.108  20.302  0.1927 -1.3102  0.7063
 1431TIP3   OH228487   0.150   2.712  18.673 -0.1445  0.2510 -0.1897
 1431TIP3    H128488   0.205   2.771  18.621  1.2464 -0.2786  0.6326
 1431TIP3    H228489   0.077   2.767  18.702  0.6136  1.3237 -0.2432
 1432TIP3   OH228490   4.347   6.658  20.857 -0.0095  0.0676  0.4042
 1432TIP3    H128491   4.257   6.636  20.833 -0.2457  0.4556  0.9278
 1432TIP3    H228492   4.348   6.754  20.859  0.7387  0.1156 -0.8331
 1433TIP3   OH228493   2.041   6.377  19.414  0.3138 -0.2801 -0.0050
 1433TIP3    H128494   1.951   6.344  19.420 -0.0401  0.8369  1.6166
 1433TIP3    H228495   2.089   6.310  19.366 -1.6927 -0.2440 -2.2288
 1434TIP3   OH228496   1.741   1.648  20.361 -0.1115  0.4527  0.0319
 1434TIP3    H128497   1.786   1.731  20.350  2.2382 -0.9609 -2.3102
 1434TIP3    H228498   1.810   1.584  20.375 -1.6766 -1.3797 -0.1218
 1435TIP3   OH228499   2.349   4.339  19.198  0.1287  0.1258  0.0523
 1435TIP3    H128500   2.378   4.263  19.148  0.2337  0.6025 -0.6352
 1435TIP3    H228501   2.302   4.393  19.134 -3.0265 -0.9595  1.2655
 1436TIP3   OH228502   5.367   4.276  18.825  0.3059  0.1322 -0.2458
 1436TIP3    H128503   5.351   4.290  18.732 -1.3442 -0.6449 -0.1138
 1436TIP3    H228504   5.299   4.327  18.869  0.0932 -0.7440  0.4749
 1437TIP3   OH228505   4.233   2.048  17.710  0.5420 -0.6450  0.2447
 1437TIP3    H128506   4.242   2.081  17.621 -2.5861  0.9296  0.3671
 1437TIP3    H228507   4.184   2.117  17.756 -1.7148 -3.1857  1.9668
 1438TIP3   OH228508   1.718   0.511  19.595  0.4210  0.2883 -0.0889
 1438TIP3    H128509   1.762   0.524  19.679  0.9512 -0.1868 -0.2875
 1438TIP3    H228510   1.789   0.496  19.532 -0.0210 -1.2468 -0.2756
 1439TIP3   OH228511   0.594   3.218  19.884  0.2461 -0.2198 -0.3176
 1439TIP3    H128512   0.657   3.159  19.843 -1.4401 -1.3173 -1.4855
 1439TIP3    H228513   0.626   3.306  19.864  1.4636 -0.7453 -0.7341
 1440TIP3   OH228514   3.024   1.140  20.662 -0.1101 -0.2867 -0.3087
 1440TIP3    H128515   3.058   1.131  20.574  2.1939  0.7390  0.3995
 1440TIP3    H228516   2.929   1.145  20.651  0.1627  0.5946 -2.7744
 1441TIP3   OH228517   3.832   5.609  19.010 -0.1508 -0.8473  0.4316
 1441TIP3    H128518   3.841   5.600  18.915  0.7497 -0.3866  0.4658
 1441TIP3    H228519   3.771   5.540  19.034 -0.7310 -0.7007 -0.5343
 1442TIP3   OH228520   0.832   6.059  20.216 -0.0416  0.0927  0.0666
 1442TIP3    H128521   0.744   6.025  20.236 -1.0484  2.2321 -0.4654
 1442TIP3    H228522   0.824   6.093  20.127  1.6084 -0.4236 -0.3106
 1443TIP3   OH228523   2.957   6.584  19.702 -0.3148  0.3641 -0.6708
 1443TIP3    H128524   3.004   6.518  19.651  0.0484 -0.1876  0.3366
 1443TIP3    H228525   2.973   6.666  19.656  2.2658  0.3250  0.0040
 1444TIP3   OH228526   2.401   2.198  20.082 -0.4201 -0.2009  0.2640
 1444TIP3    H128527   2.440   2.285  20.093  1.2309 -0.2792 -3.3909
 1444TIP3    H228528   2.320   2.213  20.034  0.7900 -0.6787 -2.0598
 1445TIP3   OH228529   2.993   4.446  19.519 -0.6988 -0.2072  0.2277
 1445TIP3    H128530   3.051   4.485  19.453  2.1234 -1.4948  1.7610
 1445TIP3    H228531   2.909   4.437  19.474  0.4207  1.1514 -2.3922
 1446TIP3   OH228532   1.367   4.988  17.924 -0.3060  0.3641 -0.5475
 1446TIP3    H128533   1.294   5.013  17.867  0.6735  1.6186 -1.3217
 1446TIP3    H228534   1.423   4.933  17.870 -0.0967  0.3593 -0.3307
 1447TIP3   OH228535   1.304   6.716  18.981  0.1033 -0.3748  0.1774
 1447TIP3    H128536   1.259   6.762  19.052  0.5813  0.9861 -0.3503
 1447TIP3    H228537   1.240   6.712  18.910  0.8180  1.9345 -0.7248
 1448TIP3   OH228538   5.856   1.027  17.572 -0.8800  0.1519  0.1280
 1448TIP3    H128539   5.840   1.052  17.663 -1.4241 -0.5831  0.2383
 1448TIP3    H228540   5.769   1.018  17.533 -1.0545 -5.1143  1.0731
 1449TIP3   OH228541   4.642   1.734  20.517 -0.0332 -0.0158 -0.6313
 1449TIP3    H128542   4.564   1.777  20.551  0.3887  0.6248 -0.4375
 1449TIP3    H228543   4.611   1.653  20.477 -0.7546  0.0989 -0.3058
 1450TIP3   OH228544   6.241   2.854  19.852 -0.2215  0.1343  0.3023
 1450TIP3    H128545   6.195   2.934  19.877 -0.0574 -0.0154  1.1438
 1450TIP3    H228546   6.205   2.831  19.767 -2.1967 -0.3165  1.1852
 1451TIP3   OH228547   6.738   5.202  18.949  0.1723  0.4449 -0.1919
 1451TIP3    H128548   6.738   5.119  18.996  0.6128  0.2873 -0.4595
 1451TIP3    H228549   6.684   5.260  19.002 -0.3440 -0.0850 -0.1314
 1452TIP3   OH228550   4.513   2.105  18.527 -0.6204  0.0924 -0.0920
 1452TIP3    H128551   4.497   2.198  18.545 -2.3728 -0.4477  1.5048
 1452TIP3    H228552   4.534   2.068  18.613 -0.0444 -1.0244 -0.6920
 1453TIP3   OH228553   1.691   1.063  20.533  0.0274  0.3458 -0.2330
 1453TIP3    H128554   1.765   1.007  20.556  0.0862  0.7268  0.5390
 1453TIP3    H228555   1.721   1.111  20.456  1.1851  1.6013  0.9490
 1454TIP3   OH228556   0.001   0.243  17.208  0.2550  0.2902 -0.0299
 1454TIP3    H128557  -0.039   0.157  17.195  0.5734  0.2016 -0.4504
 1454TIP3    H228558   0.045   0.262  17.125  0.7106  0.5805  0.2714
 1455TIP3   OH228559   1.121   4.284  19.813  0.0215  0.5396  0.0342
 1455TIP3    H128560   1.090   4.306  19.726  0.3026  0.2738 -0.1333
 1455TIP3    H228561   1.209   4.321  19.818  0.8904 -1.3567 -0.6020
 1456TIP3   OH228562   2.531   6.542  19.191  0.3401 -0.0626  0.3952
 1456TIP3    H128563   2.596   6.507  19.130  0.4519  0.3069  0.3043
 1456TIP3    H228564   2.463   6.578  19.135 -0.1910 -0.8975  0.4878
 1457TIP3   OH228565   1.884   4.203  18.394  0.1631  0.4285  0.0643
 1457TIP3    H128566   1.827   4.129  18.371 -0.8094  1.4495 -0.9283
 1457TIP3    H228567   1.939   4.170  18.465  0.5191 -1.6192 -1.0698
 1458TIP3   OH228568   4.154   1.209  20.134  0.0285 -0.3894 -0.2031
 1458TIP3    H128569   4.146   1.195  20.040 -0.3052 -0.3264 -0.1861
 1458TIP3    H228570   4.065   1.196  20.168 -0.1395  0.9796 -0.0731
 1459TIP3   OH228571   0.488   6.410  19.426 -0.2513  0.1408  0.3068
 1459TIP3    H128572   0.542   6.433  19.501  1.0921 -0.9120 -0.2821
 1459TIP3    H228573   0.546   6.358  19.370 -1.5042  0.0708 -0.9880
 1460TIP3   OH228574   1.026   0.389  18.837  0.5726 -0.1190 -0.3211
 1460TIP3    H128575   1.090   0.414  18.770 -0.6407  0.4675 -1.3065
 1460TIP3    H228576   0.977   0.317  18.796 -0.3228  0.3919 -0.1724
 1461TIP3   OH228577   0.412   3.300  20.511 -0.2587  0.1345  0.3029
 1461TIP3    H128578   0.385   3.244  20.438  0.9093  0.0304 -0.0712
 1461TIP3    H228579   0.426   3.239  20.584  0.1861  0.0348  0.1379
 1462TIP3   OH228580   1.430   5.170  19.146 -0.3254 -0.2620 -0.3728
 1462TIP3    H128581   1.486   5.168  19.223  1.4825 -3.6136 -1.5884
 1462TIP3    H228582   1.345   5.138  19.177  0.1440 -0.7503  0.4314
 1463TIP3   OH228583   6.229   0.210  17.222 -0.0828  0.3477  0.2724
 1463TIP3    H128584   6.251   0.264  17.297 -1.5643  0.7712  0.4338
 1463TIP3    H228585   6.164   0.261  17.173  0.0714 -0.3715 -0.7239
 1464TIP3   OH228586   4.610   2.180  17.556  0.2982 -0.6797  0.0015
 1464TIP3    H128587   4.580   2.207  17.643  0.4615  0.3400 -0.2502
 1464TIP3    H228588   4.704   2.168  17.566  0.4437  0.2452 -0.2311
 1465TIP3   OH228589   6.528   2.112  18.654  0.6086  0.2321  0.4875
 1465TIP3    H128590   6.562   2.162  18.579 -0.8937  1.5595  0.6426
 1465TIP3    H228591   6.505   2.179  18.719 -0.4804 -0.7357  1.1296
 1466TIP3   OH228592   0.381   0.517  18.846 -0.6293 -0.5919  0.4155
 1466TIP3    H128593   0.466   0.561  18.843 -0.7198 -0.4101  0.5418
 1466TIP3    H228594   0.344   0.543  18.930 -0.9425 -0.4339  0.2272
 1467TIP3   OH228595   2.586   2.472  19.680 -0.1760 -0.6184  0.3334
 1467TIP3    H128596   2.628   2.504  19.600 -0.3324 -0.7312  0.2051
 1467TIP3    H228597   2.532   2.545  19.709 -0.1903 -0.6096  0.2857
 1468TIP3   OH228598   5.651   4.649  19.162 -0.0603 -0.6035 -0.4043
 1468TIP3    H128599   5.578   4.609  19.116 -0.2185 -0.8702  0.0769
 1468TIP3    H228600   5.623   4.655  19.253  0.8743 -1.6013 -0.0179
 1469TIP3   OH228601   0.927   1.439  19.107  0.1648 -0.1893  0.1960
 1469TIP3    H128602   0.889   1.382  19.040  1.1966  0.9641 -1.4480
 1469TIP3    H228603   0.979   1.380  19.162  1.7410 -0.8461 -1.8511
 1470TIP3   OH228604   5.699   4.372  20.844 -0.2578 -0.2814 -0.4792
 1470TIP3    H128605   5.716   4.286  20.805 -0.4097 -0.5726  0.0799
 1470TIP3    H228606   5.604   4.382  20.840 -0.1266  0.5548 -1.9655
 1471TIP3   OH228607   1.806   4.983  20.037 -0.1191 -0.7513 -0.0234
 1471TIP3    H128608   1.785   5.040  20.111  0.4471 -0.1303 -0.3289
 1471TIP3    H228609   1.850   4.907  20.076 -0.0050 -0.5217  0.2997
 1472TIP3   OH228610   3.035   3.548  18.212 -0.2786 -0.2669  0.1171
 1472TIP3    H128611   3.000   3.631  18.182  0.1169 -0.5681 -1.2380
 1472TIP3    H228612   2.968   3.484  18.188  0.1037 -0.5335 -0.2362
 1473TIP3   OH228613   0.789   3.857  20.223 -0.3257 -0.3310 -0.2611
 1473TIP3    H128614   0.723   3.825  20.285  0.4004  1.8066  1.7705
 1473TIP3    H228615   0.751   3.842  20.137 -3.2572  0.3144  0.8129
 1474TIP3   OH228616   4.048   4.931  19.267  0.0393 -0.2505 -0.1488
 1474TIP3    H128617   4.007   5.016  19.252 -0.0764 -0.3991 -0.6781
 1474TIP3    H228618   4.073   4.933  19.359  0.3229  0.4857 -0.2306
 1475TIP3   OH228619   4.253   0.461  17.410 -0.5358 -0.1090 -0.2033
 1475TIP3    H128620   4.211   0.375  17.401 -1.0053  0.1918 -1.0120
 1475TIP3    H228621   4.181   0.520  17.430 -0.0600 -0.0674  1.5041
 1476TIP3   OH228622   4.351   0.864  18.199 -0.2350  0.1811  0.0332
 1476TIP3    H128623   4.418   0.798  18.217  0.1751  0.5956  0.0429
 1476TIP3    H228624   4.351   0.874  18.104  0.3522  0.8196  0.0858
 1477TIP3   OH228625   6.255   0.245  19.050  0.0834  0.8026 -0.0048
 1477TIP3    H128626   6.320   0.278  18.987 -0.3204  1.5860 -0.0205
 1477TIP3    H228627   6.172   0.248  19.003 -0.3380  2.0403  0.7483
 1478TIP3   OH228628   1.566   2.605  20.185  0.1029  0.5730  0.9434
 1478TIP3    H128629   1.592   2.656  20.108 -1.2847 -0.7521 -0.4739
 1478TIP3    H228630   1.633   2.538  20.193  0.5054  1.0001  1.1905
 1479TIP3   OH228631   5.091   3.936  17.648  0.3738 -0.4646 -0.4152
 1479TIP3    H128632   5.152   4.007  17.667 -0.5445  0.1771  0.2428
 1479TIP3    H228633   5.109   3.911  17.558  0.2506  1.0746 -0.8868
 1480TIP3   OH228634   6.514   2.933  19.880 -0.3558  0.6105  0.6188
 1480TIP3    H128635   6.504   2.984  19.961 -1.3863  1.4918 -0.0382
 1480TIP3    H228636   6.425   2.927  19.845 -0.1635 -1.1489  0.3602
 1481TIP3   OH228637   2.279   5.803  18.830  0.6419  0.6392 -0.3996
 1481TIP3    H128638   2.297   5.814  18.924  1.6813  0.3967 -0.5610
 1481TIP3    H228639   2.313   5.882  18.789 -1.8995  1.8350 -0.3524
 1482TIP3   OH228640   3.540   4.029  18.963 -0.4041 -0.0825 -0.5914
 1482TIP3    H128641   3.621   4.061  18.922 -1.1894  0.6102 -1.6522
 1482TIP3    H228642   3.471   4.054  18.902 -1.4569 -0.4338  0.4241
 1483TIP3   OH228643   4.899   6.647  18.336  0.1466  0.4256 -0.0759
 1483TIP3    H128644   4.927   6.587  18.405 -0.1055  0.3027 -0.0821
 1483TIP3    H228645   4.883   6.730  18.381 -0.2587  0.2776  0.0500
 1484TIP3   OH228646   6.412   3.370  19.658 -0.2999  0.4664 -0.3303
 1484TIP3    H128647   6.387   3.309  19.589 -1.1542  0.7112 -0.2457
 1484TIP3    H228648   6.504   3.351  19.674 -0.1387  0.2735 -1.3983
 1485TIP3   OH228649   1.749   4.009  20.799 -0.0808 -0.0335  0.7808
 1485TIP3    H128650   1.702   4.090  20.777  0.0448 -0.5037 -1.4757
 1485TIP3    H228651   1.681   3.941  20.796  0.4513 -0.5517 -1.3941
 1486TIP3   OH228652   0.715   2.385  18.649 -0.0544 -0.0463 -0.2744
 1486TIP3    H128653   0.718   2.330  18.727  1.3017  0.0430 -0.2319
 1486TIP3    H228654   0.777   2.455  18.667  0.0760  0.1234 -1.3213
 1487TIP3   OH228655   5.733   5.335  19.918  0.1078 -0.1440  0.6520
 1487TIP3    H128656   5.791   5.259  19.930  3.2557  2.0109  0.3071
 1487TIP3    H228657   5.700   5.354  20.006  2.1471  0.1395  1.3961
 1488TIP3   OH228658   1.902   5.149  19.840 -0.0600  0.8083 -0.1436
 1488TIP3    H128659   1.842   5.093  19.890 -0.0356  0.9894  0.0920
 1488TIP3    H228660   1.904   5.110  19.753 -0.0926  0.4783  0.0009
 1489TIP3   OH228661   3.233   2.886  19.125  0.6112  0.3378  0.2592
 1489TIP3    H128662   3.280   2.891  19.209  0.4610  0.8943  0.3136
 1489TIP3    H228663   3.296   2.847  19.065  1.1444  1.0577  0.3373
 1490TIP3   OH228664   6.168   0.434  16.582  1.0827 -0.2757 -0.0305
 1490TIP3    H128665   6.217   0.504  16.539 -0.6735  1.6693  0.9821
 1490TIP3    H228666   6.183   0.449  16.675  1.0893 -1.6081  0.2030
 1491TIP3   OH228667   4.477   6.074  17.657  0.0113 -0.1408 -0.6856
 1491TIP3    H128668   4.440   5.987  17.671 -0.6706  0.4637  1.7102
 1491TIP3    H228669   4.490   6.079  17.562 -0.0874 -2.7546 -0.9261
 1492TIP3   OH228670   6.560   6.504  17.161  0.1245 -0.4603  1.2626
 1492TIP3    H128671   6.630   6.446  17.192  2.7688  1.5692 -0.3964
 1492TIP3    H228672   6.550   6.481  17.068 -0.7964 -0.1334  1.2797
 1493TIP3   OH228673   3.658   3.998  18.686 -0.0813 -0.2269  0.1830
 1493TIP3    H128674   3.646   4.062  18.616 -1.6323 -0.5067  0.1747
 1493TIP3    H228675   3.747   4.015  18.718  0.6872 -0.1177 -1.8658
 1494TIP3   OH228676   3.980   4.670  20.036  0.0126 -0.2799  0.4019
 1494TIP3    H128677   3.982   4.594  19.977 -1.2802 -0.4739  0.5878
 1494TIP3    H228678   4.059   4.660  20.090 -0.4653 -1.8610  0.8537
 1495TIP3   OH228679   0.923   2.152  19.336  0.2660 -0.2064 -0.3028
 1495TIP3    H128680   0.942   2.066  19.373  1.8378  0.0752 -0.4104
 1495TIP3    H228681   0.936   2.142  19.242 -1.2843 -0.2773 -0.5404
 1496TIP3   OH228682   4.245   3.282  19.418  0.2392 -0.0916 -0.6989
 1496TIP3    H128683   4.248   3.336  19.497  0.2942 -0.5333 -0.3958
 1496TIP3    H228684   4.152   3.283  19.392 -0.0835 -1.3185  0.3415
 1497TIP3   OH228685   3.739   4.396  19.576  0.1661 -0.3699  0.6507
 1497TIP3    H128686   3.823   4.351  19.578  0.0807 -0.5983 -0.4747
 1497TIP3    H228687   3.674   4.326  19.562 -0.1514 -0.1273  0.8849
 1498TIP3   OH228688   4.490   0.664  20.032  0.3942  0.4880 -0.4499
 1498TIP3    H128689   4.403   0.651  19.996  0.1152  1.2765 -0.0946
 1498TIP3    H228690   4.523   0.576  20.050 -0.5788  0.2011 -0.0174
 1499TIP3   OH228691   5.583   0.968  17.864 -0.2334  0.7285 -0.0395
 1499TIP3    H128692   5.593   0.995  17.956 -0.2141  2.1467 -0.4446
 1499TIP3    H228693   5.492   0.989  17.843 -0.0582  0.9867 -0.5336
 1500TIP3   OH228694   0.524   3.137  17.085 -0.3055 -0.3486 -0.2891
 1500TIP3    H128695   0.469   3.209  17.052 -0.3804  1.1815  2.7918
 1500TIP3    H228696   0.462   3.079  17.130  0.1008 -0.8270 -0.3480
 1501TIP3   OH228697   1.533   1.204  19.476 -0.0894  0.5819 -0.5742
 1501TIP3    H128698   1.488   1.219  19.560 -0.0475  2.4498 -0.8376
 1501TIP3    H228699   1.542   1.109  19.470 -0.6653  0.3738  1.2387
 1502TIP3   OH228700   4.012   0.358  18.857  0.2043  0.3831 -0.3236
 1502TIP3    H128701   3.948   0.377  18.789 -0.1066  0.8358  0.0912
 1502TIP3    H228702   3.989   0.416  18.930 -0.0721 -0.7520  0.5372
 1503TIP3   OH228703   3.424   1.083  18.329 -0.0982  0.1380  0.3122
 1503TIP3    H128704   3.333   1.055  18.326 -0.2621  0.7249 -0.1606
 1503TIP3    H228705   3.474   1.004  18.307 -0.5454  0.1045 -0.6071
 1504TIP3   OH228706   6.544   4.630  19.296 -0.1366  0.7255  0.2350
 1504TIP3    H128707   6.581   4.555  19.250 -2.1377  0.4212 -1.0172
 1504TIP3    H228708   6.609   4.651  19.363  0.9347 -1.5132  0.0194
 1505TIP3   OH228709   5.422   1.418  20.295 -0.4708  0.7023  0.1973
 1505TIP3    H128710   5.393   1.392  20.383  1.4128 -0.9349  0.3875
 1505TIP3    H228711   5.515   1.397  20.293 -0.2387  1.7258 -1.8557
 1506TIP3   OH228712   4.844   6.237  19.627  0.5357 -0.1995 -0.0456
 1506TIP3    H128713   4.810   6.221  19.715  0.2404 -0.0505 -0.1329
 1506TIP3    H228714   4.792   6.310  19.594  1.1912  0.2748 -0.0374
 1507TIP3   OH228715   4.063   2.675  18.412  0.2359  0.1857  0.1691
 1507TIP3    H128716   3.980   2.627  18.409  0.4527 -0.1541 -0.7052
 1507TIP3    H228717   4.082   2.684  18.505 -0.7650  0.2413  0.3872
 1508TIP3   OH228718   6.473   5.762  20.209  0.3096  0.0449  0.2816
 1508TIP3    H128719   6.486   5.800  20.122  1.2740  2.3583  1.3458
 1508TIP3    H228720   6.410   5.691  20.196  1.9949 -1.1108 -2.6274
 1509TIP3   OH228721   2.538   5.418  18.478 -0.5305  0.7743  0.2890
 1509TIP3    H128722   2.513   5.397  18.568  1.4107 -1.5476  0.3884
 1509TIP3    H228723   2.489   5.356  18.424  1.2220 -0.5617  0.1335
 1510TIP3   OH228724   0.928   2.512  17.396  0.1621  0.0680  0.0189
 1510TIP3    H128725   0.941   2.590  17.342 -1.2114  0.1673 -0.2014
 1510TIP3    H228726   0.919   2.440  17.333 -0.7856  0.0812  0.1305
 1511TIP3   OH228727   5.737   5.090  20.279  0.4793  0.0192  0.4500
 1511TIP3    H128728   5.646   5.085  20.308 -0.1850 -2.1892 -1.6184
 1511TIP3    H228729   5.744   5.174  20.235 -0.7195  0.0299  0.2412
 1512TIP3   OH228730   4.166   0.242  19.084  0.2997 -0.0806 -0.0992
 1512TIP3    H128731   4.127   0.245  18.997 -1.8681 -0.8418  0.7742
 1512TIP3    H228732   4.217   0.323  19.091 -1.0167  0.9091 -1.4089
 1513TIP3   OH228733   1.155   2.367  20.075  0.3253 -0.0492 -0.3063
 1513TIP3    H128734   1.206   2.310  20.017  2.1402  1.0832  0.1247
 1513TIP3    H228735   1.210   2.444  20.088 -1.0130  0.7082  1.1356
 1514TIP3   OH228736   3.124   0.790  19.690 -0.0593  0.1555 -0.0585
 1514TIP3    H128737   3.124   0.697  19.712  1.0425  0.4600  1.3521
 1514TIP3    H228738   3.131   0.791  19.594 -3.0643 -1.2039 -0.4035
 1515TIP3   OH228739   2.553   0.750  17.280  0.6910 -0.3079  0.4606
 1515TIP3    H128740   2.589   0.702  17.205 -0.2682 -0.4711  0.0903
 1515TIP3    H228741   2.459   0.754  17.262 -0.0054 -2.7257  2.9160
 1516TIP3   OH228742   3.436   0.716  20.323 -0.2264  0.2827 -0.1459
 1516TIP3    H128743   3.360   0.680  20.277 -0.2212  2.6581 -2.2190
 1516TIP3    H228744   3.507   0.710  20.259  0.7943  0.1542  0.9726
 1517TIP3   OH228745   4.842   0.356  18.242  0.1239  0.1129 -0.0324
 1517TIP3    H128746   4.928   0.398  18.234 -0.2685  1.3590  1.5958
 1517TIP3    H228747   4.857   0.282  18.301  0.6602 -1.6794 -2.2930
 1518TIP3   OH228748   5.264   1.086  19.741 -0.2469 -0.6394  0.5562
 1518TIP3    H128749   5.299   1.172  19.761 -0.4298 -0.8603  1.9429
 1518TIP3    H228750   5.322   1.051  19.673 -1.3463  1.3261 -1.5181
 1519TIP3   OH228751   5.526   3.012  19.841  0.7911 -0.0717 -0.3921
 1519TIP3    H128752   5.540   2.945  19.774  2.1924  0.1177 -0.3255
 1519TIP3    H228753   5.598   3.074  19.828  2.5979 -1.2826  2.7675
 1520TIP3   OH228754   2.652   2.530  20.500  0.3415  0.4352  0.5145
 1520TIP3    H128755   2.573   2.576  20.471 -1.3447 -1.5902  1.6024
 1520TIP3    H228756   2.712   2.599  20.528 -0.3269  2.1268 -1.9219
 1521TIP3   OH228757   5.796   5.650  19.793 -0.1402 -0.1055  0.2114
 1521TIP3    H128758   5.767   5.630  19.882 -0.0586 -0.8172  0.0809
 1521TIP3    H228759   5.873   5.595  19.780  0.6059  0.9206  0.1421
 1522TIP3   OH228760   3.098   3.056  18.765 -0.6484 -0.0451 -0.0820
 1522TIP3    H128761   3.154   3.093  18.833 -2.4412 -0.8927  1.9699
 1522TIP3    H228762   3.042   3.130  18.738 -1.1486 -0.1102  0.7223
 1523TIP3   OH228763   1.927   1.550  18.609  0.0719 -0.0802  0.6168
 1523TIP3    H128764   1.983   1.478  18.638 -0.0897 -0.5869 -0.2807
 1523TIP3    H228765   1.984   1.604  18.555  0.8968  1.9082  3.2796
 1524TIP3   OH228766   0.868   0.179  17.730 -0.5507  0.7260 -0.2351
 1524TIP3    H128767   0.884   0.179  17.824  2.0479 -0.7856 -0.6004
 1524TIP3    H228768   0.796   0.117  17.718  0.2681 -0.4457  0.6492
 1525TIP3   OH228769   1.468   3.707  19.276 -0.1602  0.1070 -0.3909
 1525TIP3    H128770   1.431   3.642  19.336 -0.5560 -0.6955 -1.4800
 1525TIP3    H228771   1.522   3.656  19.216  0.0427  0.8717 -0.8688
 1526TIP3   OH228772   1.131   4.197  20.779  0.0183  0.7034 -0.2506
 1526TIP3    H128773   1.067   4.223  20.713  0.6358 -0.5382 -1.4131
 1526TIP3    H228774   1.136   4.102  20.770  0.8915  0.6265  0.8858
 1527TIP3   OH228775   4.220   3.784  19.204  0.1861 -0.1264 -0.2038
 1527TIP3    H128776   4.255   3.779  19.293  0.5153 -0.9062 -0.3686
 1527TIP3    H228777   4.206   3.693  19.179 -1.6822  0.1353 -0.2644
 1528TIP3   OH228778   0.297   1.180  18.814  0.0164  0.1846  0.1066
 1528TIP3    H128779   0.350   1.105  18.839 -0.2701 -0.0514  0.0103
 1528TIP3    H228780   0.252   1.206  18.894 -0.1475  0.0381  0.0634
 1529TIP3   OH228781   5.090   4.087  19.356 -0.3665  0.3632  0.3417
 1529TIP3    H128782   5.086   4.177  19.387 -0.5927  0.1985  0.7969
 1529TIP3    H228783   5.019   4.042  19.401  0.4145 -0.2882  0.9530
 1530TIP3   OH228784   1.585   6.627  18.984 -0.0223 -0.3499 -0.1462
 1530TIP3    H128785   1.605   6.667  18.900 -2.2221  1.3828  0.0449
 1530TIP3    H228786   1.491   6.609  18.980  0.2519 -2.4325  1.0982
 1531TIP3   OH228787   4.934   1.712  18.521  0.0298 -0.6857 -0.2664
 1531TIP3    H128788   4.901   1.645  18.580 -0.3529 -1.0876 -0.9194
 1531TIP3    H228789   5.017   1.678  18.489  0.6791 -0.0638  0.7131
 1532TIP3   OH228790   6.378   1.521  18.264 -0.0755  0.2670  0.4136
 1532TIP3    H128791   6.350   1.567  18.343  0.8917 -0.1227  0.9953
 1532TIP3    H228792   6.337   1.435  18.271 -0.9489  0.6203 -0.1103
 1533TIP3   OH228793   1.783   0.950  19.735 -0.3552  0.4099 -0.4262
 1533TIP3    H128794   1.817   0.886  19.797 -0.7308  0.3571 -0.2723
 1533TIP3    H228795   1.835   0.937  19.656 -0.5440 -0.2082 -0.4570
 1534TIP3   OH228796   2.022   1.747  18.473 -0.9385  0.4649  0.2305
 1534TIP3    H128797   1.971   1.819  18.511 -0.2181  0.3092  1.5626
 1534TIP3    H228798   2.105   1.786  18.449 -0.7099  0.1745  0.5440
 1535TIP3   OH228799   0.514   1.952  17.948 -0.3883  0.7030  0.1846
 1535TIP3    H128800   0.605   1.972  17.970 -0.0531  1.7114 -1.8202
 1535TIP3    H228801   0.503   1.861  17.972  1.8363 -0.0940 -1.4523
 1536TIP3   OH228802   0.602   0.109  17.526 -0.2103  0.2484  0.0076
 1536TIP3    H128803   0.511   0.136  17.510 -0.2405 -0.1440 -0.5016
 1536TIP3    H228804   0.607   0.097  17.621 -0.3398  1.5142  0.1898
 1537TIP3   OH228805   1.491   6.449  19.437 -0.2349 -0.3550 -0.4705
 1537TIP3    H128806   1.512   6.535  19.401 -1.4713  0.7128  1.2198
 1537TIP3    H228807   1.399   6.436  19.416 -0.7112 -0.1474  1.3698
 1538TIP3   OH228808   0.695   2.322  18.934 -0.1672 -0.6436  0.3549
 1538TIP3    H128809   0.636   2.383  18.979 -0.0026 -1.2741  1.4472
 1538TIP3    H228810   0.783   2.349  18.960  0.0830  0.3298 -1.3185
 1539TIP3   OH228811   2.443   4.201  20.728 -0.1194  0.1328 -0.3992
 1539TIP3    H128812   2.498   4.150  20.787 -1.0543  2.5409  2.8283
 1539TIP3    H228813   2.499   4.272  20.696 -0.2945  0.2922 -0.3549
 1540TIP3   OH228814   3.671   1.336  19.157  0.6197  0.8253 -0.5022
 1540TIP3    H128815   3.584   1.366  19.186 -0.3418 -0.7025 -1.6434
 1540TIP3    H228816   3.686   1.256  19.207  2.1399  1.8686  0.8427
 1541TIP3   OH228817   5.862   6.746  18.969 -0.0142  0.5163  0.0075
 1541TIP3    H128818   5.914   6.817  18.932  0.3673  0.1739 -0.1352
 1541TIP3    H228819   5.896   6.736  19.058  1.3972 -0.8328 -0.6202
 1542TIP3   OH228820   5.093   4.368  18.212  0.6474  0.1566  0.1285
 1542TIP3    H128821   5.012   4.401  18.174  0.3155 -1.6683 -0.8961
 1542TIP3    H228822   5.161   4.392  18.149  0.9497  1.7244  1.0080
 1543TIP3   OH228823   4.692   4.102  17.695  0.1013 -0.1747 -0.5311
 1543TIP3    H128824   4.653   4.158  17.762 -0.5165 -0.0559 -0.9802
 1543TIP3    H228825   4.738   4.163  17.637  0.4469 -0.2566 -0.3495
 1544TIP3   OH228826   0.672   3.856  19.770 -0.3704 -0.0518  0.1532
 1544TIP3    H128827   0.597   3.821  19.721  0.2631 -0.4016 -0.5883
 1544TIP3    H228828   0.682   3.946  19.737 -0.7456  0.1521  0.5883
 1545TIP3   OH228829   0.881   3.567  19.462  0.0933  0.2280  0.2383
 1545TIP3    H128830   0.939   3.502  19.502 -0.0731  0.6519  1.2028
 1545TIP3    H228831   0.816   3.515  19.414  0.5495 -0.2787  0.1519
 1546TIP3   OH228832   4.695   3.834  20.161 -0.0701 -1.1639  0.1508
 1546TIP3    H128833   4.700   3.861  20.069  1.2709 -2.0373 -0.0696
 1546TIP3    H228834   4.614   3.782  20.166 -1.0079  0.2112 -0.1321
 1547TIP3   OH228835   1.470   5.272  18.882 -0.0137 -0.1447  0.6062
 1547TIP3    H128836   1.396   5.232  18.837  1.2830 -0.8191 -1.0269
 1547TIP3    H228837   1.453   5.258  18.975 -1.7389 -0.5905  0.2483
 1548TIP3   OH228838   0.013   1.895  18.144 -0.2936  0.5261 -0.2745
 1548TIP3    H128839   0.058   1.810  18.137  2.4469  1.8388  0.0760
 1548TIP3    H228840   0.035   1.940  18.062  0.3989  1.8189  0.6032
 1549TIP3   OH228841   4.551   1.891  19.947 -0.0832 -0.0960 -0.3628
 1549TIP3    H128842   4.632   1.940  19.929 -0.3944  0.6966  0.3341
 1549TIP3    H228843   4.487   1.959  19.969 -0.7253 -0.7778 -0.1067
 1550TIP3   OH228844   0.771   5.002  18.876  0.5861  0.3902  0.0023
 1550TIP3    H128845   0.814   4.962  18.801 -0.0395 -2.7242  1.1676
 1550TIP3    H228846   0.804   4.954  18.952 -1.5526  0.8640  1.3365
 1551TIP3   OH228847   0.618   4.809  18.718 -0.4649 -0.7178  0.1678
 1551TIP3    H128848   0.606   4.900  18.746 -0.7940 -0.5703 -0.4325
 1551TIP3    H228849   0.706   4.786  18.746 -0.8212 -0.6119  1.4167
 1552TIP3   OH228850   5.847   6.221  18.064  0.0647  0.4959  0.4565
 1552TIP3    H128851   5.907   6.181  18.001 -0.4074 -0.5001  0.6056
 1552TIP3    H228852   5.872   6.313  18.067 -1.3662  1.1292 -2.8988
 1553TIP3   OH228853   2.172   6.458  18.921  0.3159 -0.2675  0.1203
 1553TIP3    H128854   2.214   6.398  18.982 -2.7953 -2.3011  0.4747
 1553TIP3    H228855   2.184   6.417  18.835  0.4920  0.0562 -0.0137
 1554TIP3   OH228856   2.547   4.563  18.370  0.6956 -0.3999  0.4149
 1554TIP3    H128857   2.599   4.594  18.444  1.6350 -0.7213 -0.0898
 1554TIP3    H228858   2.457   4.583  18.394  1.0684  0.4209  1.1950
 1555TIP3   OH228859   3.547   0.692  20.940 -0.5006 -0.2232 -0.5120
 1555TIP3    H128860   3.586   0.612  20.906 -1.9663 -1.1746 -0.0527
 1555TIP3    H228861   3.571   0.692  21.033 -1.9086 -1.0575 -0.1194
 1556TIP3   OH228862   4.572   2.735  19.694  0.6942 -0.0187  0.2418
 1556TIP3    H128863   4.592   2.820  19.656  2.1087 -0.0160  0.9166
 1556TIP3    H228864   4.658   2.698  19.715  0.0145 -0.4718  2.4126
 1557TIP3   OH228865   2.315   3.060  20.215  0.0438 -0.3124 -0.4229
 1557TIP3    H128866   2.336   3.148  20.185  0.6189  0.1188  1.1134
 1557TIP3    H228867   2.226   3.044  20.182  0.0945  0.6714 -1.0760
 1558TIP3   OH228868   0.179   5.630  19.432 -0.1578 -0.4159  0.0319
 1558TIP3    H128869   0.219   5.651  19.347 -1.3010  1.1901 -0.1553
 1558TIP3    H228870   0.111   5.566  19.411  0.5926 -1.2126 -0.0175
 1559TIP3   OH228871   4.407   4.416  19.997 -0.5399  0.3432 -0.1490
 1559TIP3    H128872   4.320   4.397  20.030 -0.6060 -1.0040 -1.0405
 1559TIP3    H228873   4.466   4.374  20.060 -0.4464  2.0899  1.0110
 1560TIP3   OH228874   2.478   0.298  17.894 -0.4412 -0.3481 -0.2035
 1560TIP3    H128875   2.460   0.242  17.969 -0.2890 -0.8827 -0.5658
 1560TIP3    H228876   2.567   0.330  17.909 -1.0198  0.9329  0.7154
 1561TIP3   OH228877   2.270   3.403  20.693  1.0058 -0.2530  0.5486
 1561TIP3    H128878   2.220   3.322  20.694  1.9915 -0.8816  0.1769
 1561TIP3    H228879   2.205   3.471  20.673  0.4656 -1.1782 -1.0038
 1562TIP3   OH228880   5.975   2.677  18.409 -0.5783  0.4676 -0.3853
 1562TIP3    H128881   5.977   2.625  18.329 -1.2278  1.0778 -0.8087
 1562TIP3    H228882   5.986   2.613  18.480 -1.7046 -0.2983 -0.8705
 1563TIP3   OH228883   0.415   6.091  18.565 -0.7441  0.3767  0.1299
 1563TIP3    H128884   0.506   6.070  18.586 -1.0598 -0.3931  0.7878
 1563TIP3    H228885   0.393   6.031  18.493 -0.6878  0.6643 -0.1275
 1564TIP3   OH228886   6.313   2.016  20.655  0.2104  0.0453  0.1082
 1564TIP3    H128887   6.390   1.967  20.628  0.3762  0.7437 -0.7417
 1564TIP3    H228888   6.265   1.955  20.712 -0.5497 -1.8563 -2.3665
 1565TIP3   OH228889   1.495   1.310  17.237  0.4770 -0.1825 -0.3475
 1565TIP3    H128890   1.467   1.346  17.322 -0.5124 -1.1309 -0.2442
 1565TIP3    H228891   1.485   1.382  17.176  2.0866  0.7985  0.4779
 1566TIP3   OH228892   0.152   2.857  19.918 -0.1412 -0.4267  0.0210
 1566TIP3    H128893   0.192   2.824  19.838 -2.7083 -1.0927 -1.0815
 1566TIP3    H228894   0.121   2.945  19.895  0.9247  0.2168  0.9551
 1567TIP3   OH228895   4.154   3.922  20.558  0.2260 -0.0210  0.0361
 1567TIP3    H128896   4.169   3.828  20.545 -0.6586 -0.0089 -1.1579
 1567TIP3    H228897   4.077   3.926  20.615 -0.7527 -0.0223 -1.2639
 1568TIP3   OH228898   2.641   6.110  19.890  0.1756 -0.1313 -0.0417
 1568TIP3    H128899   2.553   6.149  19.890  0.4601  0.5723 -1.1930
 1568TIP3    H228900   2.626   6.019  19.863 -0.1526  0.1346 -0.7849
 1569TIP3   OH228901   1.530   5.845  17.305 -0.2345 -0.3909  0.1981
 1569TIP3    H128902   1.546   5.933  17.271  2.0121 -0.0995  1.7543
 1569TIP3    H228903   1.617   5.804  17.307 -0.9050 -1.8770  1.4828
 1570TIP3   OH228904   5.225   1.387  20.505  0.2574  0.0711  0.4894
 1570TIP3    H128905   5.253   1.478  20.506  1.2703 -0.0308  5.2820
 1570TIP3    H228906   5.129   1.391  20.501  0.3199  1.2689 -0.0885
 1571TIP3   OH228907   5.872   5.059  20.010  0.2159  0.3663 -0.3178
 1571TIP3    H128908   5.882   4.980  20.064 -1.5443  0.0909 -0.3478
 1571TIP3    H228909   5.854   5.026  19.922 -0.7842  0.7841 -0.2829
 1572TIP3   OH228910   6.712   2.460  20.317 -0.0235 -0.0810  0.2271
 1572TIP3    H128911   6.719   2.381  20.264  0.9878 -0.1254  0.4075
 1572TIP3    H228912   6.639   2.509  20.277  0.5593 -0.2195 -1.0643
 1573TIP3   OH228913   5.374   3.250  19.802  0.7068 -0.2585 -0.2741
 1573TIP3    H128914   5.402   3.164  19.832 -2.0280 -0.5244  2.0071
 1573TIP3    H228915   5.441   3.310  19.835  2.6294 -1.3995 -1.8583
 1574TIP3   OH228916   3.392   4.181  18.779 -0.0419 -0.0318 -0.0560
 1574TIP3    H128917   3.408   4.122  18.706 -1.3756 -1.5695  0.8248
 1574TIP3    H228918   3.351   4.258  18.740  1.8518  0.4326 -1.2386
 1575TIP3   OH228919   0.947   4.785  17.861 -0.2496 -0.1371 -0.3514
 1575TIP3    H128920   0.898   4.861  17.893 -0.4628 -0.5527  0.3082
 1575TIP3    H228921   1.031   4.822  17.832  1.3853 -0.0952  3.7651
 1576TIP3   OH228922   4.983   5.767  18.475 -0.2433  0.1652  0.0397
 1576TIP3    H128923   4.991   5.724  18.390 -2.5879  0.6573 -0.5155
 1576TIP3    H228924   5.021   5.705  18.538  2.4733  0.2313 -1.4017
 1577TIP3   OH228925   5.065   1.113  16.495 -0.1456 -0.2695 -0.0283
 1577TIP3    H128926   5.088   1.114  16.588  0.4743 -1.7179 -0.1501
 1577TIP3    H228927   4.990   1.173  16.488  1.5215  2.0837  0.9189
 1578TIP3   OH228928   0.015   0.747  20.254  0.6422 -0.2756 -0.2852
 1578TIP3    H128929   0.088   0.809  20.255  2.3886 -2.1965 -0.7470
 1578TIP3    H228930   0.055   0.664  20.231 -1.6476 -1.5442  0.0057
 1579TIP3   OH228931   4.153   1.316  17.334 -0.0714 -0.0264  0.4978
 1579TIP3    H128932   4.169   1.225  17.357 -0.5733 -0.5061 -0.9280
 1579TIP3    H228933   4.073   1.314  17.282  0.0948  1.1883  0.1670
 1580TIP3   OH228934   5.742   3.475  17.254 -0.3459  0.3521  0.0402
 1580TIP3    H128935   5.716   3.559  17.292 -2.2729 -0.2188  0.0498
 1580TIP3    H228936   5.699   3.410  17.308 -0.2143 -0.5988 -0.9711
 1581TIP3   OH228937   1.090   6.669  18.788  0.3893 -0.3499  0.2773
 1581TIP3    H128938   1.015   6.661  18.847 -0.6905  1.5525 -0.7538
 1581TIP3    H228939   1.081   6.596  18.727 -1.0785  0.2873 -0.2987
 1582TIP3   OH228940   1.773   1.256  17.189 -0.3509  0.1126 -0.0759
 1582TIP3    H128941   1.823   1.182  17.223  0.1945  0.9391  0.9745
 1582TIP3    H228942   1.683   1.241  17.220  0.3132  1.3900  2.8411
 1583TIP3   OH228943   5.265   3.891  18.630 -0.2820 -0.5151  0.3157
 1583TIP3    H128944   5.183   3.932  18.603  0.9541  0.7107 -1.8047
 1583TIP3    H228945   5.251   3.797  18.615 -1.5930 -0.4328  0.9022
 1584TIP3   OH228946   1.731   2.546  18.979  0.2746  0.2333  0.0196
 1584TIP3    H128947   1.818   2.585  18.990  1.3924 -1.5842 -1.7029
 1584TIP3    H228948   1.733   2.467  19.033 -0.3368  0.1928 -0.0075
 1585TIP3   OH228949   0.097   0.332  19.841  0.1863 -0.4915 -0.1859
 1585TIP3    H128950   0.128   0.261  19.785 -0.4377 -1.1939  0.3386
 1585TIP3    H228951   0.118   0.412  19.793  0.9159 -1.0287 -0.7744
 1586TIP3   OH228952   0.098   1.629  18.186  0.0456 -0.1356  0.4114
 1586TIP3    H128953   0.048   1.611  18.266  0.0943  1.0188  0.7205
 1586TIP3    H228954   0.168   1.563  18.187 -1.5221 -1.9025 -0.1301
 1587TIP3   OH228955   2.507   0.192  18.147 -0.4496  0.0254  0.1498
 1587TIP3    H128956   2.550   0.270  18.184 -0.1741  0.0513 -0.2259
 1587TIP3    H228957   2.415   0.204  18.169 -0.6927  1.3420 -1.4310
 1588TIP3   OH228958   5.540   0.936  18.668 -0.1113  0.3007 -0.0015
 1588TIP3    H128959   5.572   1.024  18.689 -1.8610  1.4522 -1.8748
 1588TIP3    H228960   5.445   0.944  18.671 -0.3094 -1.6848  0.2261
 1589TIP3   OH228961   1.474   5.489  18.676  0.1639 -0.0572 -0.9270
 1589TIP3    H128962   1.430   5.421  18.729  1.1948  0.6615  0.9625
 1589TIP3    H228963   1.499   5.555  18.740  2.0644  0.5738 -2.2567
 1590TIP3   OH228964   2.160   4.496  20.644 -0.1372 -0.0641  0.0861
 1590TIP3    H128965   2.147   4.401  20.643  1.3930 -0.3307  1.2273
 1590TIP3    H228966   2.080   4.530  20.684  0.4402 -1.1667  2.3788
 1591TIP3   OH228967   3.578   0.436  20.786  0.5693  0.2123 -0.3315
 1591TIP3    H128968   3.493   0.393  20.775  0.5885  0.2941 -0.8492
 1591TIP3    H228969   3.598   0.471  20.699  0.9619  0.5127 -0.1233
 1592TIP3   OH228970   2.582   6.458  17.576  0.3517  0.1031  0.9112
 1592TIP3    H128971   2.665   6.425  17.609 -0.3131 -0.4134  2.1167
 1592TIP3    H228972   2.579   6.427  17.485  2.3512  1.8349  0.1944
 1593TIP3   OH228973   3.234   2.673  18.687  0.0574 -0.3590  0.1736
 1593TIP3    H128974   3.293   2.630  18.624  0.8265 -0.1361  0.7325
 1593TIP3    H228975   3.181   2.732  18.633  0.2831 -0.6204 -0.3454
 1594TIP3   OH228976   5.967   2.360  20.054 -0.0409 -0.3214  0.3059
 1594TIP3    H128977   5.931   2.366  20.142  1.1183 -1.1255  0.8479
 1594TIP3    H228978   5.924   2.283  20.016  1.7126 -1.8697  1.2914
 1595TIP3   OH228979   3.915   5.372  18.308 -0.0160 -0.4962 -0.0943
 1595TIP3    H128980   3.873   5.303  18.257  0.3479 -0.1881 -0.8123
 1595TIP3    H228981   3.972   5.417  18.246  1.8304 -1.2379  0.9783
 1596TIP3   OH228982   3.960   0.314  19.792 -0.8752  0.0173  0.1409
 1596TIP3    H128983   3.931   0.387  19.847 -2.6660 -1.1551  0.8884
 1596TIP3    H228984   3.954   0.347  19.703  0.7939  1.5437  0.5434
 1597TIP3   OH228985   3.526   6.583  18.472  0.1631 -0.0143  0.1176
 1597TIP3    H128986   3.540   6.675  18.451 -0.9633  0.1332 -0.0469
 1597TIP3    H228987   3.500   6.583  18.564 -2.0758  0.0991 -0.4564
 1598TIP3   OH228988   2.185   3.326  20.285  0.4078  0.2004  0.0566
 1598TIP3    H128989   2.146   3.242  20.310 -0.0633  0.1920 -0.6739
 1598TIP3    H228990   2.117   3.390  20.302  0.4830  0.3319 -0.1308
 1599TIP3   OH228991   3.205   6.198  20.340 -0.1750 -0.1536 -0.0469
 1599TIP3    H128992   3.256   6.140  20.283 -1.8323  0.1589 -1.9551
 1599TIP3    H228993   3.172   6.141  20.409  1.1483 -0.7296  0.1500
 1600TIP3   OH228994   3.941   2.584  19.028  0.4455  0.5424 -0.1181
 1600TIP3    H128995   3.953   2.678  19.039 -1.4008  0.8546 -0.4282
 1600TIP3    H228996   3.846   2.571  19.028  0.6380 -1.4907  1.2163
 1601TIP3   OH228997   4.224   2.487  18.337  0.4102 -0.0471  1.0305
 1601TIP3    H128998   4.165   2.540  18.391 -0.0201  0.5326  0.0098
 1601TIP3    H228999   4.300   2.543  18.323  1.4232 -0.9343  2.6701
 1602TIP3   OH229000   3.114   1.052  18.396 -0.5091 -0.2910  0.5300
 1602TIP3    H129001   3.062   1.132  18.408 -0.2418  0.2831 -1.6447
 1602TIP3    H229002   3.049   0.982  18.387 -0.8776  0.1493 -0.4061
 1603TIP3   OH229003   3.326   0.543  17.182  0.3911 -0.0012 -0.4849
 1603TIP3    H129004   3.374   0.567  17.103  3.2628 -0.5597  0.9209
 1603TIP3    H229005   3.286   0.459  17.162  1.1047 -0.1426 -1.3674
 1604TIP3   OH229006   2.866   4.626  20.691  0.1935 -0.0588  0.1602
 1604TIP3    H129007   2.954   4.607  20.722  0.0361 -0.1992  0.5293
 1604TIP3    H229008   2.862   4.588  20.603  0.0448 -1.2851  0.6891
 1605TIP3   OH229009   0.164   6.174  19.692 -0.1102  0.5906 -0.1151
 1605TIP3    H129010   0.186   6.244  19.630 -0.9391  0.6176 -0.3831
 1605TIP3    H229011   0.126   6.105  19.638 -2.2156  1.1959  0.5037
 1606TIP3   OH229012   6.457   2.670  19.395  0.0138 -0.2718 -0.0038
 1606TIP3    H129013   6.552   2.655  19.400  0.1108  0.5883  2.7778
 1606TIP3    H229014   6.418   2.590  19.431 -0.2344 -0.0314  0.2662
 1607TIP3   OH229015   1.594   4.905  19.300  0.2301 -0.4353 -0.4462
 1607TIP3    H129016   1.544   4.946  19.371  0.1188  1.6664 -1.6487
 1607TIP3    H229017   1.677   4.879  19.340 -0.4717 -0.8245  0.8005
 1608TIP3   OH229018   6.266   0.049  19.478 -0.3977 -0.4212 -0.0893
 1608TIP3    H129019   6.274   0.137  19.517  1.7742 -0.4076 -0.4299
 1608TIP3    H229020   6.314   0.055  19.396  1.8481 -2.4763  0.9346
 1609TIP3   OH229021   1.786   1.736  19.328  0.4542  0.7083  0.5729
 1609TIP3    H129022   1.731   1.659  19.344  0.0521  1.1121  1.2003
 1609TIP3    H229023   1.760   1.766  19.241  0.4156  0.2964  0.4404
 1610TIP3   OH229024   5.574   2.343  18.994 -0.8003 -0.4909  0.3368
 1610TIP3    H129025   5.612   2.260  18.965  0.3670  0.7368 -1.9808
 1610TIP3    H229026   5.642   2.408  18.973 -2.6060  1.3223 -0.1575
 1611TIP3   OH229027   3.309   4.889  18.340 -0.6655 -0.4189  0.3541
 1611TIP3    H129028   3.254   4.863  18.266  0.1926  0.7264 -0.7383
 1611TIP3    H229029   3.399   4.869  18.311 -0.2246  1.0497  0.6012
 1612TIP3   OH229030   5.697   5.170  17.610 -0.1522 -0.1527  0.2701
 1612TIP3    H129031   5.782   5.131  17.629  0.0677  0.2317  0.0624
 1612TIP3    H229032   5.698   5.189  17.517 -0.6131 -0.5022  0.1868
 1613TIP3   OH229033   4.967   3.984  20.529 -0.4287  0.3984  0.3397
 1613TIP3    H129034   4.894   3.961  20.472  1.8285 -1.3140 -2.0500
 1613TIP3    H229035   4.982   3.906  20.582  2.4670 -1.1743 -2.4844
 1614TIP3   OH229036   2.405   1.462  19.699 -0.2515 -0.2437  0.3882
 1614TIP3    H129037   2.486   1.501  19.731 -0.8350  0.6761  0.7741
 1614TIP3    H229038   2.433   1.405  19.627  0.8414 -0.7709  1.2057
 1615TIP3   OH229039   2.894   4.483  20.446  0.4212  0.2075 -0.3267
 1615TIP3    H129040   2.979   4.493  20.403  0.5315 -1.2676 -0.5117
 1615TIP3    H229041   2.830   4.494  20.375  0.5891 -1.7477 -0.8522
 1616TIP3   OH229042   3.058   0.048  18.429  0.1283 -0.0145  0.1024
 1616TIP3    H129043   3.067  -0.015  18.501 -0.4064 -0.0406  0.1509
 1616TIP3    H229044   3.143   0.046  18.385  1.4142  2.0020  2.3146
 1617TIP3   OH229045   2.181   1.230  19.003 -0.2821 -0.7785 -0.0796
 1617TIP3    H129046   2.214   1.156  18.952  2.0011  0.3249 -0.3181
 1617TIP3    H229047   2.244   1.240  19.074  0.1711  1.6144 -0.7178
 1618TIP3   OH229048   3.305   0.864  20.505  0.7483 -0.0052  0.5467
 1618TIP3    H129049   3.315   0.826  20.418 -1.0904  0.0824  0.2590
 1618TIP3    H229050   3.331   0.793  20.564 -0.0684 -0.8262 -0.0449
 1619TIP3   OH229051   3.832   4.639  18.304 -0.4416 -0.0794  0.0784
 1619TIP3    H129052   3.892   4.703  18.265 -0.6800 -0.6405 -1.2548
 1619TIP3    H229053   3.883   4.600  18.376 -0.3552  1.6863  1.0288
 1620TIP3   OH229054   0.898   0.715  19.019 -0.3885  0.8578  0.1502
 1620TIP3    H129055   0.948   0.763  18.952 -0.2295  0.5483  0.0456
 1620TIP3    H229056   0.880   0.780  19.087  2.2520  0.4582  1.3586
 1621TIP3   OH229057   2.126   4.498  17.525  0.5162  0.3259 -0.3498
 1621TIP3    H129058   2.201   4.545  17.487  1.2562 -0.5638 -0.0258
 1621TIP3    H229059   2.055   4.562  17.524  0.9151  0.7848 -1.8757
 1622TIP3   OH229060   2.715   3.964  18.794  0.2314  0.1768 -0.3772
 1622TIP3    H129061   2.810   3.955  18.786  0.0742 -2.7518 -0.0338
 1622TIP3    H229062   2.681   3.934  18.709 -0.4330 -1.8173  0.5358
 1623TIP3   OH229063   2.085   0.239  20.929  0.5314 -0.0363 -0.8961
 1623TIP3    H129064   2.004   0.281  20.899  0.2253  1.6100  1.8578
 1623TIP3    H229065   2.055   0.158  20.971  0.3417  0.2258 -0.5090
 1624TIP3   OH229066   0.498   0.632  20.034  0.6581 -0.3246  0.4488
 1624TIP3    H129067   0.524   0.669  19.950  0.4014  1.7906  1.2337
 1624TIP3    H229068   0.402   0.627  20.030  0.6494 -0.2902  0.5920
 1625TIP3   OH229069   4.582   5.961  18.089  0.1783 -0.1402 -0.1579
 1625TIP3    H129070   4.639   5.986  18.017 -0.0307 -0.0694 -0.2989
 1625TIP3    H229071   4.553   5.872  18.068  1.1984 -0.6466  0.5139
 1626TIP3   OH229072   6.169   6.723  19.991  0.0265 -0.0959 -0.4871
 1626TIP3    H129073   6.161   6.801  20.047 -0.7182 -0.9579  0.6414
 1626TIP3    H229074   6.181   6.759  19.903 -1.9593  1.3487 -0.2412
 1627TIP3   OH229075   2.624   0.976  17.550 -0.0612  0.1939  0.5349
 1627TIP3    H129076   2.550   0.951  17.606  0.1824  0.2638  0.8884
 1627TIP3    H229077   2.582   1.008  17.470 -0.4095  0.0067  0.6356
 1628TIP3   OH229078   4.405   0.606  17.855 -0.5264 -0.5853  0.2483
 1628TIP3    H129079   4.489   0.611  17.901 -0.4680  1.4931  0.0331
 1628TIP3    H229080   4.357   0.683  17.884 -1.4884 -0.5604 -1.2758
 1629TIP3   OH229081   0.693   2.237  17.761  0.9479  0.3720  0.2388
 1629TIP3    H129082   0.695   2.330  17.784  1.2140 -0.0494  2.0513
 1629TIP3    H229083   0.785   2.211  17.758  0.8720  0.1424 -0.2172
 1630TIP3   OH229084   4.652   3.632  19.393  0.1975 -0.0374 -0.3535
 1630TIP3    H129085   4.713   3.695  19.353 -0.9756  0.2821 -1.7144
 1630TIP3    H229086   4.565   3.669  19.378 -0.3861 -0.4776  1.5580
 1631TIP3   OH229087   2.079   0.671  20.626  0.4024 -0.2619  0.6513
 1631TIP3    H129088   2.166   0.712  20.626  1.7331 -2.8400 -0.2136
 1631TIP3    H229089   2.097   0.577  20.626 -2.4319 -0.8980  1.0921
 1632TIP3   OH229090   3.906   1.852  19.278  0.1317  0.3241 -0.1814
 1632TIP3    H129091   3.969   1.869  19.348 -0.9803 -3.6817  2.1034
 1632TIP3    H229092   3.941   1.776  19.232 -1.1652  0.3965 -1.3434
 1633TIP3   OH229093   3.612   3.601  18.036  0.3052 -0.0533  0.8393
 1633TIP3    H129094   3.646   3.549  17.963 -0.4597 -0.7621  0.9705
 1633TIP3    H229095   3.519   3.614  18.015  0.1656  0.0594  1.4908
 1634TIP3   OH229096   2.783   3.134  18.430  0.1819  0.3266 -0.7096
 1634TIP3    H129097   2.732   3.179  18.497 -0.8381  0.2498 -1.4238
 1634TIP3    H229098   2.760   3.042  18.438 -0.9197  0.4620 -1.9679
 1635TIP3   OH229099   3.437   1.206  19.829  0.5112 -0.2389  0.1155
 1635TIP3    H129100   3.433   1.230  19.736  0.1900 -2.4559 -0.5067
 1635TIP3    H229101   3.371   1.261  19.871 -1.6327 -1.3721 -1.5451
 1636TIP3   OH229102   1.536   5.831  19.092  0.0854 -0.0080  0.2733
 1636TIP3    H129103   1.514   5.885  19.168 -0.7895 -0.6467  0.4841
 1636TIP3    H229104   1.474   5.858  19.025  0.7259  0.4118 -0.1727
 1637TIP3   OH229105   2.893   0.866  18.707 -0.5950 -0.0567  0.2267
 1637TIP3    H129106   2.893   0.772  18.725 -2.7604  0.1407  1.5694
 1637TIP3    H229107   2.985   0.891  18.713  0.3301 -2.3819 -2.1350
 1638TIP3   OH229108   2.104   1.533  19.121  0.0883 -0.0092  0.0675
 1638TIP3    H129109   2.124   1.593  19.049 -0.1098 -0.0837 -0.0512
 1638TIP3    H229110   2.137   1.578  19.199 -1.5947  1.0692  0.2123
 1639TIP3   OH229111   6.271   3.940  19.833  0.1933  0.6969  0.0512
 1639TIP3    H129112   6.262   3.873  19.765  0.8823  1.7555 -1.1327
 1639TIP3    H229113   6.312   3.894  19.907  3.8203  0.4180 -1.8986
 1640TIP3   OH229114   4.577   1.221  18.677  0.2996  0.3384 -0.1160
 1640TIP3    H129115   4.660   1.197  18.634 -0.1240  0.5872 -1.1168
 1640TIP3    H229116   4.520   1.248  18.604  0.0624  2.3388  0.7646
 1641TIP3   OH229117   0.686   4.448  33.184 -0.6356 -0.7786 -0.2760
 1641TIP3    H129118   0.715   4.360  33.207  0.8486  0.0840  1.3750
 1641TIP3    H229119   0.630   4.436  33.107  1.2674 -2.9563 -1.4313
 1642TIP3   OH229120   3.597   0.066  19.638 -0.0626  0.3499 -0.1038
 1642TIP3    H129121   3.686   0.073  19.604 -0.4520 -2.4365 -2.1050
 1642TIP3    H229122   3.607   0.019  19.721  0.3773  0.7515  0.0734
 1643TIP3   OH229123   4.304   5.093  20.496 -0.0001 -0.2129  0.1400
 1643TIP3    H129124   4.378   5.142  20.461  0.1852  0.7962  1.8323
 1643TIP3    H229125   4.339   5.006  20.516 -0.0566 -0.7428 -1.8257
 1644TIP3   OH229126   4.408   5.506  18.143  0.1806 -0.5251 -0.1656
 1644TIP3    H129127   4.467   5.576  18.170 -0.7901  0.1313  0.3132
 1644TIP3    H229128   4.398   5.517  18.049  0.8671 -0.6837 -0.2612
 1645TIP3   OH229129   1.558   4.244  20.358  0.0989 -0.1432 -0.4592
 1645TIP3    H129130   1.529   4.153  20.349  1.8463 -0.8076  0.1586
 1645TIP3    H229131   1.643   4.237  20.402 -0.4676  1.8942  1.0865
 1646TIP3   OH229132   6.312   3.047  19.254 -0.0892 -0.0680 -0.0660
 1646TIP3    H129133   6.248   3.087  19.195 -1.1406  0.3836  1.3153
 1646TIP3    H229134   6.323   2.958  19.222 -0.6515  0.1565 -0.9158
 1647TIP3   OH229135   1.791   5.854  18.838 -0.1828  0.5803  0.5292
 1647TIP3    H129136   1.809   5.937  18.793  0.9944  0.7648  1.3084
 1647TIP3    H229137   1.697   5.841  18.827 -0.2482  1.6035 -0.3040
 1648TIP3   OH229138   6.495   0.383  17.223 -0.2350 -0.2524  0.1670
 1648TIP3    H129139   6.574   0.330  17.211 -1.2331 -1.8748  0.4102
 1648TIP3    H229140   6.485   0.430  17.140  2.0765  1.6164  0.8479
 1649TIP3   OH229141   4.485   1.856  18.931 -0.1477  0.1818 -0.5491
 1649TIP3    H129142   4.524   1.841  18.845  0.5280 -0.6200 -0.1086
 1649TIP3    H229143   4.436   1.776  18.950  0.0081  0.2093 -0.0252
 1650TIP3   OH229144   3.700   6.492  20.392 -0.0679  0.4122  0.2603
 1650TIP3    H129145   3.730   6.416  20.342  1.0719  1.4589 -0.7091
 1650TIP3    H229146   3.611   6.469  20.418  0.3341 -1.3554  0.2153
 1651TIP3   OH229147   0.654   2.086  18.486 -0.2933 -0.6519  0.4001
 1651TIP3    H129148   0.681   2.017  18.424 -2.7830 -1.6646  0.3113
 1651TIP3    H229149   0.692   2.059  18.569 -0.2289 -1.4758  0.1140
 1652TIP3   OH229150   0.219   4.067  17.698  0.4707 -0.5147  0.1843
 1652TIP3    H129151   0.183   3.986  17.661 -0.6928 -0.4316  1.0896
 1652TIP3    H229152   0.183   4.137  17.643  0.9349 -0.5660 -0.1865
 1653TIP3   OH229153   2.387   3.872  18.907  0.1955  0.3713 -0.1329
 1653TIP3    H129154   2.320   3.876  18.839 -0.5098  2.4406  0.5956
 1653TIP3    H229155   2.353   3.809  18.971 -0.3348  0.2944 -0.4813
 1654TIP3   OH229156   3.776   1.770  19.672 -0.5808  0.0725  0.3401
 1654TIP3    H129157   3.820   1.852  19.695  0.9757 -0.5569 -0.2774
 1654TIP3    H229158   3.741   1.738  19.755 -0.1622  0.7661  0.7995
 1655TIP3   OH229159   0.294   0.670  17.996 -0.1286  0.3145 -0.6913
 1655TIP3    H129160   0.331   0.626  17.919  0.1741 -0.5021 -0.0908
 1655TIP3    H229161   0.316   0.612  18.069  0.8935  1.8000  0.2262
 1656TIP3   OH229162   6.245   2.099  19.280  0.2736  0.0042 -0.3797
 1656TIP3    H129163   6.181   2.164  19.253 -0.6119 -0.4484  0.5672
 1656TIP3    H229164   6.237   2.096  19.375  1.4070 -0.3752 -0.2788
 1657TIP3   OH229165   4.921   1.775  20.444  0.1572 -0.3379 -0.8678
 1657TIP3    H129166   4.951   1.861  20.413 -1.0901  0.5160  0.1824
 1657TIP3    H229167   4.825   1.780  20.440  0.0607 -1.5261 -0.3820
 1658TIP3   OH229168   2.304   6.655  19.033 -0.4761  0.0401 -0.5869
 1658TIP3    H129169   2.377   6.651  18.971 -1.1762 -1.8236 -1.3686
 1658TIP3    H229170   2.237   6.599  18.994 -1.3841 -0.2657  1.3102
 1659TIP3   OH229171   2.321   5.264  17.708  0.3417  0.4995  0.4195
 1659TIP3    H129172   2.264   5.187  17.704 -0.2399  0.8770  1.2132
 1659TIP3    H229173   2.271   5.332  17.663  0.1843  0.8163  1.0633
 1660TIP3   OH229174   0.749   4.439  18.123  0.1027 -0.4827 -0.3200
 1660TIP3    H129175   0.676   4.497  18.100 -0.5462 -1.1738 -0.0766
 1660TIP3    H229176   0.827   4.489  18.101 -0.3234  1.5384  2.2876
 1661TIP3   OH229177   2.725   1.135  20.234  0.4703  0.8449  0.6784
 1661TIP3    H129178   2.685   1.067  20.180 -2.5256  2.9487 -0.0060
 1661TIP3    H229179   2.819   1.116  20.232 -0.1741 -2.9659  0.2238
 1662TIP3   OH229180   0.686   0.922  18.559 -0.3954  0.2456 -0.0635
 1662TIP3    H129181   0.687   0.852  18.493  0.2433  2.3081 -2.4097
 1662TIP3    H229182   0.599   0.960  18.553  0.3379  1.8210 -1.3557
 1663TIP3   OH229183   3.158   5.136  18.571  0.2099 -0.2686  0.0671
 1663TIP3    H129184   3.229   5.073  18.564  0.2019 -0.3555  0.6683
 1663TIP3    H229185   3.152   5.155  18.665 -0.4727 -0.1648  0.0089
 1664TIP3   OH229186   5.509   6.650  18.520 -0.4080  0.2685  0.5059
 1664TIP3    H129187   5.462   6.606  18.590 -3.0784  0.8191 -0.8077
 1664TIP3    H229188   5.440   6.682  18.461  1.6503  0.9982 -1.6676
 1665TIP3   OH229189   4.136   1.135  18.917 -0.2255 -0.0922 -0.0642
 1665TIP3    H129190   4.062   1.136  18.857 -0.8197 -1.3923  0.5970
 1665TIP3    H229191   4.193   1.065  18.884 -0.2055 -0.3276  0.4527
 1666TIP3   OH229192   1.189   4.963  18.585 -0.5506  0.2272 -0.1064
 1666TIP3    H129193   1.267   4.921  18.551  0.9729  2.6943  0.1189
 1666TIP3    H229194   1.131   4.974  18.509 -1.0968 -2.3030 -0.1333
 1667TIP3   OH229195   5.573   6.684  20.961 -0.5389  0.3009  0.0008
 1667TIP3    H129196   5.543   6.690  21.052 -0.0109  0.0230  0.1984
 1667TIP3    H229197   5.511   6.738  20.912 -0.5039  0.9211  0.6081
 1668TIP3   OH229198   2.507   1.349  20.276  0.1793  0.1154 -0.8520
 1668TIP3    H129199   2.557   1.277  20.238  1.2300  1.3426 -1.8557
 1668TIP3    H229200   2.507   1.417  20.209 -0.8629  1.0332  0.0363
 1669TIP3   OH229201   1.047   4.564  20.643  0.1587 -0.3349 -0.0531
 1669TIP3    H129202   1.000   4.612  20.575 -0.0593  0.3626  0.5831
 1669TIP3    H229203   1.125   4.617  20.660  0.1888 -0.4829  0.2723
 1670TIP3   OH229204   0.244   2.717  19.701  0.0908  0.3163  0.1136
 1670TIP3    H129205   0.324   2.746  19.657 -0.8756  0.1855 -1.8694
 1670TIP3    H229206   0.175   2.733  19.636 -1.1430 -1.8924  0.7837
 1671TIP3   OH229207   3.689   4.761  20.410  0.3336 -0.1098  0.0163
 1671TIP3    H129208   3.646   4.720  20.335  0.2455 -1.5201  0.7993
 1671TIP3    H229209   3.783   4.746  20.395  0.2775 -1.0089  0.5153
 1672TIP3   OH229210   6.647   4.510  18.784  0.2559  0.4068 -0.4355
 1672TIP3    H129211   6.599   4.461  18.851  1.2385 -0.6985 -0.5039
 1672TIP3    H229212   6.594   4.588  18.768 -1.3495 -0.6239 -0.3045
 1673TIP3   OH229213   3.633   4.772  17.851 -0.6641  0.2210  0.2775
 1673TIP3    H129214   3.664   4.852  17.893  0.1719 -0.3374  0.7422
 1673TIP3    H229215   3.700   4.752  17.786 -1.3493  0.4105 -0.5114
 1674TIP3   OH229216   6.151   2.971  17.936 -0.2045 -0.8441 -0.1808
 1674TIP3    H129217   6.242   2.983  17.961 -0.4446  0.1456  0.2439
 1674TIP3    H229218   6.145   3.009  17.848 -0.6451  1.0040  0.6018
 1675TIP3   OH229219   5.135   0.390  19.473  0.1427 -0.4041  0.1379
 1675TIP3    H129220   5.139   0.303  19.434 -0.2235 -0.5794  0.4880
 1675TIP3    H229221   5.217   0.397  19.523  0.3084 -0.4314 -0.1279
 1676TIP3   OH229222   4.456   1.161  19.432  0.6201 -0.3751 -0.2338
 1676TIP3    H129223   4.542   1.182  19.396  0.9428 -0.3543  0.5323
 1676TIP3    H229224   4.402   1.139  19.355  1.2617 -0.2415 -0.7270
 1677TIP3   OH229225   3.894   3.338  17.560 -0.5321 -0.3755 -0.5762
 1677TIP3    H129226   3.963   3.333  17.494  0.7357 -0.1415  0.6851
 1677TIP3    H229227   3.861   3.428  17.554 -1.2401 -0.6840 -1.6441
 1678TIP3   OH229228   4.219   0.684  20.189  0.0864 -0.1666 -0.0414
 1678TIP3    H129229   4.283   0.755  20.194  0.1847 -0.2883  0.4561
 1678TIP3    H229230   4.245   0.623  20.258 -0.2842 -0.4506 -0.1476
 1679TIP3   OH229231   6.595   4.314  19.882 -0.4450  0.2984 -0.1206
 1679TIP3    H129232   6.562   4.398  19.848 -1.1295 -0.3003 -0.9862
 1679TIP3    H229233   6.543   4.298  19.960 -1.0578  0.1852 -0.5393
 1680TIP3   OH229234   3.414   4.875  19.762  0.6286  0.3342 -0.2945
 1680TIP3    H129235   3.416   4.779  19.763  0.9023  0.3353  0.8383
 1680TIP3    H229236   3.345   4.898  19.824  1.4690  0.8803  0.4673
 1681TIP3   OH229237   4.169   2.447  19.088 -0.3193 -0.1219 -0.1047
 1681TIP3    H129238   4.082   2.486  19.084 -0.2270  0.2481  1.0868
 1681TIP3    H229239   4.163   2.381  19.157  0.3078 -0.1785 -0.0929
 1682TIP3   OH229240   5.473   3.287  19.547 -0.0679 -0.3354  0.3057
 1682TIP3    H129241   5.423   3.280  19.629  0.1012 -2.0034  0.2950
 1682TIP3    H229242   5.561   3.311  19.574 -0.6486  1.8950  0.3800
 1683TIP3   OH229243   1.294   1.338  17.808  0.2248 -0.6578  0.1134
 1683TIP3    H129244   1.315   1.315  17.898  0.8483  0.3419  0.2395
 1683TIP3    H229245   1.369   1.307  17.757  1.4956  1.6853  0.3905
 1684TIP3   OH229246   0.689   6.514  19.972  0.2088  0.1093 -0.9314
 1684TIP3    H129247   0.657   6.549  20.055  0.6007 -1.0351 -0.2644
 1684TIP3    H229248   0.780   6.491  19.989 -0.0971 -1.4537 -1.2182
 1685TIP3   OH229249   1.986   4.900  20.602  0.5509 -0.0463  0.4381
 1685TIP3    H129250   1.989   4.996  20.606  0.7022  0.0438 -1.1709
 1685TIP3    H229251   2.065   4.872  20.650  0.3300  0.6007  1.2091
 1686TIP3   OH229252   2.137   3.888  18.531 -0.0566 -0.5252 -0.2973
 1686TIP3    H129253   2.121   3.939  18.610  1.5223 -0.9424  0.3100
 1686TIP3    H229254   2.172   3.952  18.468 -0.1997 -0.4284 -0.2802
 1687TIP3   OH229255   1.055   0.652  19.725  0.0123 -0.6410 -0.1305
 1687TIP3    H129256   1.150   0.662  19.717  0.1286 -1.2005  0.4871
 1687TIP3    H229257   1.034   0.697  19.807 -0.3610  0.0871 -0.6155
 1688TIP3   OH229258   2.109   3.611  20.632 -0.5695  0.1382  0.2877
 1688TIP3    H129259   2.040   3.667  20.666 -1.2310  0.8445 -2.0184
 1688TIP3    H229260   2.081   3.590  20.543  2.5118  1.1231 -1.0701
 1689TIP3   OH229261   4.378   1.288  19.672 -0.5181 -0.2782  0.2350
 1689TIP3    H129262   4.457   1.316  19.719 -0.5608  0.8947 -0.3677
 1689TIP3    H229263   4.411   1.253  19.589 -0.6181 -0.0035  0.0799
 1690TIP3   OH229264   1.367   1.410  19.357 -0.7094 -0.3180  0.2300
 1690TIP3    H129265   1.370   1.412  19.262 -0.9124  1.2403  0.2249
 1690TIP3    H229266   1.414   1.331  19.381  0.8769  0.1457 -1.1209
 1691TIP3   OH229267   6.650   0.581  18.614 -0.0181 -0.0630  0.2075
 1691TIP3    H129268   6.707   0.567  18.539  1.2113  0.4343  1.0221
 1691TIP3    H229269   6.570   0.533  18.592  0.7249 -0.8412 -0.9257
 1692TIP3   OH229270   2.216   2.674  18.299  0.1943  0.3445  0.3697
 1692TIP3    H129271   2.268   2.646  18.225  0.0374 -0.0847  0.4183
 1692TIP3    H229272   2.130   2.694  18.262 -0.1146 -0.6079  0.5395
 1693TIP3   OH229273   3.592   0.747  18.490 -0.2751  0.4728 -0.0196
 1693TIP3    H129274   3.682   0.752  18.523  0.2089 -1.4453 -0.9271
 1693TIP3    H229275   3.567   0.656  18.502 -1.2165  0.4285 -2.0112
 1694TIP3   OH229276   1.929   4.612  20.774 -0.6123  0.4850 -0.7271
 1694TIP3    H129277   1.850   4.663  20.791 -0.8886  0.3011 -1.4013
 1694TIP3    H229278   1.898   4.521  20.772 -0.6095  0.4912 -2.1433
 1695TIP3   OH229279   2.143   4.944  18.642  0.0027  0.6327 -0.6388
 1695TIP3    H129280   2.106   4.989  18.566 -1.0535  2.3719  0.8142
 1695TIP3    H229281   2.114   4.996  18.717  1.0124 -1.0040  0.9728
 1696TIP3   OH229282   5.025   1.489  18.181 -0.7770  0.3685 -0.1709
 1696TIP3    H129283   4.997   1.427  18.248  2.6273  0.8596  1.9483
 1696TIP3    H229284   5.041   1.570  18.229 -2.1332  2.0522 -2.3583
 1697TIP3   OH229285   4.393   6.087  18.243 -0.1501  0.4844  0.2737
 1697TIP3    H129286   4.442   6.038  18.176 -1.8430 -3.9459  1.9378
 1697TIP3    H229287   4.449   6.084  18.320  0.5482  3.0991 -0.0309
 1698TIP3   OH229288   1.866   4.126  19.460 -0.8867  1.2048 -0.3563
 1698TIP3    H129289   1.847   4.136  19.553  1.6266  3.0775  0.0651
 1698TIP3    H229290   1.794   4.171  19.416  0.2239  4.5416  0.9445
 1699TIP3   OH229291   1.458   3.900  17.373  0.5349  0.1115 -0.5374
 1699TIP3    H129292   1.517   3.903  17.298  0.6436 -2.7294 -0.6839
 1699TIP3    H229293   1.514   3.916  17.449  0.7824  1.0188 -0.8918
 1700TIP3   OH229294   1.851   6.011  20.625 -0.1807 -0.0684  0.0382
 1700TIP3    H129295   1.930   6.010  20.679 -1.4648 -0.4963  1.9919
 1700TIP3    H229296   1.877   5.966  20.544  1.5125 -0.3978  0.7297
 1701TIP3   OH229297   3.762   5.163  19.629  0.2586 -0.2979 -0.1383
 1701TIP3    H129298   3.848   5.124  19.644  0.6680  0.7385  0.2900
 1701TIP3    H229299   3.739   5.205  19.712  0.2343  1.0954 -0.8230
 1702TIP3   OH229300   1.624   5.188  19.369 -0.0754  0.4181  0.4105
 1702TIP3    H129301   1.543   5.163  19.413 -0.0328  1.0085  0.8329
 1702TIP3    H229302   1.693   5.159  19.430  0.0112  0.5059  0.3530
 1703TIP3   OH229303   6.112   4.363  18.061  0.0569 -0.6595  1.0321
 1703TIP3    H129304   6.151   4.412  17.989 -0.1394 -0.0386  1.3414
 1703TIP3    H229305   6.058   4.427  18.108  0.0828 -1.0819  1.6574
 1704TIP3   OH229306   6.283   2.590  19.958  0.4554 -0.1403 -0.3319
 1704TIP3    H129307   6.292   2.682  19.934  1.8606 -0.6103 -1.7558
 1704TIP3    H229308   6.273   2.544  19.875  0.9952 -1.3860  0.2717
 1705TIP3   OH229309   6.200   3.199  20.220  0.0010 -0.4357 -0.2300
 1705TIP3    H129310   6.147   3.130  20.179  0.2557  0.0058 -1.3410
 1705TIP3    H229311   6.230   3.160  20.301  0.2475 -1.6973 -0.8979
 1706TIP3   OH229312   0.090   4.291  19.035  0.2068 -0.2764  0.1135
 1706TIP3    H129313   0.128   4.209  19.068 -1.2044 -0.5518  1.1724
 1706TIP3    H229314   0.037   4.265  18.960 -0.9110 -0.4861  0.9553
 1707TIP3   OH229315   0.950   1.891  18.265  0.0875  0.0639 -0.3574
 1707TIP3    H129316   1.041   1.860  18.267  0.6919  1.6864 -0.7364
 1707TIP3    H229317   0.957   1.984  18.243 -1.7643 -0.0996 -1.9027
 1708TIP3   OH229318   4.818   1.949  17.757  0.1794  0.2399  0.4119
 1708TIP3    H129319   4.763   1.998  17.818  0.0696  1.2059 -0.4393
 1708TIP3    H229320   4.845   2.013  17.691  1.9898 -0.2889  0.5619
 1709TIP3   OH229321   3.457   1.872  18.601  0.2419  0.1863 -0.0004
 1709TIP3    H129322   3.451   1.956  18.646 -0.9435 -0.6590  1.4859
 1709TIP3    H229323   3.440   1.807  18.668 -0.0339 -1.2107 -1.3613
 1710TIP3   OH229324   4.735   0.732  17.063 -0.1220  0.7606  0.2869
 1710TIP3    H129325   4.642   0.751  17.079 -0.3322 -0.5851  0.7610
 1710TIP3    H229326   4.777   0.818  17.064 -1.6077  1.5981 -1.7757
 1711TIP3   OH229327   0.523   5.910  19.044  0.0794  0.2509  0.1735
 1711TIP3    H129328   0.500   5.842  18.981 -2.6632  1.2525 -0.0125
 1711TIP3    H229329   0.594   5.871  19.096 -0.8739 -2.4400 -0.3887
 1712TIP3   OH229330   2.517   0.626  18.823 -0.4277  0.5015  0.3332
 1712TIP3    H129331   2.454   0.648  18.892  0.3664 -1.0251  1.6137
 1712TIP3    H229332   2.547   0.711  18.789 -3.1151  1.2792 -0.3279
 1713TIP3   OH229333   2.326   0.454  17.741 -0.3095  0.3141 -0.4499
 1713TIP3    H129334   2.289   0.491  17.821  2.6099  0.3793  1.0080
 1713TIP3    H229335   2.365   0.371  17.769  0.2785  0.0547 -1.9498
 1714TIP3   OH229336   3.142   0.792  19.429 -0.6232 -0.1174  0.1046
 1714TIP3    H129337   3.059   0.768  19.390  0.1252  1.5041 -2.8593
 1714TIP3    H229338   3.202   0.798  19.355  0.9682  3.2653  1.4510
 1715TIP3   OH229339   5.364   1.156  19.151 -0.4887 -0.2245  0.4216
 1715TIP3    H129340   5.452   1.121  19.138 -0.9129 -1.4903  0.8087
 1715TIP3    H229341   5.338   1.125  19.238 -0.5503  1.8354  1.1890
 1716TIP3   OH229342   1.893   5.466  18.208 -0.0936 -0.1100 -0.0507
 1716TIP3    H129343   1.886   5.544  18.152 -0.0888  0.0214  0.1321
 1716TIP3    H229344   1.974   5.424  18.179 -0.4315 -0.4031 -0.5984
 1717TIP3   OH229345   4.167   2.923  18.306  0.3424  0.0620  0.1400
 1717TIP3    H129346   4.259   2.916  18.332  0.2310  0.3196  0.6104
 1717TIP3    H229347   4.121   2.860  18.362  0.3369 -0.6272 -0.6331
 1718TIP3   OH229348   3.632   3.365  19.457  0.4144 -0.2407 -0.0675
 1718TIP3    H129349   3.656   3.274  19.437 -1.1614 -0.9254  0.8913
 1718TIP3    H229350   3.569   3.388  19.388  2.7049  1.1123 -1.8606
 1719TIP3   OH229351   0.370   3.708  20.190 -0.0833  0.3980 -0.4105
 1719TIP3    H129352   0.380   3.614  20.180  2.1569  0.6854 -1.4047
 1719TIP3    H229353   0.420   3.746  20.118  0.4335  2.3638  0.8756
 1720TIP3   OH229354   4.381   0.110  18.065  0.4419 -0.2830 -0.1368
 1720TIP3    H129355   4.388   0.118  18.160  0.8718  0.3232 -0.2133
 1720TIP3    H229356   4.361   0.018  18.050 -1.4270 -0.0407  0.6286
 1721TIP3   OH229357   3.961   0.890  19.069  0.3223  0.2904 -0.1050
 1721TIP3    H129358   3.984   0.835  19.144  0.0005 -0.3079 -0.4389
 1721TIP3    H229359   3.940   0.975  19.108 -0.0714 -0.0785  0.5058
 1722TIP3   OH229360   2.444   4.307  18.242 -0.2209 -0.1034 -0.0963
 1722TIP3    H129361   2.385   4.314  18.167  1.1520  0.3125 -1.1782
 1722TIP3    H229362   2.466   4.397  18.264 -0.3641 -0.2367  0.6263
 1723TIP3   OH229363   4.931   2.789  18.887  1.0886 -0.6993 -0.1495
 1723TIP3    H129364   4.965   2.756  18.970 -0.0801 -0.7634  0.3333
 1723TIP3    H229365   4.903   2.710  18.840  0.0069 -0.5566  0.2185
 1724TIP3   OH229366   2.901   6.500  19.109  0.0599 -0.5740 -0.0492
 1724TIP3    H129367   2.972   6.548  19.151 -0.8839  0.1754  0.7574
 1724TIP3    H229368   2.883   6.427  19.169 -0.5573 -0.1368  0.3104
 1725TIP3   OH229369   2.402   1.685  19.393  0.5220  0.1758  0.0082
 1725TIP3    H129370   2.345   1.610  19.409 -1.4515  1.3783 -1.0342
 1725TIP3    H229371   2.475   1.673  19.455 -1.2621 -0.9923  2.0254
 1726TIP3   OH229372   0.914   1.192  17.198 -0.2833 -0.6396 -0.1217
 1726TIP3    H129373   0.994   1.140  17.199 -0.2331 -0.5601  0.5088
 1726TIP3    H229374   0.933   1.263  17.138 -0.0268 -0.8537 -0.2969
 1727TIP3   OH229375   2.887   3.806  18.159 -0.6965 -0.4266 -0.3584
 1727TIP3    H129376   2.883   3.831  18.067 -2.8164  2.4237  0.3472
 1727TIP3    H229377   2.920   3.885  18.203 -1.0137 -1.2513  1.4383
 1728TIP3   OH229378   2.293   3.984  20.885  0.0695  0.4161  1.1123
 1728TIP3    H129379   2.288   4.077  20.862 -0.2288  0.2044  0.3096
 1728TIP3    H229380   2.374   3.976  20.935  0.6233  0.9177  0.2971
 1729TIP3   OH229381   6.311   0.655  16.486  0.0885 -0.0172 -0.2433
 1729TIP3    H129382   6.381   0.645  16.421  0.0956 -1.2196 -0.0660
 1729TIP3    H229383   6.357   0.667  16.569  0.0869  2.0259 -0.4818
 1730TIP3   OH229384   4.603   3.282  20.686  0.8768 -0.3680 -0.3356
 1730TIP3    H129385   4.603   3.296  20.781 -0.8628 -1.8983 -0.0368
 1730TIP3    H229386   4.510   3.278  20.663  1.2704 -0.1475 -2.1047
 1731TIP3   OH229387   0.098   6.380  19.311  0.0641  0.1745  0.3344
 1731TIP3    H129388   0.152   6.450  19.276  1.2401 -1.0553 -0.3862
 1731TIP3    H229389   0.106   6.388  19.406  1.6282 -0.0314  0.2446
 1732TIP3   OH229390   4.459   0.605  17.494  0.1882 -0.0849 -0.6604
 1732TIP3    H129391   4.492   0.552  17.567  0.7835 -0.0327 -0.8834
 1732TIP3    H229392   4.384   0.556  17.461 -0.1609 -0.0529  0.0596
 1733TIP3   OH229393   2.397   4.146  19.002  0.5282 -0.0158 -0.3287
 1733TIP3    H129394   2.492   4.150  18.995  0.4843  0.0418 -0.9487
 1733TIP3    H229395   2.374   4.061  18.965  0.4679 -0.8185  1.4268
 1734TIP3   OH229396   6.214   0.928  19.826  0.0992  0.4005  0.1510
 1734TIP3    H129397   6.235   0.851  19.878 -0.8363  0.0826  0.0886
 1734TIP3    H229398   6.239   1.003  19.880 -0.0137  0.0611  0.6737
 1735TIP3   OH229399   3.272   6.640  18.033  0.3912 -0.3708 -0.2761
 1735TIP3    H129400   3.329   6.624  17.958  0.8594  0.3628 -0.0837
 1735TIP3    H229401   3.189   6.669  17.995  0.2627 -1.0642 -0.5427
 1736TIP3   OH229402   2.488   3.704  20.862  0.3344 -0.0620  0.2030
 1736TIP3    H129403   2.582   3.712  20.845  0.6021 -1.1274  1.0619
 1736TIP3    H229404   2.481   3.630  20.923 -0.9513  0.7952  1.1346
 1737TIP3   OH229405   0.335   1.409  18.136  0.2203 -0.3615 -0.1007
 1737TIP3    H129406   0.385   1.469  18.081 -1.5133  0.6020 -0.7164
 1737TIP3    H229407   0.275   1.365  18.075 -0.9714 -0.1040  0.8390
 1738TIP3   OH229408   4.126   1.621  20.498  0.1322  0.1700  0.0298
 1738TIP3    H129409   4.053   1.560  20.512  1.1328 -1.0727  0.0852
 1738TIP3    H229410   4.166   1.591  20.416  1.6455 -0.3387  0.9074
 1739TIP3   OH229411   3.382   2.006  18.068 -0.0823  0.2071  0.3230
 1739TIP3    H129412   3.424   2.007  18.154  1.2410  0.5506 -0.2878
 1739TIP3    H229413   3.312   2.071  18.074 -1.4239 -1.3037  1.7739
 1740TIP3   OH229414   0.595   2.083  17.300 -0.4362 -0.2264  0.0308
 1740TIP3    H129415   0.630   2.131  17.225  0.8737 -0.0193  0.7332
 1740TIP3    H229416   0.571   1.997  17.265 -0.2888  0.0272 -0.7076
 1741TIP3   OH229417   0.066   6.086  18.863 -0.3126 -0.3000 -0.6505
 1741TIP3    H129418   0.161   6.099  18.865 -0.1265 -1.5674  0.8657
 1741TIP3    H229419   0.035   6.141  18.791  1.6922 -0.7287 -1.9002
 1742TIP3   OH229420   6.091   0.525  19.125  0.1091 -0.0661 -0.4169
 1742TIP3    H129421   6.163   0.563  19.076 -0.0509 -2.1032 -2.3574
 1742TIP3    H229422   6.132   0.459  19.181 -0.1064 -0.2298 -0.4512
 1743TIP3   OH229423   3.024   3.697  19.387  0.2710 -0.0506 -0.3895
 1743TIP3    H129424   3.038   3.602  19.382  0.5537  0.0140 -0.8562
 1743TIP3    H229425   2.933   3.706  19.416  0.9793 -0.4763  2.2435
 1744TIP3   OH229426   3.874   1.831  18.483 -0.0116  0.3904  0.5302
 1744TIP3    H129427   3.794   1.788  18.452  0.3776 -0.9637  1.2847
 1744TIP3    H229428   3.879   1.807  18.576  1.2844  0.4192  0.4837
 1745TIP3   OH229429   3.092   5.134  20.147  0.6902  0.0426  0.1521
 1745TIP3    H129430   3.029   5.194  20.110 -1.0830 -2.0327 -0.3956
 1745TIP3    H229431   3.129   5.181  20.222 -0.7227  1.7182 -0.1394
 1746TIP3   OH229432   5.522   0.671  19.596  0.6284  0.2276 -0.4134
 1746TIP3    H129433   5.511   0.655  19.503  0.4547 -0.8468 -0.2181
 1746TIP3    H229434   5.611   0.640  19.615  0.5240  0.0886 -0.1502
 1747TIP3   OH229435   5.036   0.642  20.543  0.4388  0.0132 -0.4434
 1747TIP3    H129436   5.098   0.636  20.471  2.7653 -3.3903  1.5449
 1747TIP3    H229437   4.997   0.555  20.548 -1.0268  0.7059  1.3023
 1748TIP3   OH229438   4.582   5.483  20.195 -0.6873 -0.6037 -0.2849
 1748TIP3    H129439   4.545   5.486  20.107 -0.5726 -0.5957 -0.3340
 1748TIP3    H229440   4.669   5.523  20.186 -0.9395  0.0020 -0.0368
 1749TIP3   OH229441   2.624   3.290  17.458 -0.2641 -0.5030  0.1277
 1749TIP3    H129442   2.533   3.295  17.428  0.1174  1.7623 -0.8875
 1749TIP3    H229443   2.639   3.374  17.502  0.9594 -1.4034  1.5388
 1750TIP3   OH229444   0.600   1.299  17.616  0.8810  0.5318  0.6438
 1750TIP3    H129445   0.593   1.210  17.652 -1.2012  0.1337 -0.5600
 1750TIP3    H229446   0.681   1.298  17.565  0.2376 -1.1334 -0.4308
 1751TIP3   OH229447   4.654   5.915  19.430  0.0982  0.0289 -0.1743
 1751TIP3    H129448   4.564   5.914  19.462 -0.1340 -3.1542 -0.6199
 1751TIP3    H229449   4.648   5.890  19.338  1.4744 -2.0000  0.2095
 1752TIP3   OH229450   5.868   2.005  19.562 -0.5142 -0.5094 -0.3460
 1752TIP3    H129451   5.889   2.064  19.634  2.2165  0.8064 -2.0851
 1752TIP3    H229452   5.921   1.927  19.578 -0.9147 -0.7731 -0.2745
 1753TIP3   OH229453   1.114   3.763  20.003 -0.1080 -0.4620 -0.1412
 1753TIP3    H129454   1.114   3.858  20.010  0.1074 -0.5055  0.5468
 1753TIP3    H229455   1.149   3.745  19.916 -0.4506  0.0902 -0.4014
 1754TIP3   OH229456   4.264   3.452  19.935 -0.6073  0.6726 -0.0178
 1754TIP3    H129457   4.200   3.511  19.975 -1.0360  0.1299  0.1157
 1754TIP3    H229458   4.270   3.378  19.996 -1.7606 -0.4834 -1.2248
 1755TIP3   OH229459   2.374   5.254  18.331  0.0083  0.1320  0.0478
 1755TIP3    H129460   2.388   5.196  18.255 -0.8093  0.3630 -0.2849
 1755TIP3    H229461   2.324   5.200  18.392  1.5167 -0.3962  0.8704
 1756TIP3   OH229462   0.885   0.417  19.979  0.2654  0.4649 -0.4625
 1756TIP3    H129463   0.921   0.348  19.923 -0.4841  1.1504 -1.8394
 1756TIP3    H229464   0.821   0.372  20.035  3.3183 -0.8609  2.3114
 1757TIP3   OH229465   5.901   1.197  18.142 -0.2083  0.1059 -0.3510
 1757TIP3    H129466   5.914   1.194  18.237 -2.3609  1.5396  0.0641
 1757TIP3    H229467   5.965   1.262  18.112  0.1945 -0.0420  0.1697
 1758TIP3   OH229468   3.292   0.059  18.245 -0.6755 -0.0655  0.0569
 1758TIP3    H129469   3.262   0.143  18.210 -1.7476 -0.5905 -0.3194
 1758TIP3    H229470   3.299   0.002  18.168 -1.1712 -0.6764  0.4558
 1759TIP3   OH229471   6.617   1.853  20.499  0.4705 -0.0588 -0.1614
 1759TIP3    H129472   6.689   1.804  20.540 -0.0034 -0.4796  0.1813
 1759TIP3    H229473   6.553   1.786  20.477  0.0949  0.3410 -0.2859
 1760TIP3   OH229474   5.582   2.422  19.457  0.0861 -0.1746  0.7745
 1760TIP3    H129475   5.610   2.341  19.499 -1.1546 -1.1196 -0.1335
 1760TIP3    H229476   5.536   2.393  19.378 -1.3933  1.3628  1.0149
 1761TIP3   OH229477   4.293   2.972  18.593  0.2157 -0.0884  0.2271
 1761TIP3    H129478   4.331   3.036  18.652  1.3955  1.1672 -1.7525
 1761TIP3    H229479   4.311   3.007  18.505 -1.3509 -1.8800 -0.8911
 1762TIP3   OH229480   3.024   0.280  19.394 -0.3444  0.5613 -0.2500
 1762TIP3    H129481   3.081   0.224  19.342  1.3971  1.4428  0.6259
 1762TIP3    H229482   3.034   0.367  19.354 -0.2005  0.9355  0.5945
 1763TIP3   OH229483   1.090   0.550  20.753 -0.4112  0.0906 -0.2224
 1763TIP3    H129484   1.025   0.484  20.778 -1.8184  1.1093 -1.1301
 1763TIP3    H229485   1.049   0.600  20.683  0.0158  2.8974  1.3932
 1764TIP3   OH229486   1.798   1.676  18.273  0.0210  0.0422  0.2598
 1764TIP3    H129487   1.884   1.686  18.315  1.0846 -1.7533 -1.3467
 1764TIP3    H229488   1.802   1.734  18.197  0.4237 -1.1776 -0.6666
 1765TIP3   OH229489   3.595   0.742  19.137 -0.2307  0.3598 -1.1368
 1765TIP3    H129490   3.623   0.748  19.228 -2.5596  1.4761 -0.3977
 1765TIP3    H229491   3.606   0.650  19.114  0.9448  0.1734  0.0513
 1766TIP3   OH229492   4.985   4.148  19.806 -0.4516  0.4021  0.2111
 1766TIP3    H129493   4.946   4.192  19.731  1.5729 -0.6177 -1.5350
 1766TIP3    H229494   4.965   4.055  19.792  0.1125  0.1834  0.8312
 1767TIP3   OH229495   4.938   5.446  20.918  0.1287  0.0722  0.2686
 1767TIP3    H129496   5.016   5.472  20.868  0.0673 -0.2257  0.0177
 1767TIP3    H229497   4.958   5.472  21.008  0.2573  0.5740  0.0989
 1768TIP3   OH229498   5.657   0.877  18.346 -0.4667 -0.0368  0.2573
 1768TIP3    H129499   5.562   0.876  18.346 -0.4940  1.1731 -0.1243
 1768TIP3    H229500   5.681   0.908  18.259  0.1864  2.4535  1.2420
 1769TIP3   OH229501   3.473   1.576  18.309 -0.1235 -0.1608 -0.2194
 1769TIP3    H129502   3.441   1.520  18.238  0.3811  1.2531 -1.6354
 1769TIP3    H229503   3.443   1.534  18.389  1.4394 -3.2224 -1.0981
 1770TIP3   OH229504   5.130   1.138  20.567  0.1769 -0.2930 -0.1578
 1770TIP3    H129505   5.198   1.204  20.575  0.0432 -0.1536 -0.1715
 1770TIP3    H229506   5.052   1.186  20.539  0.1028 -0.4684 -0.2571
 1771TIP3   OH229507   1.500   4.745  20.919 -0.0963  0.3532 -0.4931
 1771TIP3    H129508   1.508   4.830  20.962  1.1361  0.1896 -0.3736
 1771TIP3    H229509   1.580   4.736  20.867 -0.6508 -0.3213 -1.2612
 1772TIP3   OH229510   1.085   0.013  20.642  0.1133 -0.2504 -0.3747
 1772TIP3    H129511   1.061   0.013  20.735 -0.5393  1.1152 -0.5235
 1772TIP3    H229512   1.006   0.042  20.597  0.6358 -0.2309 -1.3041
 1773TIP3   OH229513   4.182   3.297  18.731 -0.0605 -0.4290 -0.2973
 1773TIP3    H129514   4.111   3.339  18.779  0.9004  0.0147  0.7715
 1773TIP3    H229515   4.150   3.292  18.641 -0.5440  1.9010 -0.3239
 1774TIP3   OH229516   5.487   2.805  18.145  0.2786  0.2808 -0.1685
 1774TIP3    H129517   5.539   2.828  18.068  0.3245  1.8086  0.3015
 1774TIP3    H229518   5.552   2.784  18.212  0.2595  0.4013 -0.1134
 1775TIP3   OH229519   1.760   5.769  19.243 -0.3244  0.0272  0.2215
 1775TIP3    H129520   1.681   5.772  19.189 -0.4506  1.9152  0.4463
 1775TIP3    H229521   1.783   5.861  19.256  2.0215 -0.4777  0.0096
 1776TIP3   OH229522   2.320   5.914  19.433  0.2906 -0.7358 -0.2455
 1776TIP3    H129523   2.239   5.915  19.383  0.4291 -3.0638 -0.6038
 1776TIP3    H229524   2.334   6.006  19.457 -1.0975  0.0763 -2.2959
 1777TIP3   OH229525   4.939   1.821  19.665 -0.1537 -0.3017  0.2067
 1777TIP3    H129526   4.959   1.814  19.571  1.2004 -1.1704  0.5368
 1777TIP3    H229527   4.954   1.733  19.699 -0.9262 -0.0615  1.1989
 1778TIP3   OH229528   4.075   2.113  20.005  0.0550  0.9881  0.0892
 1778TIP3    H129529   4.023   2.115  20.085 -2.3390  2.2090 -1.3967
 1778TIP3    H229530   4.082   2.204  19.978  1.7719  0.6984 -0.5414
 1779TIP3   OH229531   4.109   6.179  19.309  0.0539 -0.1696 -0.0695
 1779TIP3    H129532   4.089   6.272  19.298 -0.5409 -0.2326  0.4437
 1779TIP3    H229533   4.103   6.164  19.403 -0.8277 -0.9419 -0.2363
 1780TIP3   OH229534   2.077   0.520  20.262  0.7199  0.0921 -0.1485
 1780TIP3    H129535   2.124   0.475  20.192  2.8624  1.8221  0.0981
 1780TIP3    H229536   2.066   0.609  20.230 -0.3267  0.3287  0.8053
 1781TIP3   OH229537   3.804   2.841  20.690 -0.4769 -0.0379 -0.0957
 1781TIP3    H129538   3.855   2.861  20.769 -0.7468 -0.0381  0.0802
 1781TIP3    H229539   3.868   2.803  20.629 -0.0621  0.8430 -0.2332
 1782TIP3   OH229540   3.575   1.791  17.976  0.3673  0.5815  0.4434
 1782TIP3    H129541   3.499   1.840  18.007  0.5718  0.8763  0.4767
 1782TIP3    H229542   3.557   1.700  18.002  0.5237  0.8184  1.4108
 1783TIP3   OH229543   4.458   0.636  18.285  0.0282 -0.2176  0.0245
 1783TIP3    H129544   4.519   0.629  18.359  0.9700  2.5273 -0.3839
 1783TIP3    H229545   4.466   0.552  18.240  1.2158 -1.0657  1.6986
 1784TIP3   OH229546   1.743   6.483  19.188 -0.3921 -0.6731  0.2807
 1784TIP3    H129547   1.710   6.510  19.102  0.4145  0.8639  0.4116
 1784TIP3    H229548   1.796   6.405  19.171 -2.7784 -2.3269 -0.1323
 1785TIP3   OH229549   5.966   4.280  17.403 -0.4324 -0.1681  0.2952
 1785TIP3    H129550   5.995   4.215  17.466 -1.2920  1.0745  2.0595
 1785TIP3    H229551   6.013   4.360  17.428 -1.0324  0.4279 -0.4299
 1786TIP3   OH229552   1.296   0.159  18.755 -0.3604 -0.2743 -0.1767
 1786TIP3    H129553   1.327   0.106  18.828  0.1415 -0.7900 -0.7589
 1786TIP3    H229554   1.217   0.114  18.725  0.6324 -1.3119 -1.3331
 1787TIP3   OH229555   6.101   2.184  18.865  0.1104 -0.1377 -0.3344
 1787TIP3    H129556   6.065   2.130  18.935 -1.4384  1.8021  0.4649
 1787TIP3    H229557   6.078   2.138  18.785  0.1232 -1.3657  0.3427
 1788TIP3   OH229558   4.054   1.259  20.601  0.7912 -0.1868  0.1967
 1788TIP3    H129559   4.045   1.207  20.521  0.1575 -2.7795  1.8109
 1788TIP3    H229560   4.136   1.307  20.589 -0.0419  0.7324 -2.5850
 1789TIP3   OH229561   5.372   3.555  20.289  0.3154  0.5049 -0.0182
 1789TIP3    H129562   5.465   3.567  20.303  0.2790  0.4667  0.2583
 1789TIP3    H229563   5.346   3.630  20.235  0.7253 -0.0863 -1.0758
 1790TIP3   OH229564   0.362   0.763  20.309 -0.0441 -0.6250  0.3365
 1790TIP3    H129565   0.367   0.694  20.243 -0.3665  0.8816 -1.3336
 1790TIP3    H229566   0.316   0.834  20.265  1.5368  1.1956  1.5099
 1791TIP3   OH229567   2.001   1.151  18.445 -0.1244  0.4744  0.0653
 1791TIP3    H129568   1.916   1.141  18.401 -0.2214  1.0796  0.1063
 1791TIP3    H229569   2.060   1.094  18.396 -0.5650  0.0216  0.0581
 1792TIP3   OH229570   3.378   1.571  20.295 -0.2234 -0.4182 -0.3962
 1792TIP3    H129571   3.315   1.516  20.248 -0.6740  0.1457 -0.4504
 1792TIP3    H229572   3.462   1.528  20.280 -0.5302 -0.9190 -0.7061
 1793TIP3   OH229573   6.465   2.222  19.384 -0.6031  0.0301  0.2658
 1793TIP3    H129574   6.438   2.270  19.306 -0.5295 -0.1513  0.1281
 1793TIP3    H229575   6.428   2.134  19.373  2.1552 -1.0707 -1.2022
 1794TIP3   OH229576   0.512   1.526  18.369  0.1842 -0.3421 -0.6247
 1794TIP3    H129577   0.445   1.508  18.303  1.9748  0.3623 -2.7670
 1794TIP3    H229578   0.576   1.456  18.358 -0.5354 -1.5331  2.0145
 1795TIP3   OH229579   5.549   2.107  18.461  0.0672  0.1621 -0.7143
 1795TIP3    H129580   5.518   2.050  18.531  0.4922  1.2475  0.3929
 1795TIP3    H229581   5.558   2.193  18.502  1.7483  0.5138 -1.7069
 1796TIP3   OH229582   4.615   4.134  18.528  0.0435  0.1007 -0.3083
 1796TIP3    H129583   4.685   4.123  18.463  0.0284  0.7117 -0.4316
 1796TIP3    H229584   4.654   4.105  18.610  0.7145  1.1941 -0.2210
 1797TIP3   OH229585   4.872   0.355  17.944 -0.6815 -0.1963 -0.2405
 1797TIP3    H129586   4.790   0.314  17.917  0.4320 -2.6026 -0.2312
 1797TIP3    H229587   4.863   0.367  18.039 -0.9009 -0.7600 -0.1868
 1798TIP3   OH229588   1.255   0.413  18.676 -0.4264 -0.3995  0.1609
 1798TIP3    H129589   1.303   0.451  18.603 -1.7769  0.3790 -0.3642
 1798TIP3    H229590   1.279   0.320  18.676  0.2824 -0.2190 -0.6927
 1799TIP3   OH229591   0.399   2.252  20.234 -0.4815 -0.0221 -0.0800
 1799TIP3    H129592   0.340   2.213  20.169 -1.0079  1.3345 -0.4485
 1799TIP3    H229593   0.443   2.323  20.188  1.9750 -1.3793  0.0114
 1800TIP3   OH229594   2.147   1.481  17.422 -0.0931  0.2120  0.6519
 1800TIP3    H129595   2.099   1.506  17.501 -1.2930  1.3031 -0.3564
 1800TIP3    H229596   2.096   1.409  17.385  0.5972 -0.4552  0.9761
 1801TIP3   OH229597   4.959   3.765  20.168  0.1137 -0.0089 -0.4820
 1801TIP3    H129598   4.977   3.687  20.222  2.3201 -1.2561 -2.8027
 1801TIP3    H229599   4.865   3.780  20.179 -0.2379 -2.4793  0.7253
 1802TIP3   OH229600   3.770   5.424  19.741  0.4447 -0.1649 -0.3550
 1802TIP3    H129601   3.807   5.389  19.822 -0.6450  0.1589  0.2920
 1802TIP3    H229602   3.844   5.425  19.680  1.0420 -1.3452  0.3240
 1803TIP3   OH229603   3.229   3.158  18.994  0.0998 -0.4831 -0.5532
 1803TIP3    H129604   3.242   3.251  19.011  1.1168 -0.6028 -0.6108
 1803TIP3    H229605   3.259   3.115  19.074  2.7841 -0.9250 -1.7031
 1804TIP3   OH229606   4.313   1.680  20.147 -0.2842  0.1935 -0.6276
 1804TIP3    H129607   4.260   1.724  20.081 -1.0193  0.3402  0.0516
 1804TIP3    H229608   4.401   1.677  20.109 -0.6962  0.2756 -1.6087
 1805TIP3   OH229609   5.615   5.742  18.995  0.5047  0.4574 -0.4543
 1805TIP3    H129610   5.581   5.829  18.973 -2.9663 -0.4587  0.6882
 1805TIP3    H229611   5.630   5.745  19.089  1.7217  0.1752 -0.6159
 1806TIP3   OH229612   6.564   1.636  19.985  0.0139 -0.4534  0.4081
 1806TIP3    H129613   6.538   1.546  20.008 -2.1903  0.0976  0.2138
 1806TIP3    H229614   6.536   1.689  20.060 -0.4134  0.3333 -0.2974
 1807TIP3   OH229615   0.235   4.115  20.233  0.0827 -0.3025  0.4175
 1807TIP3    H129616   0.153   4.066  20.236  0.0206 -0.1715  3.1514
 1807TIP3    H229617   0.283   4.088  20.311  0.0363  3.8490  2.1860
 1808TIP3   OH229618   6.319   3.641  18.091 -0.0989  0.0051  0.0925
 1808TIP3    H129619   6.233   3.682  18.093  0.3117  0.8543  0.9156
 1808TIP3    H229620   6.306   3.560  18.042 -1.9149 -1.1583  2.3334
 1809TIP3   OH229621   0.271   2.435  18.313  0.5555  0.4394 -0.0072
 1809TIP3    H129622   0.360   2.461  18.291  0.4637  1.0689  0.3389
 1809TIP3    H229623   0.276   2.340  18.324  1.3472  0.5433  0.7067
 1810TIP3   OH229624   4.149   0.552  20.742  0.0455 -0.0086  0.2891
 1810TIP3    H129625   4.213   0.591  20.801  0.0204 -1.4460  1.2988
 1810TIP3    H229626   4.163   0.597  20.659  2.6325 -0.5519  0.3565
 1811TIP3   OH229627   4.345   4.705  19.737  0.4192  0.2218  0.3960
 1811TIP3    H129628   4.422   4.721  19.682  0.6212  0.9537  0.8663
 1811TIP3    H229629   4.378   4.715  19.827 -0.1157  0.0352  0.6184
 1812TIP3   OH229630   3.765   3.416  19.930 -0.2867 -0.1976 -0.0891
 1812TIP3    H129631   3.713   3.487  19.967 -0.0501  0.4731 -0.9959
 1812TIP3    H229632   3.732   3.407  19.840 -0.2605 -1.1889 -0.0147
 1813TIP3   OH229633   3.351   2.652  17.577 -0.1505  0.1078 -0.4815
 1813TIP3    H129634   3.309   2.723  17.529 -0.6057  0.3297  0.2225
 1813TIP3    H229635   3.444   2.672  17.574 -0.3540  1.4361  0.7653
 1814TIP3   OH229636   4.685   4.576  20.476  0.0082  0.5759 -0.2724
 1814TIP3    H129637   4.760   4.524  20.505 -0.2141  0.6655  0.4731
 1814TIP3    H229638   4.608   4.528  20.507 -0.2021  1.3414  0.4539
 1815TIP3   OH229639   5.468   0.588  20.657  0.4216  0.4166 -0.0346
 1815TIP3    H129640   5.479   0.493  20.662  1.4777  0.4667 -0.9933
 1815TIP3    H229641   5.426   0.611  20.740 -1.4873 -1.0740 -0.5288
 1816TIP3   OH229642   3.429   2.528  19.019 -0.4482  0.1767 -0.0676
 1816TIP3    H129643   3.397   2.574  19.097  0.3705 -0.1666  0.4863
 1816TIP3    H229644   3.350   2.490  18.980 -1.0664  1.5809 -0.2388
 1817TIP3   OH229645   4.848   1.289  16.519 -0.0954  0.3104 -0.3860
 1817TIP3    H129646   4.756   1.273  16.494  0.0456  0.9770 -1.4023
 1817TIP3    H229647   4.851   1.382  16.540  0.6099  0.6137 -1.6937
 1818TIP3   OH229648   4.064   0.714  19.275 -0.2962  0.5024 -0.1340
 1818TIP3    H129649   4.003   0.701  19.348  1.7770 -0.1274  1.5839
 1818TIP3    H229650   4.151   0.708  19.314  0.9483  3.0588 -2.1777
 1819TIP3   OH229651   6.071   0.438  19.536 -0.2299  0.0124  0.2732
 1819TIP3    H129652   5.993   0.445  19.481 -0.7144 -1.2855  0.7518
 1819TIP3    H229653   6.141   0.413  19.476 -0.4180  0.1281  0.0072
 1820TIP3   OH229654   0.672   1.222  19.102 -0.1810 -0.7525 -0.6313
 1820TIP3    H129655   0.740   1.236  19.036 -0.7227  0.2490 -0.9902
 1820TIP3    H229656   0.592   1.257  19.062 -0.1446  1.8558  1.3344
 1821TIP3   OH229657   3.498   4.859  20.592 -0.0380 -0.2868  0.6971
 1821TIP3    H129658   3.571   4.845  20.531  0.8029 -1.8092  1.9743
 1821TIP3    H229659   3.531   4.826  20.676 -1.6698  0.4318  1.6504
 1822TIP3   OH229660   2.098   0.373  19.557  0.0498 -0.0874 -0.4793
 1822TIP3    H129661   2.094   0.364  19.462 -0.9771 -1.1998 -0.3641
 1822TIP3    H229662   2.094   0.467  19.573 -1.3265  0.0557 -1.5064
 1823TIP3   OH229663   1.678   0.617  17.100  0.7095  0.7156 -0.1038
 1823TIP3    H129664   1.685   0.531  17.060 -2.1017  0.7996 -0.9743
 1823TIP3    H229665   1.616   0.665  17.045 -1.4619  1.6844  2.8746
 1824TIP3   OH229666   1.685   3.097  18.472 -0.1026  0.5449 -0.4224
 1824TIP3    H129667   1.693   3.146  18.554 -1.7930 -1.3595  0.9635
 1824TIP3    H229668   1.639   3.157  18.413  1.6604  2.1710 -0.2534
 1825TIP3   OH229669   2.398   5.266  20.234  0.0579  0.3193  0.4691
 1825TIP3    H129670   2.415   5.352  20.273 -2.6900  1.0408  0.2888
 1825TIP3    H229671   2.342   5.222  20.298 -0.3743 -0.4572 -0.4162
 1826TIP3   OH229672   2.207   5.538  18.583 -0.1997 -0.3646 -0.3696
 1826TIP3    H129673   2.187   5.448  18.556 -3.4132 -0.2765  1.2655
 1826TIP3    H229674   2.141   5.558  18.649  0.2486  3.3333 -0.8684
 1827TIP3   OH229675   2.239   5.040  19.625  0.3537 -0.1340 -0.2400
 1827TIP3    H129676   2.256   5.119  19.574  1.7173 -0.6437 -0.6099
 1827TIP3    H229677   2.145   5.025  19.614  0.4184  0.3619 -1.7471
 1828TIP3   OH229678   2.282   1.484  18.363 -0.2326  0.3375  0.1604
 1828TIP3    H129679   2.360   1.488  18.419  2.0499 -0.6149 -2.7122
 1828TIP3    H229680   2.296   1.551  18.297 -2.2308  0.6025 -0.0604
 1829TIP3   OH229681   1.384   6.201  20.159  0.6845 -0.6348 -0.1900
 1829TIP3    H129682   1.417   6.171  20.244 -0.0236  1.1297  0.7612
 1829TIP3    H229683   1.461   6.237  20.115  0.7348  0.0597  0.4525
 1830TIP3   OH229684   1.941   2.824  20.423 -0.0233 -0.6369  0.5376
 1830TIP3    H129685   1.907   2.894  20.480 -1.4738 -1.5771  0.8724
 1830TIP3    H229686   1.960   2.869  20.341 -2.0188  0.0131  0.3573
 1831TIP3   OH229687   0.983   6.319  18.160 -0.3338  0.1793 -0.5710
 1831TIP3    H129688   1.011   6.244  18.213 -1.8421 -0.4158 -0.5864
 1831TIP3    H229689   1.065   6.353  18.123  0.7117  0.2708  1.6389
 1832TIP3   OH229690   1.200   2.790  18.822 -0.1354 -0.3795  0.0231
 1832TIP3    H129691   1.192   2.849  18.747  0.5030  1.5918  1.4390
 1832TIP3    H229692   1.229   2.707  18.783  0.5009  0.6618 -1.8767
 1833TIP3   OH229693   5.184   0.543  19.940 -0.1846 -0.2153  0.8624
 1833TIP3    H129694   5.221   0.616  19.890  1.6698 -1.5328  0.2070
 1833TIP3    H229695   5.178   0.577  20.030 -0.7297  1.1764  0.3443
 1834TIP3   OH229696   1.378   1.363  19.670  0.0679  0.4331  0.4571
 1834TIP3    H129697   1.379   1.458  19.674 -0.5785  0.4366  0.7743
 1834TIP3    H229698   1.290   1.339  19.701  0.0995 -0.2445  0.0436
 1835TIP3   OH229699   3.114   2.072  16.792  0.4471 -0.4003 -0.3184
 1835TIP3    H129700   3.187   2.116  16.836 -0.2349 -0.5933  1.0739
 1835TIP3    H229701   3.154   2.020  16.723  1.5275  0.2561 -0.1946
 1836TIP3   OH229702   6.265   0.707  18.346  0.5595 -0.3328 -0.1658
 1836TIP3    H129703   6.355   0.677  18.337  0.0846 -2.3180  1.1219
 1836TIP3    H229704   6.212   0.629  18.333 -0.8321  0.2129  1.8313
 1837TIP3   OH229705   3.706   5.853  17.956  0.5553 -1.1030  0.6601
 1837TIP3    H129706   3.782   5.911  17.966  0.5902 -1.2113  1.0584
 1837TIP3    H229707   3.671   5.844  18.045 -1.2403  0.7019  0.2050
 1838TIP3   OH229708   4.831   5.152  19.620  0.2495 -0.2257 -0.0045
 1838TIP3    H129709   4.926   5.145  19.620  0.1525 -1.7238  0.5020
 1838TIP3    H229710   4.807   5.151  19.712 -0.2746 -0.0212 -0.1368
 1839TIP3   OH229711   3.131   4.816  20.250 -0.2818 -0.3356 -0.6252
 1839TIP3    H129712   3.180   4.881  20.300  0.2847 -0.8787 -0.4681
 1839TIP3    H229713   3.050   4.861  20.226 -2.3482 -1.1169  3.8793
 1840TIP3   OH229714   1.582   2.170  16.977  0.5573  0.3642  0.1598
 1840TIP3    H129715   1.511   2.115  16.945  1.2545  0.5910 -1.9024
 1840TIP3    H229716   1.658   2.111  16.979  0.8467  0.7289  0.0036
 1841TIP3   OH229717   5.758   1.882  19.874 -0.3065  0.4612  0.3437
 1841TIP3    H129718   5.683   1.928  19.911 -0.2745  1.0582 -0.3041
 1841TIP3    H229719   5.722   1.832  19.801 -0.1875  0.2115  0.4575
 1842TIP3   OH229720   6.617   5.530  18.350 -0.2058  0.3327  0.0037
 1842TIP3    H129721   6.608   5.529  18.445  0.2602  1.6881  0.0820
 1842TIP3    H229722   6.528   5.521  18.317 -0.4070  0.2148  0.5656
 1843TIP3   OH229723   6.725   3.814  19.099  0.1400  0.2930 -0.1147
 1843TIP3    H129724   6.688   3.732  19.067  0.3946 -0.2262  0.8760
 1843TIP3    H229725   6.661   3.847  19.163  0.7533  0.0644  0.6316
 1844TIP3   OH229726   1.049   1.419  20.298  0.4802 -0.7013  0.2493
 1844TIP3    H129727   1.071   1.337  20.254 -2.5009 -0.6336 -1.6584
 1844TIP3    H229728   0.962   1.404  20.334 -0.0876  1.5729 -0.0540
 1845TIP3   OH229729   2.221   4.377  20.049  0.4005 -0.0095  0.1698
 1845TIP3    H129730   2.317   4.370  20.051  0.4012 -0.0321  0.0737
 1845TIP3    H229731   2.204   4.444  19.982  0.3158 -0.6757 -0.4913
 1846TIP3   OH229732   1.438   1.562  18.889  0.3927  0.2529 -0.6502
 1846TIP3    H129733   1.415   1.533  18.977 -0.1283 -1.3253 -1.2723
 1846TIP3    H229734   1.531   1.545  18.881  0.3591  0.0185 -0.5409
 1847TIP3   OH229735   2.719   0.390  17.979 -0.1724  0.3797  0.2398
 1847TIP3    H129736   2.733   0.483  17.966 -1.8898  0.8681  1.4541
 1847TIP3    H229737   2.797   0.360  18.024 -0.0353  1.4587  0.7507
 1848TIP3   OH229738   4.833   2.630  19.675 -0.1086  0.0384  0.0149
 1848TIP3    H129739   4.868   2.543  19.692 -0.0733 -0.1675 -1.0580
 1848TIP3    H229740   4.822   2.633  19.580 -3.0418  0.0643  0.2743
 1849TIP3   OH229741   3.881   3.437  20.209  0.0572 -0.0171 -0.4449
 1849TIP3    H129742   3.973   3.447  20.182  0.3053 -1.9499 -0.4187
 1849TIP3    H229743   3.832   3.442  20.127  0.1887  0.8076 -0.4829
 1850TIP3   OH229744   1.646   5.007  17.476  0.2050 -0.7626  0.3296
 1850TIP3    H129745   1.600   5.007  17.560  0.2088 -1.6012  0.3406
 1850TIP3    H229746   1.577   4.995  17.411  0.4276 -2.4814  0.3747
 1851TIP3   OH229747   6.699   4.974  19.543  0.1770 -0.0019  0.4865
 1851TIP3    H129748   6.663   5.063  19.541  0.7898  0.3024  1.9198
 1851TIP3    H229749   6.647   4.928  19.608  0.2565 -0.5244  0.1887
 1852TIP3   OH229750   3.439   4.416  19.328  0.5714  0.1016  0.0664
 1852TIP3    H129751   3.529   4.390  19.349 -0.1924 -1.5252  1.5685
 1852TIP3    H229752   3.417   4.483  19.393  0.1528 -0.7308  0.7998
 1853TIP3   OH229753   0.572   4.990  18.482  0.0909 -0.0457  0.0232
 1853TIP3    H129754   0.509   5.002  18.411 -2.1299 -2.9958  1.2438
 1853TIP3    H229755   0.649   4.951  18.440  0.2081  1.3860 -1.1673
 1854TIP3   OH229756   0.043   5.310  20.014  0.4062  0.0186  0.5562
 1854TIP3    H129757   0.078   5.239  19.959  0.3707  1.0055 -0.7711
 1854TIP3    H229758   0.119   5.342  20.062  0.5991 -0.2869  0.4612
 1855TIP3   OH229759   3.381   3.701  17.941 -0.1965 -0.2881 -0.8209
 1855TIP3    H129760   3.323   3.735  18.010 -0.8693 -1.4986 -0.7574
 1855TIP3    H229761   3.373   3.764  17.870 -0.0889  0.5748 -0.0862
 1856TIP3   OH229762   2.325   1.132  20.414 -0.1576  0.2378  0.4054
 1856TIP3    H129763   2.344   1.086  20.496  0.2518 -0.2632  0.0366
 1856TIP3    H229764   2.350   1.223  20.431 -2.0026  0.5952  1.5025
 1857TIP3   OH229765   0.488   4.343  19.343 -0.2448 -0.0517  0.0995
 1857TIP3    H129766   0.502   4.339  19.438 -0.5075  1.2744  0.2140
 1857TIP3    H229767   0.395   4.362  19.333 -0.2285 -0.2299 -0.4369
 1858TIP3   OH229768   4.808   2.520  18.120  0.4615  0.0812  0.4058
 1858TIP3    H129769   4.858   2.476  18.188 -1.0365 -0.7926  1.0018
 1858TIP3    H229770   4.808   2.613  18.146  0.8224 -0.0789  0.9895
 1859TIP3   OH229771   1.270   6.042  19.904 -0.2217  0.1291 -0.4650
 1859TIP3    H129772   1.213   6.018  19.831 -0.0071 -0.0074 -0.5865
 1859TIP3    H229773   1.223   6.112  19.949 -0.6175 -0.1778 -0.4017
 1860TIP3   OH229774   5.077   2.266  20.694  0.2914 -0.3694 -0.6886
 1860TIP3    H129775   5.070   2.176  20.663 -3.2462 -0.2800 -0.5993
 1860TIP3    H229776   5.026   2.317  20.631 -0.9204  0.9436  1.2513
 1861TIP3   OH229777   4.119   6.040  18.261 -0.0738 -0.5055 -0.6774
 1861TIP3    H129778   4.213   6.041  18.244  0.4531 -0.7350  1.7833
 1861TIP3    H229779   4.090   5.953  18.234  0.0249  0.1076 -2.9863
 1862TIP3   OH229780   6.596   0.975  19.093  0.0191 -0.2133  0.1655
 1862TIP3    H129781   6.577   1.064  19.125 -0.1719 -0.3575  0.4616
 1862TIP3    H229782   6.689   0.976  19.072  0.1758 -0.1473  0.8470
 1863TIP3   OH229783   1.066   1.296  20.535 -0.6060 -0.5764 -0.0963
 1863TIP3    H129784   1.102   1.360  20.474 -0.6230  1.3006  1.7624
 1863TIP3    H229785   0.978   1.279  20.504 -0.2000 -0.5971 -1.2737
 1864TIP3   OH229786   4.565   6.195  19.366 -0.2990 -0.2594 -0.5749
 1864TIP3    H129787   4.641   6.137  19.371 -0.4133 -0.4021 -0.4971
 1864TIP3    H229788   4.596   6.271  19.316  0.4694  0.6003  1.1429
 1865TIP3   OH229789   0.721   1.839  18.403 -0.7103 -0.2804  0.1975
 1865TIP3    H129790   0.700   1.746  18.411  0.4627 -0.7488 -1.5706
 1865TIP3    H229791   0.809   1.840  18.363 -1.2977  1.5645 -1.1713
 1866TIP3   OH229792   6.626   5.857  18.478 -0.1362 -0.2660 -0.2749
 1866TIP3    H129793   6.605   5.766  18.457 -0.7928 -0.1858  0.0342
 1866TIP3    H229794   6.645   5.857  18.571 -1.3749  0.1287 -0.0064
 1867TIP3   OH229795   4.810   1.088  19.547  0.0103  0.3391  0.6738
 1867TIP3    H129796   4.890   1.062  19.502 -0.1792  0.7566  0.0784
 1867TIP3    H229797   4.760   1.007  19.557  0.1215  0.2180  0.2549
 1868TIP3   OH229798   0.532   0.191  16.922 -0.0199 -0.1253 -0.0145
 1868TIP3    H129799   0.623   0.164  16.930 -0.0321 -0.3590 -0.5835
 1868TIP3    H229800   0.485   0.141  16.988  0.2038 -0.2969  0.0131
 1869TIP3   OH229801   0.060   0.414  17.537  0.1649  0.6612 -0.4240
 1869TIP3    H129802   0.139   0.391  17.586 -1.2532 -1.5141  1.0371
 1869TIP3    H229803   0.021   0.486  17.587 -0.3218 -0.3181  0.6458
 1870TIP3   OH229804   4.051   4.012  19.117  0.2731 -0.0827  0.3967
 1870TIP3    H129805   4.089   4.100  19.117  3.4762 -1.2755 -1.4400
 1870TIP3    H229806   4.090   3.970  19.194  1.8524 -0.9526 -0.8221
 1871TIP3   OH229807   4.338   3.275  20.681 -0.0129 -0.3168  0.6909
 1871TIP3    H129808   4.277   3.205  20.704 -0.9711 -0.2345 -1.3759
 1871TIP3    H229809   4.284   3.354  20.678  0.8251  0.3391  1.8068
 1872TIP3   OH229810   2.826   4.000  19.984 -0.5683  0.0490  0.0403
 1872TIP3    H129811   2.831   3.966  20.074 -0.3938  1.9168  0.7894
 1872TIP3    H229812   2.748   3.959  19.947  0.3151 -2.1210  0.4015
 1873TIP3   OH229813   0.833   2.087  19.021 -0.3062 -0.0539 -0.3855
 1873TIP3    H129814   0.747   2.128  19.033 -0.3277  0.0497 -0.9006
 1873TIP3    H229815   0.894   2.160  19.019 -0.3468 -0.0322 -1.3311
 1874TIP3   OH229816   0.323   6.416  19.811  0.9275  0.4526  0.7675
 1874TIP3    H129817   0.343   6.323  19.799 -0.0617  0.1724  1.2207
 1874TIP3    H229818   0.280   6.421  19.896  1.2575  1.3750  0.8903
 1875TIP3   OH229819   5.493   1.804  17.402 -0.4657  0.6167  0.8316
 1875TIP3    H129820   5.574   1.855  17.408 -0.4983  0.5575  1.8595
 1875TIP3    H229821   5.445   1.845  17.330  0.7821  0.1914 -0.2872
 1876TIP3   OH229822   6.434   3.975  18.702  0.1850 -0.3163 -0.7526
 1876TIP3    H129823   6.363   3.942  18.646  0.0248  0.7383 -1.1906
 1876TIP3    H229824   6.498   4.011  18.641  0.6076 -0.2887 -0.3021
 1877TIP3   OH229825   4.909   6.565  19.093 -0.2180  0.5377 -0.0264
 1877TIP3    H129826   4.868   6.490  19.052 -1.7475  0.5133  1.4296
 1877TIP3    H229827   4.851   6.639  19.073 -0.6867  0.6280  1.5102
 1878TIP3   OH229828   0.758   1.732  19.567  0.0839 -0.3324  0.3609
 1878TIP3    H129829   0.761   1.826  19.548 -0.4141 -0.4834 -0.5398
 1878TIP3    H229830   0.831   1.696  19.517  0.5558 -0.3815  1.0652
 1879TIP3   OH229831   0.195   6.207  18.404 -0.5447 -0.2279 -0.3389
 1879TIP3    H129832   0.199   6.301  18.424 -1.5354 -0.4382  1.0104
 1879TIP3    H229833   0.285   6.177  18.417 -0.1024  0.6112 -1.2943
 1880TIP3   OH229834   0.742   2.698  20.453 -0.7684  0.2280  1.0770
 1880TIP3    H129835   0.804   2.629  20.430 -0.1298  0.5508  1.7747
 1880TIP3    H229836   0.797   2.770  20.483 -1.2880  1.7498 -1.3104
 1881TIP3   OH229837   3.656   4.103  20.181 -0.4027  0.7385  0.2933
 1881TIP3    H129838   3.641   4.009  20.170  0.9491  0.6933 -1.8621
 1881TIP3    H229839   3.572   4.138  20.208 -1.2326 -0.9427  0.0303
 1882TIP3   OH229840   3.012   6.682  17.944  0.2658  0.4905 -0.5063
 1882TIP3    H129841   2.978   6.596  17.967  1.7646  0.0275  0.0524
 1882TIP3    H229842   2.934   6.737  17.937 -0.6917 -0.8338 -0.6004
 1883TIP3   OH229843   3.565   0.496  20.488 -0.5978  0.4586  0.5755
 1883TIP3    H129844   3.528   0.583  20.473  0.6757  0.7617 -1.1450
 1883TIP3    H229845   3.600   0.471  20.403  0.6020 -1.0012  1.4687
 1884TIP3   OH229846   6.254   3.924  18.516  0.2313  0.1555  0.4069
 1884TIP3    H129847   6.162   3.902  18.497  0.7961 -0.2295 -2.3460
 1884TIP3    H229848   6.289   3.952  18.432  2.9423 -0.7998  1.1217
 1885TIP3   OH229849   6.204   6.142  19.463  0.0150  0.5414 -0.3005
 1885TIP3    H129850   6.243   6.171  19.381 -0.1988 -2.4771 -1.6061
 1885TIP3    H229851   6.110   6.158  19.453  0.1933  2.0280  0.2345
 1886TIP3   OH229852   1.298   6.248  19.583  0.1949 -0.1685  0.4273
 1886TIP3    H129853   1.229   6.271  19.645  1.1257  1.8172  0.7883
 1886TIP3    H229854   1.340   6.171  19.621 -0.5077 -0.1657  1.2407
 1887TIP3   OH229855   3.265   3.707  17.622  0.1794  0.3730 -0.4562
 1887TIP3    H129856   3.314   3.763  17.682  0.5000 -1.0611  0.6571
 1887TIP3    H229857   3.242   3.765  17.549  1.8308  1.5670 -0.0828
 1888TIP3   OH229858   1.277   3.313  18.450 -0.2596 -0.6650  0.2654
 1888TIP3    H129859   1.306   3.367  18.376  0.0796  0.7511  1.3896
 1888TIP3    H229860   1.332   3.341  18.523 -1.8390 -0.6726  1.5146
 1889TIP3   OH229861   3.004   2.378  18.228  0.6135 -0.6860 -0.0747
 1889TIP3    H129862   2.972   2.398  18.140 -1.0542  0.5685  0.7543
 1889TIP3    H229863   2.965   2.293  18.249  0.5260 -0.7021 -0.2971
 1890TIP3   OH229864   2.897   6.394  20.180  0.1338  0.3745  0.0362
 1890TIP3    H129865   2.899   6.320  20.120  1.4049  0.0495  0.4570
 1890TIP3    H229866   2.920   6.470  20.126  1.4244  0.0607  0.1191
 1891TIP3   OH229867   5.498   1.990  19.992 -0.1266  0.6670 -0.4316
 1891TIP3    H129868   5.493   2.084  20.013 -0.0095  0.7222 -0.6483
 1891TIP3    H229869   5.420   1.973  19.940 -0.2248  0.6107 -0.2683
 1892TIP3   OH229870   5.296   2.007  17.287 -0.6694 -0.4029 -0.1073
 1892TIP3    H129871   5.245   2.025  17.209 -1.5496  0.3599  0.6201
 1892TIP3    H229872   5.235   2.022  17.360  0.2326 -0.7139  0.7395
 1893TIP3   OH229873   6.168   4.933  19.088 -0.2266 -1.0430 -0.7481
 1893TIP3    H129874   6.249   4.946  19.138 -0.6569 -0.6882 -0.1198
 1893TIP3    H229875   6.192   4.954  18.998  0.0171  0.6248 -0.3295
 1894TIP3   OH229876   2.356   4.099  19.673  0.6231 -0.1755 -0.0468
 1894TIP3    H129877   2.375   4.060  19.587  1.9594  0.1489  0.0715
 1894TIP3    H229878   2.329   4.188  19.653  0.7936 -0.1447 -0.1503
 1895TIP3   OH229879   5.076   5.563  19.011  0.0512  0.0401 -0.0701
 1895TIP3    H129880   5.076   5.633  19.076 -0.5880  0.2753 -0.3105
 1895TIP3    H229881   5.068   5.483  19.062  2.2317  0.0039  0.3090
 1896TIP3   OH229882   1.361   5.600  18.291  0.4500 -0.2903  0.5608
 1896TIP3    H129883   1.444   5.575  18.251 -0.1052  0.6698 -1.3236
 1896TIP3    H229884   1.370   5.693  18.309 -0.9890  0.4563 -1.9943
 1897TIP3   OH229885   4.782   1.125  18.513  0.2544 -0.2944 -0.5043
 1897TIP3    H129886   4.852   1.085  18.564  0.6412  1.4663  0.4260
 1897TIP3    H229887   4.787   1.082  18.428  2.1112 -0.5967 -0.2864
 1898TIP3   OH229888   0.633   0.215  20.423  0.2150 -0.5414  0.3486
 1898TIP3    H129889   0.539   0.224  20.411  0.2668 -2.0485 -1.6590
 1898TIP3    H229890   0.671   0.279  20.364  0.5085  0.9663  2.0850
 1899TIP3   OH229891   6.690   6.278  17.613 -0.1248 -0.1694 -0.5902
 1899TIP3    H129892   6.701   6.246  17.523 -0.9768  0.5820 -0.9741
 1899TIP3    H229893   6.754   6.228  17.664  1.3334  0.3425 -1.8395
 1900TIP3   OH229894   4.809   0.889  18.179 -0.0379 -0.0196 -0.0137
 1900TIP3    H129895   4.793   0.804  18.138  0.8730  0.0286 -0.4894
 1900TIP3    H229896   4.901   0.908  18.161 -0.4727  1.5495 -0.8368
 1901TIP3   OH229897   6.584   6.614  20.288 -0.5644 -0.0860  0.4418
 1901TIP3    H129898   6.536   6.598  20.207 -0.7603  0.8565  0.3609
 1901TIP3    H229899   6.598   6.527  20.325  0.4690 -0.6315 -1.1392
 1902TIP3   OH229900   4.923   2.945  19.421  0.0585  0.7917  0.3995
 1902TIP3    H129901   4.860   2.969  19.353  0.2456 -0.9117 -0.4244
 1902TIP3    H229902   4.965   3.027  19.445 -0.0337  1.4470 -1.5142
 1903TIP3   OH229903   5.216   2.882  18.814  0.2838 -0.1782 -0.6161
 1903TIP3    H129904   5.129   2.841  18.815  0.4159 -0.4533 -0.1772
 1903TIP3    H229905   5.198   2.973  18.791 -0.2536  0.0388  0.5813
 1904TIP3   OH229906   5.338   2.490  20.487 -0.1484 -0.3670  0.1883
 1904TIP3    H129907   5.367   2.432  20.417 -0.5762 -1.1428  0.6457
 1904TIP3    H229908   5.282   2.554  20.443  1.0128  0.2474 -0.4558
 1905TIP3   OH229909   0.969   6.544  17.108  0.1183 -0.1796  0.0677
 1905TIP3    H129910   0.995   6.471  17.052 -0.1326  0.2109 -0.5699
 1905TIP3    H229911   1.007   6.523  17.194  2.5607  0.3609 -0.8056
 1906TIP3   OH229912   1.396   6.743  18.388  0.0493 -0.5925  0.0687
 1906TIP3    H129913   1.383   6.837  18.377  0.2944 -0.5664 -0.0081
 1906TIP3    H229914   1.308   6.707  18.396 -0.0168 -0.2218  1.2404
 1907TIP3   OH229915   2.126   0.882  20.072  0.0118  0.2295  0.6004
 1907TIP3    H129916   2.126   0.869  19.977  0.5946 -0.8609  0.7311
 1907TIP3    H229917   2.216   0.867  20.098 -0.2913 -0.1967  1.4242
 1908TIP3   OH229918   2.686   1.108  18.864 -0.3594  0.5236 -0.5623
 1908TIP3    H129919   2.765   1.155  18.891 -0.6850  0.7357  0.0335
 1908TIP3    H229920   2.654   1.157  18.788 -1.6606  2.3618  1.0582
 1909TIP3   OH229921   2.465   1.956  18.256  0.2775 -0.1131 -0.6867
 1909TIP3    H129922   2.557   1.961  18.231  0.0314  0.3174 -1.5573
 1909TIP3    H229923   2.417   1.988  18.179 -0.7120 -2.2857 -1.0558
 1910TIP3   OH229924   6.102   4.931  20.201  0.4667 -0.4648  0.0744
 1910TIP3    H129925   6.021   4.914  20.250 -0.2119  1.9627 -0.0871
 1910TIP3    H229926   6.172   4.917  20.264 -0.2989  0.9474  1.3098
 1911TIP3   OH229927   5.640   1.632  17.920 -0.0609 -0.0983 -0.0092
 1911TIP3    H129928   5.580   1.694  17.961  0.2804  0.2747 -0.0715
 1911TIP3    H229929   5.604   1.546  17.942 -1.0743  0.1244 -0.7333
 1912TIP3   OH229930   6.160   6.666  20.281 -0.4538  0.5080  0.2119
 1912TIP3    H129931   6.147   6.689  20.189 -0.2050  1.7281  0.4618
 1912TIP3    H229932   6.130   6.575  20.288 -1.4142  0.7286 -0.8539
 1913TIP3   OH229933   3.073   0.694  18.466 -0.1254 -0.5470  0.1841
 1913TIP3    H129934   3.151   0.722  18.419 -0.6184  0.2751 -0.1759
 1913TIP3    H229935   3.002   0.745  18.426 -0.5504  0.2613  1.8935
 1914TIP3   OH229936   1.012   6.038  18.703  0.2900  0.3030 -0.3433
 1914TIP3    H129937   0.953   5.976  18.746  1.2906 -0.8197 -0.5351
 1914TIP3    H229938   0.954   6.102  18.661 -0.7708 -0.6351 -0.3407
 1915TIP3   OH229939   4.406   2.352  18.595 -0.1676  0.0202  0.2967
 1915TIP3    H129940   4.327   2.394  18.561 -0.4287 -2.0916 -1.8929
 1915TIP3    H229941   4.405   2.373  18.689 -2.4400  1.4012  0.0348
 1916TIP3   OH229942   1.719   1.223  18.683  0.6936 -0.0805  0.0834
 1916TIP3    H129943   1.811   1.236  18.705  0.7404  0.6053 -0.4898
 1916TIP3    H229944   1.697   1.138  18.722  1.6439 -0.3951 -0.0431
 1917TIP3   OH229945   0.664   2.294  17.461  0.4088  0.0916  0.0499
 1917TIP3    H129946   0.639   2.240  17.386  0.6323 -0.4695  0.3765
 1917TIP3    H229947   0.669   2.233  17.534  0.8494  0.5203  0.3866
 1918TIP3   OH229948   6.616   5.787  20.479 -0.1293  0.6247 -0.2061
 1918TIP3    H129949   6.557   5.733  20.531 -0.3382 -0.1208 -1.1837
 1918TIP3    H229950   6.570   5.799  20.396  1.1453 -0.1159 -1.0584
 1919TIP3   OH229951   1.520   1.181  16.969  0.2141  0.0318 -0.5331
 1919TIP3    H129952   1.582   1.233  17.021 -2.8428 -0.2988  4.0012
 1919TIP3    H229953   1.448   1.240  16.949 -0.6547 -0.9720 -0.4863
 1920TIP3   OH229954   0.546   3.866  18.648 -0.3221 -0.3887  0.4339
 1920TIP3    H129955   0.537   3.876  18.743 -2.5202 -0.2739  0.2510
 1920TIP3    H229956   0.591   3.946  18.620  0.6753 -0.5884  1.3873
 1921TIP3   OH229957   2.372   0.185  19.619  0.1719 -0.6113  0.3247
 1921TIP3    H129958   2.369   0.125  19.545  1.1100 -0.4192  0.1217
 1921TIP3    H229959   2.394   0.270  19.580 -0.1656 -0.3356  0.7255
 1922TIP3   OH229960   1.744   5.617  18.646  0.0612 -0.2092  0.1545
 1922TIP3    H129961   1.659   5.574  18.634  1.2121 -2.2073 -1.3961
 1922TIP3    H229962   1.770   5.593  18.735  0.4440 -2.3855 -0.5007
 1923TIP3   OH229963   3.894   4.611  17.962 -0.0585 -0.0455  0.4089
 1923TIP3    H129964   3.899   4.673  18.035 -0.3275  0.3573  0.0880
 1923TIP3    H229965   3.925   4.660  17.886  0.2248 -0.4655  0.2457
 1924TIP3   OH229966   5.041   0.855  16.969 -0.0179  0.4516  0.2215
 1924TIP3    H129967   4.976   0.905  17.017 -0.2824  2.0335 -1.6621
 1924TIP3    H229968   5.122   0.905  16.981 -0.4103  1.7851 -2.1816
 1925TIP3   OH229969   4.318   1.425  20.267  0.2438 -0.1250 -0.3497
 1925TIP3    H129970   4.270   1.352  20.227  0.5255 -0.0369 -0.8655
 1925TIP3    H229971   4.295   1.501  20.213  0.5944  0.0080 -0.3147
 1926TIP3   OH229972   0.841   1.111  18.467  0.1771 -0.0696  0.0031
 1926TIP3    H129973   0.792   1.030  18.481 -0.9492  0.6770  0.6016
 1926TIP3    H229974   0.808   1.170  18.535 -1.3364  1.9203 -2.2722
 1927TIP3   OH229975   0.901   2.661  17.627 -0.1367 -0.2751  0.5030
 1927TIP3    H129976   0.929   2.614  17.548  1.0905  0.6101  0.3806
 1927TIP3    H229977   0.818   2.619  17.651 -1.2191  0.2492 -1.9712
 1928TIP3   OH229978   3.431   2.881  19.311  0.0866  0.3542 -0.4275
 1928TIP3    H129979   3.522   2.900  19.287  0.2234  0.0346 -0.1619
 1928TIP3    H229980   3.398   2.963  19.347  0.8262 -0.0226  1.1825
 1929TIP3   OH229981   0.839   4.727  19.940 -0.0714  0.0447  0.2531
 1929TIP3    H129982   0.774   4.727  19.869 -0.4536  2.6050  0.5068
 1929TIP3    H229983   0.808   4.659  20.000 -0.8219 -0.8335 -1.0532
 1930TIP3   OH229984   0.728   6.601  19.485 -0.3606 -0.1663  0.3119
 1930TIP3    H129985   0.749   6.658  19.558 -2.1645  1.8564 -0.6602
 1930TIP3    H229986   0.812   6.586  19.441  0.7293 -1.3182  2.6123
 1931TIP3   OH229987   5.911   4.793  17.746  0.8079 -0.1038  0.1236
 1931TIP3    H129988   5.825   4.828  17.769  0.7934 -1.7990  3.2735
 1931TIP3    H229989   5.893   4.729  17.677  0.2643  2.5288 -2.3948
 1932TIP3   OH229990   3.112   4.116  17.784  0.1732  0.1002  0.3874
 1932TIP3    H129991   3.132   4.190  17.726  0.7315  0.0772  0.5488
 1932TIP3    H229992   3.197   4.087  17.816 -0.0463 -0.6185  0.3201
 1933TIP3   OH229993   5.428   5.094  20.362 -0.3325 -0.1748 -0.0346
 1933TIP3    H129994   5.372   5.060  20.293 -0.9409  0.3509  0.1899
 1933TIP3    H229995   5.476   5.017  20.393 -1.8616 -0.9123  0.6345
 1934TIP3   OH229996   4.458   3.779  19.092 -0.2809 -0.1331  0.5597
 1934TIP3    H129997   4.497   3.763  19.178  0.4461  1.9553  0.6675
 1934TIP3    H229998   4.367   3.802  19.111  0.3018  2.0295  0.9893
 1935TIP3   OH229999   4.147   4.517  20.236 -0.1905 -0.3881 -0.1759
 1935TIP3    H130000   4.219   4.520  20.300 -1.4379 -0.8699  1.2957
 1935TIP3    H230001   4.112   4.429  20.244 -1.6798  0.2005 -0.0242
 1936TIP3   OH230002   0.131   4.259  20.542  0.1986  0.1815 -0.5273
 1936TIP3    H130003   0.121   4.211  20.460 -1.3672  0.2377 -0.4027
 1936TIP3    H230004   0.059   4.229  20.597  0.2024  1.3988  0.1980
 1937TIP3   OH230005   4.390   5.134  17.671  0.1427 -0.2386  0.4159
 1937TIP3    H130006   4.332   5.104  17.741 -2.7106 -2.8530 -2.7133
 1937TIP3    H230007   4.354   5.219  17.645 -1.1312 -0.9248 -0.1604
 1938TIP3   OH230008   1.248   2.213  18.408 -0.2199  0.1364  0.0237
 1938TIP3    H130009   1.315   2.190  18.345 -1.9334 -1.1292 -1.4262
 1938TIP3    H230010   1.208   2.130  18.433 -1.7219  0.8931  0.2767
 1939TIP3   OH230011   6.339   1.409  19.995  0.4458 -0.5044 -0.2754
 1939TIP3    H130012   6.343   1.321  19.959  1.7646 -1.1292  1.2844
 1939TIP3    H230013   6.356   1.397  20.089 -1.1121  1.2210  0.2807
 1940TIP3   OH230014   0.556   5.449  20.930  0.1810 -0.3519 -0.2150
 1940TIP3    H130015   0.588   5.370  20.975 -0.0130 -0.2366  0.1270
 1940TIP3    H230016   0.615   5.518  20.959 -0.8399  0.0214  1.0408
 1941TIP3   OH230017   1.410   0.732  19.467  1.2881 -0.4576  0.2086
 1941TIP3    H130018   1.485   0.792  19.459  0.8491 -0.0599 -1.2084
 1941TIP3    H230019   1.389   0.732  19.560  0.8826  2.1378  0.1811
 1942TIP3   OH230020   1.875   0.367  20.471 -0.3332  0.0825 -0.3115
 1942TIP3    H130021   1.864   0.424  20.395 -0.2756  0.5819  0.0471
 1942TIP3    H230022   1.849   0.421  20.546 -0.0182 -0.2728  0.0637
 1943TIP3   OH230023   4.017   1.437  20.810  0.1322  0.1314  0.0141
 1943TIP3    H130024   4.020   1.355  20.761  1.1844  1.4834 -2.3416
 1943TIP3    H230025   3.929   1.472  20.795  0.1146  0.0586 -0.0485
 1944TIP3   OH230026   5.940   4.117  20.058  0.0476 -0.0623  0.2008
 1944TIP3    H130027   5.896   4.167  20.128  1.5517 -0.5869  1.5860
 1944TIP3    H230028   5.987   4.184  20.008  1.6380  0.0545  1.7392
 1945TIP3   OH230029   1.106   5.628  20.274 -0.1788 -0.2570 -0.0749
 1945TIP3    H130030   1.145   5.563  20.332 -2.0654 -0.7338  0.7402
 1945TIP3    H230031   1.012   5.625  20.294 -0.3904  2.4088 -0.3245
 1946TIP3   OH230032   4.643   0.119  18.620  0.1714 -0.5092 -0.0909
 1946TIP3    H130033   4.594   0.163  18.551  0.2211 -1.4151 -0.7114
 1946TIP3    H230034   4.581   0.058  18.659  0.4996 -0.9041 -0.1790
 1947TIP3   OH230035   5.872   4.264  18.303  0.7006  0.7698  0.4568
 1947TIP3    H130036   5.941   4.246  18.367 -0.5984 -0.8731  1.4975
 1947TIP3    H230037   5.826   4.181  18.294 -2.9860  2.3943  2.1040
 1948TIP3   OH230038   5.953   1.942  17.954  0.0342 -0.2334 -0.1074
 1948TIP3    H130039   5.924   1.851  17.965  0.8087 -0.3809  0.8333
 1948TIP3    H230040   5.884   1.982  17.902 -0.2663 -1.3889 -0.6407
 1949TIP3   OH230041   2.733   2.325  18.483 -0.2534 -0.3772  0.3377
 1949TIP3    H130042   2.689   2.305  18.566 -0.2681 -0.8797  0.2118
 1949TIP3    H230043   2.667   2.373  18.432 -0.6458 -1.0708  0.1755
 1950TIP3   OH230044   1.548   6.236  20.395 -0.0901 -0.1542 -0.5040
 1950TIP3    H130045   1.512   6.188  20.469  1.5089 -1.9357 -0.8246
 1950TIP3    H230046   1.616   6.291  20.433  0.4738 -0.7850 -0.6004
 1951TIP3   OH230047   2.923   6.136  18.215 -0.4315 -0.0079 -0.3690
 1951TIP3    H130048   3.002   6.084  18.230  0.3855  1.3296  0.1673
 1951TIP3    H230049   2.860   6.104  18.279  0.6300  0.7738  1.1235
 1952TIP3   OH230050   6.661   3.504  19.893  0.3844 -0.2398  0.0247
 1952TIP3    H130051   6.756   3.519  19.889  0.4505 -0.7936 -0.6626
 1952TIP3    H230052   6.643   3.445  19.820 -0.3339 -0.9874  0.7876
 1953TIP3   OH230053   2.135   3.814  17.947 -0.2196  0.0618  0.0972
 1953TIP3    H130054   2.119   3.875  17.876  1.2423 -0.9817 -1.1970
 1953TIP3    H230055   2.191   3.862  18.008  1.3477 -0.0728 -1.1611
 1954TIP3   OH230056   4.101   2.641  18.736 -0.1217 -0.4729  0.2123
 1954TIP3    H130057   4.011   2.637  18.767 -0.4588 -1.1755 -0.8113
 1954TIP3    H230058   4.122   2.551  18.710  0.2337 -0.0096 -1.2477
 1955TIP3   OH230059   6.621   4.085  18.541 -0.4649  0.6363  0.3012
 1955TIP3    H130060   6.689   4.152  18.547  0.4298 -0.3409  1.5977
 1955TIP3    H230061   6.658   4.017  18.485 -1.2610  1.0694 -0.7870
 1956TIP3   OH230062   0.095   1.133  19.701 -0.2795 -0.0799  0.1492
 1956TIP3    H130063   0.141   1.067  19.754  0.0601  0.3290  0.3681
 1956TIP3    H230064   0.099   1.213  19.753  0.8016  0.5436 -0.8469
 1957TIP3   OH230065   3.888   4.619  19.747 -0.2076  0.2054 -0.3699
 1957TIP3    H130066   3.821   4.669  19.793 -1.7736 -1.3943 -0.7845
 1957TIP3    H230067   3.878   4.530  19.781  1.7557 -0.0723 -0.4314
 1958TIP3   OH230068   6.601   6.324  18.395  0.0299 -0.1490  0.1920
 1958TIP3    H130069   6.565   6.241  18.364 -2.0671  0.6332  0.3656
 1958TIP3    H230070   6.687   6.331  18.353 -0.2658 -1.8246 -0.7644
 1959TIP3   OH230071   0.887   1.622  17.900 -0.5713 -0.4014 -0.1530
 1959TIP3    H130072   0.846   1.697  17.943 -0.2289 -0.1069 -0.3299
 1959TIP3    H230073   0.974   1.618  17.939 -0.7490 -0.9980  0.1930
 1960TIP3   OH230074   5.867   0.714  20.122 -0.6162  0.2641  0.4521
 1960TIP3    H130075   5.879   0.742  20.031 -0.9803  1.4284  0.7380
 1960TIP3    H230076   5.898   0.624  20.125 -0.8451  0.1331 -0.8832
 1961TIP3   OH230077   1.202   4.008  18.744 -0.4310  0.1502  0.6368
 1961TIP3    H130078   1.280   3.953  18.734 -0.0779  0.8584 -0.8054
 1961TIP3    H230079   1.211   4.047  18.831  0.4246 -0.3943  0.8035
 1962TIP3   OH230080   1.630   5.518  19.986 -0.2990 -0.1821  0.4647
 1962TIP3    H130081   1.646   5.453  20.054 -0.2247 -0.0270  0.5958
 1962TIP3    H230082   1.640   5.469  19.904 -0.2581 -0.3393  0.5626
 1963TIP3   OH230083   5.578   1.010  19.035  0.2115  0.4577  0.4300
 1963TIP3    H130084   5.618   0.923  19.037  0.7957  0.7269  0.5898
 1963TIP3    H230085   5.651   1.070  19.022 -0.1954  0.9250  0.2755
 1964TIP3   OH230086   1.991   1.718  19.506  0.6076 -0.1792 -0.1502
 1964TIP3    H130087   1.937   1.717  19.586  2.6320  0.3051  1.2981
 1964TIP3    H230088   1.929   1.738  19.436 -1.1756 -0.1556  1.3488
 1965TIP3   OH230089   2.341   3.430  19.689 -0.1530 -1.0988 -0.5810
 1965TIP3    H130090   2.355   3.416  19.595 -0.4971 -0.9817 -0.6538
 1965TIP3    H230091   2.248   3.451  19.696  0.0609 -0.1696 -0.3285
 1966TIP3   OH230092   5.920   5.460  18.537 -0.4776 -0.1003 -0.1551
 1966TIP3    H130093   5.860   5.449  18.611  1.6523 -0.0172  1.6969
 1966TIP3    H230094   5.984   5.390  18.547  0.9728  1.0801 -0.7823
 1967TIP3   OH230095   2.336   2.516  17.385 -0.5627  0.5504  0.5715
 1967TIP3    H130096   2.390   2.541  17.310 -1.9466  2.3607  0.0985
 1967TIP3    H230097   2.394   2.527  17.461  0.0676  1.3376 -0.0055
 1968TIP3   OH230098   1.719   2.310  20.590  0.0805 -0.1402 -0.6714
 1968TIP3    H130099   1.725   2.325  20.685  0.3056 -0.7968 -0.5733
 1968TIP3    H230100   1.712   2.397  20.552  1.0891  0.2096 -0.1126
 1969TIP3   OH230101   3.482   1.518  17.984  0.0749 -0.6214  0.0394
 1969TIP3    H130102   3.438   1.560  17.910  1.5443  0.3635 -0.3142
 1969TIP3    H230103   3.506   1.432  17.951  0.3757 -0.3326 -0.5136
 1970TIP3   OH230104   0.726   2.180  20.057 -0.5239  0.0861 -0.0835
 1970TIP3    H130105   0.683   2.250  20.105 -1.3444 -1.5189  1.6513
 1970TIP3    H230106   0.664   2.157  19.987 -0.9222  0.1053  0.2602
 1971TIP3   OH230107   1.464   4.226  19.018  0.2326 -0.6909  0.4479
 1971TIP3    H130108   1.383   4.209  19.066 -0.0642  0.7924  0.5213
 1971TIP3    H230109   1.526   4.161  19.052 -0.8562 -1.7239  0.5277
 1972TIP3   OH230110   6.717   0.180  19.548 -0.1623 -0.2244 -0.4786
 1972TIP3    H130111   6.759   0.257  19.509 -0.8749 -0.6295 -2.1088
 1972TIP3    H230112   6.788   0.116  19.556  0.0785  0.0069 -0.7382
 1973TIP3   OH230113   5.818   1.131  17.824 -0.2427 -0.1761 -0.0313
 1973TIP3    H130114   5.841   1.073  17.896  0.5607 -0.1190 -0.2390
 1973TIP3    H230115   5.820   1.219  17.862  2.2138  0.0618 -0.5733
 1974TIP3   OH230116   1.628   5.699  20.302  0.1264  0.5148 -0.3010
 1974TIP3    H130117   1.594   5.744  20.380  0.3389  0.5419 -0.2239
 1974TIP3    H230118   1.599   5.609  20.312  0.7017  0.3752  0.1321
 1975TIP3   OH230119   6.574   3.181  19.359 -0.3570 -0.2742 -0.4411
 1975TIP3    H130120   6.641   3.114  19.347 -0.1583  0.1584 -2.0791
 1975TIP3    H230121   6.492   3.132  19.363 -0.1272 -0.6763 -0.6144
 1976TIP3   OH230122   0.964   3.630  20.197  0.2546 -0.4474 -0.5227
 1976TIP3    H130123   0.906   3.697  20.232  0.9450 -0.4496  0.6971
 1976TIP3    H230124   1.016   3.675  20.130 -0.9770 -0.4002 -1.4760
 1977TIP3   OH230125   4.725   0.452  20.041 -0.0866  0.5868 -0.1110
 1977TIP3    H130126   4.782   0.493  20.106  1.4625  1.8764 -2.1419
 1977TIP3    H230127   4.785   0.422  19.973 -1.7802  1.5000 -2.0963
 1978TIP3   OH230128   0.494   5.629  20.132  0.0455  0.0261 -0.5893
 1978TIP3    H130129   0.495   5.543  20.174 -2.4259 -0.0698 -0.5546
 1978TIP3    H230130   0.409   5.633  20.088 -0.2036  2.7094 -0.0240
 1979TIP3   OH230131   5.529   0.668  18.558 -0.4833  0.1282 -0.1597
 1979TIP3    H130132   5.546   0.762  18.563 -0.6870  0.1700 -0.2264
 1979TIP3    H230133   5.539   0.637  18.648  0.6705  0.0129 -0.3133
 1980TIP3   OH230134   5.064   5.422  20.629 -0.5499  0.1250 -0.0154
 1980TIP3    H130135   5.109   5.371  20.561  0.8992 -0.4286  1.3129
 1980TIP3    H230136   5.123   5.496  20.646 -1.2749  0.6800  0.1018
 1981TIP3   OH230137   4.494   5.194  19.739 -0.0650  0.3213 -0.2282
 1981TIP3    H130138   4.533   5.108  19.721 -3.6476 -1.9874  1.7970
 1981TIP3    H230139   4.488   5.236  19.653  2.4632 -1.0558 -1.1885
 1982TIP3   OH230140   4.039   5.048  18.788  0.5544  0.1117  0.4239
 1982TIP3    H130141   4.097   5.092  18.850 -0.4958  1.3244  0.6003
 1982TIP3    H230142   3.951   5.063  18.822  0.1435 -2.6899  0.7942
 1983TIP3   OH230143   5.521   6.422  20.567 -0.2149 -0.5771 -0.0010
 1983TIP3    H130144   5.534   6.515  20.582  1.1365 -0.8999  0.9710
 1983TIP3    H230145   5.442   6.400  20.616 -1.0688  0.2179 -0.9807
 1984TIP3   OH230146   3.521   5.613  17.839  0.0265  0.4370  0.3206
 1984TIP3    H130147   3.531   5.584  17.929  0.8148 -0.1286  0.0592
 1984TIP3    H230148   3.475   5.696  17.845  0.7110  0.7504  1.2842
 1985TIP3   OH230149   0.804   0.698  19.619  0.8489  0.6390  0.2342
 1985TIP3    H130150   0.808   0.729  19.529 -0.3864  3.6027  1.0808
 1985TIP3    H230151   0.895   0.683  19.644  1.1175 -3.0013 -2.2325
 1986TIP3   OH230152   0.576   4.619  18.026  0.2671  0.2367 -0.1808
 1986TIP3    H130153   0.554   4.703  17.986 -1.3368 -0.3900 -0.6877
 1986TIP3    H230154   0.491   4.581  18.050  0.9844 -1.1211  0.2809
 1987TIP3   OH230155   2.117   2.526  17.570 -0.0184 -0.1444 -0.1917
 1987TIP3    H130156   2.181   2.539  17.501  0.1070 -2.3245 -0.5621
 1987TIP3    H230157   2.168   2.498  17.646 -0.4733 -1.7350 -0.4412
 1988TIP3   OH230158   4.735   2.189  18.734  0.0936 -0.3351 -0.3921
 1988TIP3    H130159   4.686   2.149  18.806 -1.1841  1.7092 -0.0379
 1988TIP3    H230160   4.821   2.207  18.770  0.0585 -0.9832  0.0347
 1989TIP3   OH230161   5.165   1.486  19.111  0.1195  0.0094  0.4949
 1989TIP3    H130162   5.186   1.560  19.055  1.2679 -2.0765 -2.0516
 1989TIP3    H230163   5.078   1.458  19.082 -0.2066  0.1859  1.2738
 1990TIP3   OH230164   0.920   2.891  18.627  0.0429  0.2782  0.2102
 1990TIP3    H130165   0.901   2.938  18.546 -0.8278 -0.5123 -0.0619
 1990TIP3    H230166   0.998   2.934  18.662  1.3408 -0.2846 -1.8003
 1991TIP3   OH230167   0.314   6.170  18.800 -0.0799  0.3199  0.2043
 1991TIP3    H130168   0.383   6.235  18.806  0.6483 -0.4019 -0.2167
 1991TIP3    H230169   0.321   6.135  18.711  1.4472 -2.3749  1.2515
 1992TIP3   OH230170   2.893   5.154  18.533  0.5718 -0.3754 -0.0662
 1992TIP3    H130171   2.861   5.244  18.541 -2.5988 -1.4486  0.5935
 1992TIP3    H230172   2.986   5.160  18.556 -0.1653  2.3209  2.9797
 1993TIP3   OH230173   2.195   4.830  20.765  0.5398 -0.0185 -0.6506
 1993TIP3    H130174   2.167   4.745  20.800  0.3277  0.2820 -0.0835
 1993TIP3    H230175   2.290   4.831  20.777  0.6131 -0.3896 -1.1450
 1994TIP3   OH230176   5.464   1.806  19.457  0.4226 -0.0485  0.4510
 1994TIP3    H130177   5.410   1.744  19.409  0.1292  0.6269 -0.1105
 1994TIP3    H230178   5.552   1.767  19.458  0.1827 -0.5891  0.3413
 1995TIP3   OH230179   5.466   0.691  19.279 -0.0745 -0.3857 -0.0099
 1995TIP3    H130180   5.547   0.734  19.252  0.6545 -1.0625  1.0483
 1995TIP3    H230181   5.461   0.613  19.222  0.8780 -1.2056  0.9778
 1996TIP3   OH230182   1.335   0.693  19.730 -0.1302 -0.1686  0.0390
 1996TIP3    H130183   1.386   0.630  19.782 -0.4328  0.1983  0.7954
 1996TIP3    H230184   1.380   0.777  19.744 -1.4385  0.3352  1.4505
 1997TIP3   OH230185   1.680   1.470  18.452 -0.3741 -0.0479  0.4141
 1997TIP3    H130186   1.741   1.479  18.525  0.2046  0.3088 -0.1047
 1997TIP3    H230187   1.699   1.544  18.394  0.6485 -1.4630 -1.1642
 1998TIP3   OH230188   6.516   4.461  17.297  0.0993 -0.2731 -0.7761
 1998TIP3    H130189   6.511   4.463  17.392 -1.2806  1.5768 -0.8309
 1998TIP3    H230190   6.426   4.475  17.267 -0.4502 -5.4070 -2.4762
 1999TIP3   OH230191   4.503   4.394  18.543  0.0746  0.3601 -0.2925
 1999TIP3    H130192   4.529   4.302  18.538  1.8239  0.7738  0.4813
 1999TIP3    H230193   4.574   4.441  18.499 -1.4950  1.2742 -1.9832
 2000TIP3   OH230194   1.515   2.691  20.440  0.5592 -0.2663  0.0886
 2000TIP3    H130195   1.539   2.680  20.348 -0.9579 -0.0954 -0.3578
 2000TIP3    H230196   1.595   2.670  20.489  1.3794 -0.3739 -1.2617
 2001TIP3   OH230197   0.537   3.537  20.479  0.5259  0.0291 -0.0703
 2001TIP3    H130198   0.480   3.462  20.493  1.5156 -1.2316 -2.3240
 2001TIP3    H230199   0.581   3.550  20.564 -1.3009 -0.4508  0.9931
 2002TIP3   OH230200   1.652   0.752  20.069 -0.5186  0.4493  0.3704
 2002TIP3    H130201   1.661   0.753  20.165  1.2325 -2.2349  0.3232
 2002TIP3    H230202   1.738   0.779  20.037 -0.6301 -0.1414 -0.4409
 2003TIP3   OH230203   4.294   3.062  19.615 -0.2158 -0.2434  0.2902
 2003TIP3    H130204   4.360   3.023  19.557 -1.1304 -0.8862 -0.3412
 2003TIP3    H230205   4.291   3.154  19.589  0.9382 -0.0289  0.8229
 2004TIP3   OH230206   2.228   6.441  19.823  0.4891  0.7676 -0.4156
 2004TIP3    H130207   2.270   6.527  19.829 -1.5813  1.9429 -1.5066
 2004TIP3    H230208   2.189   6.427  19.909  3.0574 -0.4280  0.6800
 2005TIP3   OH230209   4.198   2.015  19.679  0.4503 -0.3774  0.3045
 2005TIP3    H130210   4.143   2.089  19.707  0.0689 -0.4823 -0.1538
 2005TIP3    H230211   4.287   2.044  19.696  0.3234  0.3196 -0.1747
 2006TIP3   OH230212   3.913   4.176  18.576 -0.5341 -0.1420 -0.0968
 2006TIP3    H130213   4.006   4.176  18.556 -0.3431  0.1954  0.7293
 2006TIP3    H230214   3.870   4.200  18.494  0.1194 -0.1108 -0.4303
 2007TIP3   OH230215   0.944   1.394  17.742 -0.2928 -0.2348  0.1377
 2007TIP3    H130216   1.018   1.388  17.681  0.3924 -0.8597  1.0027
 2007TIP3    H230217   0.931   1.488  17.754  1.8622 -0.0702  1.6940
 2008TIP3   OH230218   1.193   2.620  19.087 -0.3053  0.0326  0.8307
 2008TIP3    H130219   1.288   2.620  19.100 -0.2195  0.3396  0.2363
 2008TIP3    H230220   1.159   2.676  19.156  0.0395  0.7632  0.4141
 2009TIP3   OH230221   1.404   1.798  17.648 -0.2140 -0.2147  0.8499
 2009TIP3    H130222   1.412   1.841  17.563  0.7853 -1.2860  0.3727
 2009TIP3    H230223   1.348   1.722  17.631  1.5146 -1.5125  0.6684
 2010TIP3   OH230224   0.722   0.883  16.941  0.6054  0.0386 -0.2352
 2010TIP3    H130225   0.776   0.863  17.017 -0.7171  0.0451  0.7315
 2010TIP3    H230226   0.642   0.833  16.954  1.0790 -1.4585 -2.5827
 2011TIP3   OH230227   1.853   0.011  17.200 -0.2534 -0.4613  0.0699
 2011TIP3    H130228   1.790  -0.015  17.268 -0.2410 -1.6947 -0.3692
 2011TIP3    H230229   1.798   0.037  17.126 -0.2605  0.2161  0.3116
 2012TIP3   OH230230   5.621   3.894  18.800 -0.3931 -0.2581 -0.5410
 2012TIP3    H130231   5.561   3.871  18.871 -1.0480  2.1942 -0.1870
 2012TIP3    H230232   5.586   3.976  18.765  0.8601 -0.5474 -2.6196
 2013TIP3   OH230233   5.019   1.548  20.335 -0.5006  0.6756 -0.4949
 2013TIP3    H130234   4.961   1.480  20.371  1.7778 -0.1461  1.9652
 2013TIP3    H230235   4.981   1.630  20.366 -0.0495  0.1198  1.6908
 2014TIP3   OH230236   6.482   1.875  17.092  0.3542 -0.1291 -0.2255
 2014TIP3    H130237   6.399   1.829  17.081 -0.0829  0.1132  1.6052
 2014TIP3    H230238   6.468   1.961  17.051 -0.4515  0.0444  0.3841
 2015TIP3   OH230239   3.018   5.636  20.031  0.2827 -0.0659  0.0817
 2015TIP3    H130240   3.031   5.562  19.973  1.4192 -0.6534  1.0375
 2015TIP3    H230241   2.934   5.674  20.005  0.2889 -0.9262 -1.2352
 2016TIP3   OH230242   4.880   5.656  20.150 -0.1830 -0.7021  0.7993
 2016TIP3    H130243   4.793   5.658  20.110  0.0115  0.7054  0.3922
 2016TIP3    H230244   4.931   5.720  20.100  1.5396 -2.5641  0.0501
 2017TIP3   OH230245   4.801   3.712  18.682 -0.3237 -0.2706  0.1302
 2017TIP3    H130246   4.835   3.728  18.770 -0.3286 -2.8460  0.6844
 2017TIP3    H230247   4.706   3.700  18.695 -0.5901  0.9692 -0.5122
 2018TIP3   OH230248   1.208   2.254  17.837 -0.7405 -0.2254  0.2870
 2018TIP3    H130249   1.277   2.189  17.828 -1.3136 -1.1199  1.9120
 2018TIP3    H230250   1.237   2.328  17.784  0.8359 -1.0763 -0.0775
 2019TIP3   OH230251   6.301   2.462  19.478  0.2954  0.4049  0.0971
 2019TIP3    H130252   6.209   2.484  19.483  0.5243  1.1156  1.9942
 2019TIP3    H230253   6.309   2.380  19.526  0.6225  0.2116 -0.2759
 2020TIP3   OH230254   1.019   4.808  20.856  0.0168 -0.1258 -0.0817
 2020TIP3    H130255   1.017   4.712  20.851  0.0287 -0.0711 -1.9814
 2020TIP3    H230256   0.928   4.835  20.858 -0.0625 -0.1527 -1.7054
 2021TIP3   OH230257   0.598   1.933  16.839  0.0533  0.3138 -0.1176
 2021TIP3    H130258   0.528   1.885  16.794 -1.3587  0.8178  1.4490
 2021TIP3    H230259   0.656   1.962  16.768 -2.4344  1.6920 -1.7819
 2022TIP3   OH230260   1.608   1.553  17.681 -0.0974  0.3008 -0.5123
 2022TIP3    H130261   1.600   1.517  17.770 -0.3861 -0.9223 -1.0074
 2022TIP3    H230262   1.629   1.645  17.694  0.3383  0.0381  0.8288
 2023TIP3   OH230263   4.244   2.501  19.424 -0.4088 -0.1773  0.3397
 2023TIP3    H130264   4.170   2.554  19.454 -0.4675 -0.1830  0.2037
 2023TIP3    H230265   4.204   2.431  19.372 -0.2344  0.3831 -0.5650
 2024TIP3   OH230266   1.260   1.694  16.836  0.0261  0.4725 -0.2123
 2024TIP3    H130267   1.348   1.728  16.820 -0.3500  2.1723  0.9646
 2024TIP3    H230268   1.263   1.603  16.806  2.1105  0.5486 -0.3943
 2025TIP3   OH230269   4.906   1.895  18.725 -0.0582  0.0479 -0.9612
 2025TIP3    H130270   4.955   1.974  18.700  0.8249 -0.5180 -1.0670
 2025TIP3    H230271   4.932   1.829  18.660 -1.5017 -0.0834 -1.4275
 2026TIP3   OH230272   6.362   4.870  19.509 -0.0230  0.0848  0.1566
 2026TIP3    H130273   6.403   4.829  19.585  1.1097  1.4952  0.3433
 2026TIP3    H230274   6.419   4.945  19.488 -0.8338  0.2856 -1.4907
 2027TIP3   OH230275   2.315   0.048  20.316  0.2418  0.2622 -0.5287
 2027TIP3    H130276   2.359  -0.033  20.343 -0.2534 -0.5845 -2.1256
 2027TIP3    H230277   2.230   0.044  20.358  0.7213  0.6323  0.4921
 2028TIP3   OH230278   1.968   1.480  19.730  0.1026 -0.6134 -0.2013
 2028TIP3    H130279   1.877   1.509  19.724  0.3185  0.0360 -0.4170
 2028TIP3    H230280   1.984   1.433  19.648 -0.0342 -0.7160 -0.1687
 2029TIP3   OH230281   6.260   4.883  17.969 -0.1945 -0.2199 -0.0237
 2029TIP3    H130282   6.342   4.895  17.922  0.8582 -0.3893  1.6664
 2029TIP3    H230283   6.283   4.894  18.061 -2.2399  0.5374  0.4594
 2030TIP3   OH230284   6.581   0.974  17.434  0.6887  0.0706  0.2837
 2030TIP3    H130285   6.614   1.002  17.349 -0.0349  0.6778  0.1824
 2030TIP3    H230286   6.631   0.896  17.456 -0.1759 -1.0231 -1.4261
 2031TIP3   OH230287   6.368   5.333  19.251  0.0348  0.8112 -0.6856
 2031TIP3    H130288   6.274   5.339  19.236 -0.6965  1.2448  3.0526
 2031TIP3    H230289   6.390   5.414  19.298  1.6046 -0.6203  1.2123
 2032TIP3   OH230290   0.384   2.388  18.745 -0.2202 -1.1929  0.4279
 2032TIP3    H130291   0.378   2.350  18.657 -0.6695 -2.4962  0.9948
 2032TIP3    H230292   0.477   2.384  18.766 -0.4151 -3.6636  1.1416
 2033TIP3   OH230293   0.032   3.390  17.308  0.1472 -0.4413 -0.3671
 2033TIP3    H130294  -0.032   3.444  17.354 -1.6657 -0.2291 -2.9201
 2033TIP3    H230295   0.017   3.301  17.340  0.0934 -0.0824  0.6231
 2034TIP3   OH230296   4.229   3.221  20.093  0.0225  0.1690  0.3049
 2034TIP3    H130297   4.155   3.180  20.048  1.0681 -1.3141 -0.1537
 2034TIP3    H230298   4.229   3.183  20.180 -0.6016  1.2747  0.8063
 2035TIP3   OH230299   5.117   3.325  18.322  0.6206  0.0769 -0.0225
 2035TIP3    H130300   5.088   3.327  18.413 -1.8511  4.4170 -0.6032
 2035TIP3    H230301   5.053   3.270  18.277 -1.2002  1.8208  0.2597
 2036TIP3   OH230302   0.468   5.883  19.758 -0.6469 -0.0636  0.2094
 2036TIP3    H130303   0.535   5.816  19.755  1.8561  2.2760 -0.1562
 2036TIP3    H230304   0.411   5.864  19.683 -0.0124 -1.7123  0.1212
 2037TIP3   OH230305   2.173   5.467  20.112 -0.0046 -0.1791  0.1923
 2037TIP3    H130306   2.175   5.371  20.105  0.2053 -0.1709  0.1391
 2037TIP3    H230307   2.255   5.496  20.072  0.7790 -0.0846  1.7606
 2038TIP3   OH230308   4.280   3.593  19.451 -0.4871  0.3534  0.4577
 2038TIP3    H130309   4.345   3.531  19.483  0.6266  0.7706 -0.9249
 2038TIP3    H230310   4.244   3.632  19.531 -1.5630 -2.3392  1.3906
 2039TIP3   OH230311   0.713   3.418  19.721 -0.2028  0.6685  0.0430
 2039TIP3    H130312   0.794   3.447  19.762  0.7617  0.5506 -1.6746
 2039TIP3    H230313   0.740   3.388  19.634 -2.0313  0.2070 -0.4053
 2040TIP3   OH230314   0.858   1.561  18.340  0.0374  0.2969 -0.2203
 2040TIP3    H130315   0.877   1.547  18.433 -1.6625 -0.3442  0.0629
 2040TIP3    H230316   0.937   1.532  18.295  0.3451 -0.7771  0.9421
 2041TIP3   OH230317   6.037   3.783  20.209  0.1835  0.1877  0.2659
 2041TIP3    H130318   6.040   3.879  20.207  0.4129  0.2013  0.9968
 2041TIP3    H230319   5.945   3.762  20.192  0.4511  0.4665 -1.6908
 2042TIP3   OH230320   2.160   1.712  18.864 -0.3851 -0.1631 -0.6777
 2042TIP3    H130321   2.202   1.627  18.853  0.6933  0.1721  0.6463
 2042TIP3    H230322   2.197   1.766  18.794 -0.6144 -0.6114 -1.1469
 2043TIP3   OH230323   3.842   3.123  20.012 -0.4521 -0.3832 -0.0354
 2043TIP3    H130324   3.764   3.173  19.992 -1.0811 -0.6088  1.6503
 2043TIP3    H230325   3.901   3.139  19.938 -0.9226  2.1644  0.0488
 2044TIP3   OH230326   1.337   1.332  19.990 -0.2850  0.5035  0.3758
 2044TIP3    H130327   1.377   1.246  19.996 -2.2459 -0.4515  0.6324
 2044TIP3    H230328   1.387   1.377  19.922 -0.3616 -1.5160 -1.1240
 2045TIP3   OH230329   1.855   5.384  20.110 -1.1410  0.1643  0.0318
 2045TIP3    H130330   1.846   5.337  20.027  0.6463 -0.3931  0.1267
 2045TIP3    H230331   1.944   5.417  20.109 -1.1241  0.2253  1.7034
 2046TIP3   OH230332   4.330   2.788  19.358 -0.1521 -0.4285  0.2431
 2046TIP3    H130333   4.239   2.772  19.383  0.2221 -1.1443  1.2130
 2046TIP3    H230334   4.354   2.712  19.305  0.2703 -0.9204  1.1113
 2047TIP3   OH230335   2.243   0.180  18.057  0.6061  0.0911 -0.2006
 2047TIP3    H130336   2.182   0.238  18.012 -0.9132  0.2611  1.9009
 2047TIP3    H230337   2.280   0.126  17.988 -1.3515  0.5108 -1.6808
 2048TIP3   OH230338   3.267   0.043  19.740 -0.0263 -0.0200  0.8838
 2048TIP3    H130339   3.269  -0.042  19.784 -0.5131 -0.3481  0.2828
 2048TIP3    H230340   3.357   0.056  19.709  1.0156  1.3312  3.9984
 2049TIP3   OH230341   2.804   3.372  18.995 -0.0748 -0.0835  0.4328
 2049TIP3    H130342   2.811   3.402  19.085 -1.0648 -1.2936  0.9387
 2049TIP3    H230343   2.838   3.444  18.943  0.5229  0.6265  1.7686
 2050TIP3   OH230344   5.761   5.485  19.257 -0.0522  0.2651  0.0703
 2050TIP3    H130345   5.844   5.486  19.304  0.5334 -1.1765 -0.8565
 2050TIP3    H230346   5.713   5.410  19.293 -1.1529  1.3217  0.8825
 2051TIP3   OH230347   6.091   3.945  18.154 -0.4255 -0.3153 -0.1188
 2051TIP3    H130348   6.030   3.882  18.115 -2.8500  0.8342  1.5883
 2051TIP3    H230349   6.089   3.925  18.248  1.0631  0.4323  0.1052
 2052TIP3   OH230350   0.928   4.225  17.268  0.0080  0.7059 -0.3338
 2052TIP3    H130351   0.926   4.267  17.182 -1.2908 -1.1369 -1.2635
 2052TIP3    H230352   0.855   4.163  17.267  1.1633 -0.8053  1.3351
 2053TIP3   OH230353   4.443   3.978  19.656 -0.2734 -0.1206 -0.1725
 2053TIP3    H130354   4.426   3.912  19.723  2.1941 -0.1425  0.5417
 2053TIP3    H230355   4.456   4.059  19.705 -0.5384  0.3097 -0.8060
 2054TIP3   OH230356   1.568   6.392  17.981  0.4324  0.1280 -0.5032
 2054TIP3    H130357   1.521   6.457  18.032  1.2822  2.1238 -2.1184
 2054TIP3    H230358   1.633   6.357  18.041  0.3692  1.2505  0.2484
 2055TIP3   OH230359   0.837   0.852  17.197 -0.1171 -0.2536  0.3612
 2055TIP3    H130360   0.928   0.870  17.223  0.1052 -1.6545  0.5907
 2055TIP3    H230361   0.810   0.780  17.253 -1.3539  0.0784  0.2134
 2056TIP3   OH230362   0.547   6.305  18.758  0.1279 -0.2285  0.7582
 2056TIP3    H130363   0.642   6.303  18.759  0.1816  1.0703  2.4720
 2056TIP3    H230364   0.524   6.377  18.816 -1.9443 -1.9231  2.1645
 2057TIP3   OH230365   5.228   4.678  17.873 -0.3650 -0.4126 -0.4928
 2057TIP3    H130366   5.318   4.686  17.904 -0.4167  1.9365 -0.8209
 2057TIP3    H230367   5.228   4.717  17.786 -2.5413  4.3178  1.2715
 2058TIP3   OH230368   6.198   1.352  18.670  0.1140  0.5699  0.4709
 2058TIP3    H130369   6.271   1.297  18.640 -0.6194 -0.4811  0.5750
 2058TIP3    H230370   6.240   1.418  18.726  1.0968  0.5867 -0.2671
 2059TIP3   OH230371   5.955   0.578  17.747  0.0111 -0.3889 -0.0781
 2059TIP3    H130372   5.932   0.671  17.743  2.4108  0.3221  0.8134
 2059TIP3    H230373   5.989   0.565  17.836  2.4358 -1.3673 -1.0623
 2060TIP3   OH230374   5.921   6.742  17.177  0.5169  0.3249 -0.0664
 2060TIP3    H130375   5.917   6.834  17.152  2.8237  0.8632  1.2689
 2060TIP3    H230376   5.838   6.725  17.222  0.4039  1.9951  0.4086
 2061TIP3   OH230377   5.705   0.349  18.055  0.5006  0.0610  0.2087
 2061TIP3    H130378   5.686   0.296  17.977 -0.1207 -0.2785  0.5751
 2061TIP3    H230379   5.800   0.343  18.066  0.5565 -0.1378 -0.3473
 2062TIP3   OH230380   1.786   6.052  19.276 -0.2341 -0.1789  0.5485
 2062TIP3    H130381   1.804   6.117  19.208 -0.4793 -0.6306  0.0383
 2062TIP3    H230382   1.711   6.087  19.324  0.7177  0.7415  1.3987
 2063TIP3   OH230383   2.932   5.487  18.311  0.5072  0.3749 -0.8438
 2063TIP3    H130384   2.870   5.543  18.265 -0.5024 -1.4603 -1.8330
 2063TIP3    H230385   2.934   5.407  18.260 -0.0238 -1.4785  1.7983
 2064TIP3   OH230386   6.313   4.892  20.411  0.2147 -0.4701 -0.3338
 2064TIP3    H130387   6.306   4.983  20.439  0.2530 -0.0202 -1.6988
 2064TIP3    H230388   6.335   4.844  20.491 -0.1051  0.6670  0.4673
 2065TIP3   OH230389   6.083   1.239  17.635 -0.2209 -0.4441  0.7556
 2065TIP3    H130390   6.021   1.167  17.642 -0.1831 -0.6782 -0.9474
 2065TIP3    H230391   6.032   1.311  17.597  0.7646 -1.0750 -2.0625
 2066TIP3   OH230392   6.378   2.542  18.453  0.9989  0.0279 -0.7066
 2066TIP3    H130393   6.428   2.603  18.506 -0.2116  1.2682 -0.9535
 2066TIP3    H230394   6.444   2.479  18.422  2.0897  0.5619  0.4093
 2067TIP3   OH230395   6.230   2.041  18.060  0.1867 -0.0786  0.1108
 2067TIP3    H130396   6.305   1.995  18.098  1.4674  1.6949 -0.1375
 2067TIP3    H230397   6.154   1.987  18.084  1.4197 -1.3950  1.2491
 2068TIP3   OH230398   4.450   3.774  18.085  0.3846 -0.2359  0.8596
 2068TIP3    H130399   4.360   3.783  18.051  0.1125  0.3882  1.7086
 2068TIP3    H230400   4.505   3.772  18.006 -0.1568  2.0198  0.3351
 2069TIP3   OH230401   2.229   3.086  19.577  0.4048 -0.0365 -0.7076
 2069TIP3    H130402   2.236   3.097  19.672 -1.1154 -2.8814 -0.1509
 2069TIP3    H230403   2.310   3.041  19.552 -0.6984 -2.5688 -0.0433
 2070TIP3   OH230404   1.684   5.107  20.273  0.1376  0.4485  0.1616
 2070TIP3    H130405   1.673   5.013  20.290  0.7146  0.5976  1.4394
 2070TIP3    H230406   1.763   5.132  20.320 -0.4223  1.7395  0.4705
 2071TIP3   OH230407   3.391   0.192  20.675 -0.2053  0.6805  0.2268
 2071TIP3    H130408   3.299   0.190  20.652  0.2093 -1.1722 -1.5791
 2071TIP3    H230409   3.435   0.221  20.595  0.9167 -0.5413  0.3712
 2072TIP3   OH230410   6.551   6.658  19.406 -0.6057 -0.1028 -0.1253
 2072TIP3    H130411   6.643   6.665  19.431 -0.3684  1.2128 -1.2919
 2072TIP3    H230412   6.519   6.748  19.405 -1.4849 -0.4063 -1.1958
 2073TIP3   OH230413   0.725   0.964  20.689 -0.3888 -0.2876  0.0984
 2073TIP3    H130414   0.717   1.058  20.672 -1.8860 -0.4598 -0.2617
 2073TIP3    H230415   0.817   0.945  20.673 -0.5256  0.6698 -2.2819
 2074TIP3   OH230416   4.228   1.507  18.146  0.2017 -0.1433 -0.1745
 2074TIP3    H130417   4.146   1.494  18.097 -0.6009 -1.3472  1.3927
 2074TIP3    H230418   4.213   1.464  18.230  2.0860  0.5367  0.5681
 2075TIP3   OH230419   4.145   4.028  20.300 -0.9439 -0.0214  0.5449
 2075TIP3    H130420   4.116   3.956  20.245 -1.8077  0.0165  0.9429
 2075TIP3    H230421   4.173   3.987  20.382  1.0250 -0.1549 -0.1340
 2076TIP3   OH230422   0.994   2.307  19.004  0.4611 -0.2747 -0.2179
 2076TIP3    H130423   1.005   2.401  18.987 -0.5060  0.9805  4.4451
 2076TIP3    H230424   1.078   2.281  19.043  0.0236 -0.7195  0.4446
 2077TIP3   OH230425   2.369   6.294  17.679  0.5744 -0.4654 -0.6107
 2077TIP3    H130426   2.443   6.330  17.630  0.9482  0.0760  0.3292
 2077TIP3    H230427   2.297   6.354  17.662  0.3123 -1.0409 -1.5981
 2078TIP3   OH230428   6.233   1.242  17.854 -0.4424 -0.0846  0.1280
 2078TIP3    H130429   6.159   1.287  17.896 -0.9563 -1.5799  0.9132
 2078TIP3    H230430   6.203   1.225  17.765 -1.8858 -2.3495  0.9580
 2079TIP3   OH230431   1.026   4.673  18.676 -0.3859 -0.4494  0.2548
 2079TIP3    H130432   1.115   4.653  18.706  1.1976  0.6563 -3.0905
 2079TIP3    H230433   1.008   4.606  18.610 -0.2070  1.5716 -2.0221
 2080TIP3   OH230434   6.362   2.500  18.109 -0.8915  0.4475 -0.0547
 2080TIP3    H130435   6.308   2.421  18.109 -0.0798 -0.1484  1.6617
 2080TIP3    H230436   6.299   2.572  18.123 -1.2356 -0.3083  2.9033
 2081TIP3   OH230437   2.406   5.400  19.149 -0.3110  0.0839 -0.6923
 2081TIP3    H130438   2.364   5.314  19.153 -0.5570  0.1905 -0.9638
 2081TIP3    H230439   2.417   5.417  19.056 -0.3396  0.3857 -0.6403
 2082TIP3   OH230440   6.096   4.155  19.779  0.2316  0.2182 -0.6541
 2082TIP3    H130441   6.052   4.124  19.700 -0.7577 -1.4866  0.5156
 2082TIP3    H230442   6.154   4.083  19.805 -0.3148  0.2621  0.7892
 2083TIP3   OH230443   4.330   6.290  19.503 -0.5620  0.3166 -0.1839
 2083TIP3    H130444   4.396   6.237  19.460 -3.3100 -1.6970 -2.2608
 2083TIP3    H230445   4.378   6.366  19.536  2.9743 -1.7768 -0.0974
 2084TIP3   OH230446   1.987   4.243  18.670 -0.3177 -0.1769  0.3411
 2084TIP3    H130447   2.001   4.271  18.761 -1.1690 -0.7388  0.6578
 2084TIP3    H230448   2.060   4.282  18.621 -0.4199  0.9987  1.0865
 2085TIP3   OH230449   5.946   2.233  20.650 -0.1592  0.3323  0.4316
 2085TIP3    H130450   5.986   2.207  20.733 -1.2706  0.8718  1.1580
 2085TIP3    H230451   5.978   2.168  20.587  0.3012 -0.3860  1.3777
 2086TIP3   OH230452   1.157   0.919  20.174  0.3047 -0.6444  0.1412
 2086TIP3    H130453   1.175   1.013  20.178 -0.7679 -0.4194 -0.1146
 2086TIP3    H230454   1.080   0.907  20.228 -1.0783 -0.9691 -1.7794
 2087TIP3   OH230455   6.635   0.414  20.086 -0.6191 -0.4107 -0.5748
 2087TIP3    H130456   6.647   0.320  20.097  0.0678 -0.3442 -0.6788
 2087TIP3    H230457   6.713   0.453  20.128 -0.7413  0.0941 -0.8036
 2088TIP3   OH230458   0.909   3.890  19.135 -0.0777  0.3763 -0.3050
 2088TIP3    H130459   0.826   3.851  19.163  0.6946 -0.8986  0.3175
 2088TIP3    H230460   0.969   3.870  19.206  1.1944 -0.2870 -1.5240
 2089TIP3   OH230461   3.814   5.745  18.650  1.0772 -0.1417  0.3060
 2089TIP3    H130462   3.719   5.749  18.653  1.0293  0.0598 -0.9571
 2089TIP3    H230463   3.836   5.755  18.558  2.3268 -0.2110  0.5717
 2090TIP3   OH230464   5.533   5.486  18.957 -0.4004  0.6201 -0.1467
 2090TIP3    H130465   5.620   5.445  18.951  0.3014  2.2086 -1.7458
 2090TIP3    H230466   5.551   5.578  18.974 -1.8037  0.9129 -0.1382
 2091TIP3   OH230467   2.856   1.199  19.314  0.3104  0.4990  0.2870
 2091TIP3    H130468   2.912   1.157  19.379  0.4575  0.1658 -0.0522
 2091TIP3    H230469   2.908   1.272  19.281  1.1379 -0.6648 -1.0693
 2092TIP3   OH230470   0.416   6.730  18.833  0.1790 -0.1998 -0.4925
 2092TIP3    H130471   0.491   6.697  18.883 -0.8786 -0.1190  1.1988
 2092TIP3    H230472   0.420   6.825  18.843  1.5897  0.1159 -3.0271
 2093TIP3   OH230473   5.297   4.182  18.358  0.2773 -0.0346  0.7808
 2093TIP3    H130474   5.241   4.105  18.352 -0.8765  0.6394  2.2278
 2093TIP3    H230475   5.262   4.242  18.291 -1.2592  0.6513  2.1229
 2094TIP3   OH230476   6.174   6.409  19.706 -0.2688 -0.2517 -0.4385
 2094TIP3    H130477   6.223   6.367  19.776  0.5147  0.2167 -0.6855
 2094TIP3    H230478   6.241   6.456  19.656 -0.7986 -0.6845 -1.5717
 2095TIP3   OH230479   4.059   1.874  18.872  0.2529 -0.2420 -0.1905
 2095TIP3    H130480   4.068   1.794  18.821  0.5281 -0.5202  0.2882
 2095TIP3    H230481   3.974   1.866  18.915  1.3952 -1.5233  1.9568
 2096TIP3   OH230482   5.221   0.426  17.725  0.2824  0.1251 -0.0649
 2096TIP3    H130483   5.280   0.418  17.650  1.3655 -1.1872  0.8739
 2096TIP3    H230484   5.135   0.403  17.690  0.3750  1.5275 -1.3341
 2097TIP3   OH230485   5.550   2.155  17.326  0.0697  0.0923  0.2727
 2097TIP3    H130486   5.486   2.084  17.336  1.3253 -1.9809 -3.8338
 2097TIP3    H230487   5.498   2.230  17.300 -1.0543 -1.9715 -4.7314
 2098TIP3   OH230488   2.403   4.965  18.525  0.1888  0.4035  0.0955
 2098TIP3    H130489   2.315   4.948  18.559  0.1033  0.6323 -0.0094
 2098TIP3    H230490   2.408   4.912  18.445  1.5762 -2.8395  2.1287
 2099TIP3   OH230491   4.126   4.266  19.996 -0.0016 -0.5550  0.5444
 2099TIP3    H130492   4.148   4.320  19.920 -0.6062 -1.7100 -0.4901
 2099TIP3    H230493   4.123   4.177  19.962 -1.2989 -0.9917  1.7112
 2100TIP3   OH230494   2.203   1.799  20.034  0.9708  0.3335  0.1899
 2100TIP3    H130495   2.175   1.708  20.033  0.8109  0.2708  2.9002
 2100TIP3    H230496   2.165   1.837  19.954 -0.8411 -1.4292  0.1363
 2101TIP3   OH230497   4.465   1.381  19.121 -0.2615  0.4034  0.1240
 2101TIP3    H130498   4.495   1.306  19.070  0.2509  0.2191  0.6872
 2101TIP3    H230499   4.523   1.453  19.094 -1.8709  1.0968 -1.7461
 2102TIP3   OH230500   0.493   5.264  17.544  0.5586 -0.1555 -0.0623
 2102TIP3    H130501   0.479   5.328  17.474  1.0613  1.3893  1.1998
 2102TIP3    H230502   0.450   5.184  17.512  0.4868  0.5890 -1.9746
 2103TIP3   OH230503   1.567   2.978  19.267  0.3215 -0.5550 -0.4161
 2103TIP3    H130504   1.658   2.994  19.240  0.0057  0.8338 -0.7526
 2103TIP3    H230505   1.519   2.972  19.185 -0.1590  0.5504 -0.2369
 2104TIP3   OH230506   2.352   4.030  20.281 -0.1072 -0.1790 -0.5476
 2104TIP3    H130507   2.321   4.119  20.266  1.9123  0.8251  0.8271
 2104TIP3    H230508   2.317   4.006  20.367  0.4534 -0.1905 -0.3187
 2105TIP3   OH230509   0.281   4.779  19.229 -0.4578  0.1615 -0.3371
 2105TIP3    H130510   0.338   4.703  19.215  0.0563  0.2590  1.1115
 2105TIP3    H230511   0.246   4.799  19.142  2.1683  0.4409 -1.4273
 2106TIP3   OH230512   1.611   6.319  20.070 -0.0039  0.2834 -0.3969
 2106TIP3    H130513   1.668   6.303  19.995 -0.7562 -0.8832 -0.7447
 2106TIP3    H230514   1.615   6.414  20.084  2.3215  0.2061 -0.1443
 2107TIP3   OH230515   3.776   5.520  17.372  0.3544 -0.5470  0.2904
 2107TIP3    H130516   3.724   5.546  17.449 -1.1287 -2.8584  0.1806
 2107TIP3    H230517   3.721   5.543  17.297 -0.2978 -2.3427  0.1493
 2108TIP3   OH230518   5.048   2.814  19.710  0.0882  0.5454  0.3711
 2108TIP3    H130519   5.005   2.880  19.655 -1.0697 -0.3966  0.1108
 2108TIP3    H230520   4.995   2.735  19.698  0.3611  0.0616  2.1200
 2109TIP3   OH230521   2.817   2.130  20.011  0.2066  0.1308  0.2337
 2109TIP3    H130522   2.763   2.205  19.983  0.0458 -0.0246  0.1281
 2109TIP3    H230523   2.778   2.104  20.095  1.0003  0.9181  0.8682
 2110TIP3   OH230524   4.002   2.297  19.764 -0.1047 -0.5528  0.3448
 2110TIP3    H130525   4.060   2.371  19.780  0.0685 -1.1094  2.5507
 2110TIP3    H230526   3.941   2.297  19.837 -1.7754 -1.0497 -0.9955
 2111TIP3   OH230527   4.605   3.581  18.404  0.2414  0.2134 -0.5931
 2111TIP3    H130528   4.563   3.519  18.464  2.0587  0.1685  0.7222
 2111TIP3    H230529   4.549   3.659  18.407 -0.3818 -0.2425  0.1875
 2112TIP3   OH230530   5.258   1.390  18.058  0.4300  0.4452 -0.2352
 2112TIP3    H130531   5.167   1.418  18.053  0.2622 -0.0799 -0.1447
 2112TIP3    H230532   5.303   1.463  18.100  0.2153  1.0874 -1.0950
 2113TIP3   OH230533   2.384   2.639  18.090 -0.3243  0.2400 -0.3410
 2113TIP3    H130534   2.448   2.686  18.143 -1.1438  2.7079 -1.3957
 2113TIP3    H230535   2.369   2.695  18.015 -2.3472 -1.1457 -1.0674
 2114TIP3   OH230536   2.502   1.008  19.891  0.2802 -0.0446  0.0846
 2114TIP3    H130537   2.437   1.054  19.944 -0.0851 -0.7240  0.2481
 2114TIP3    H230538   2.567   0.976  19.953  0.2489 -0.2024  0.0376
 2115TIP3   OH230539   1.697   6.352  20.591  0.4878 -0.4314 -0.0241
 2115TIP3    H130540   1.680   6.278  20.649 -0.8662 -1.2188 -1.3364
 2115TIP3    H230541   1.714   6.426  20.650 -1.5534 -1.0194  1.4051
 2116TIP3   OH230542   1.521   1.980  19.312  0.5261 -1.1038  0.5489
 2116TIP3    H130543   1.444   2.031  19.284  2.0107  0.6968 -0.4541
 2116TIP3    H230544   1.508   1.894  19.271 -0.5359 -0.5713 -0.3029
 2117TIP3   OH230545   0.019   5.242  20.500  0.7485 -0.1297 -0.7267
 2117TIP3    H130546   0.008   5.175  20.433 -0.9958 -0.2264 -0.3995
 2117TIP3    H230547  -0.036   5.315  20.469  0.8588  0.2781  0.0263
 2118TIP3   OH230548   0.215   5.480  17.290 -0.3587 -0.2332 -0.8319
 2118TIP3    H130549   0.307   5.459  17.273 -0.5327 -0.3305 -1.7094
 2118TIP3    H230550   0.195   5.550  17.227 -0.9307 -0.3373 -0.7634
 2119TIP3   OH230551   0.943   6.292  20.322  0.0256  0.0020 -0.2939
 2119TIP3    H130552   1.002   6.267  20.393 -1.0959  1.1935  1.1204
 2119TIP3    H230553   0.895   6.211  20.301 -0.9792  0.0352  1.6727
 2120TIP3   OH230554   3.362   5.490  18.548  0.3155 -0.2427  0.2144
 2120TIP3    H130555   3.395   5.492  18.459 -0.3681 -0.6911 -0.0602
 2120TIP3    H230556   3.268   5.509  18.539 -0.0479 -1.6745  0.6746
 2121TIP3   OH230557   4.785   5.510  18.634 -0.1248 -0.1933  0.1236
 2121TIP3    H130558   4.786   5.453  18.558 -0.7422  0.9798 -0.8046
 2121TIP3    H230559   4.698   5.498  18.673 -0.5461  0.6229 -0.5144
 2122TIP3   OH230560   5.735   5.193  19.327  0.2165 -0.0840 -0.2386
 2122TIP3    H130561   5.795   5.173  19.255  1.0389  2.0823 -0.2316
 2122TIP3    H230562   5.787   5.180  19.406  0.0425 -0.1965 -0.1436
 2123TIP3   OH230563   5.839   4.898  18.117  0.6331  0.2980 -0.3617
 2123TIP3    H130564   5.911   4.925  18.060 -0.8099  0.9121 -1.9786
 2123TIP3    H230565   5.769   4.961  18.099 -0.8366 -1.1349  0.0762
 2124TIP3   OH230566   3.931   4.631  20.357  0.0879  1.0962 -0.1241
 2124TIP3    H130567   3.879   4.551  20.363 -2.6162  2.7867  0.8909
 2124TIP3    H230568   4.020   4.600  20.341 -0.9046 -2.0609 -0.3325
 2125TIP3   OH230569   1.874   3.658  18.911  0.0878 -0.0166  0.1975
 2125TIP3    H130570   1.963   3.692  18.904  0.1881 -0.0161  1.2682
 2125TIP3    H230571   1.837   3.668  18.823  1.8458 -2.0012 -0.8531
 2126TIP3   OH230572   3.176   5.908  19.059  0.1528  0.0372 -0.4261
 2126TIP3    H130573   3.196   5.948  18.974  0.5651 -0.7467 -0.7055
 2126TIP3    H230574   3.201   5.816  19.049 -0.4177 -0.2105  0.3322
 2127TIP3   OH230575   0.033   1.787  19.484 -0.3997 -0.1917  0.0935
 2127TIP3    H130576  -0.007   1.760  19.567  0.3703  2.3806  1.4019
 2127TIP3    H230577   0.065   1.705  19.445 -2.8321 -1.7609  1.1507
 2128TIP3   OH230578   6.642   6.741  19.757  0.0663  0.1352 -0.3728
 2128TIP3    H130579   6.661   6.784  19.674 -0.1950  1.4040  0.2012
 2128TIP3    H230580   6.671   6.650  19.745  0.5051  0.4362 -1.6595
 2129TIP3   OH230581   0.232   1.564  19.041 -0.4940 -0.3758  0.2645
 2129TIP3    H130582   0.226   1.596  19.131 -1.4280  0.7312 -0.1666
 2129TIP3    H230583   0.165   1.613  18.993  0.5075 -0.3575 -1.2006
 2130TIP3   OH230584   5.054   0.913  18.078 -0.6186  0.1694 -0.3407
 2130TIP3    H130585   5.105   0.913  17.997 -1.2278  1.0307 -0.7431
 2130TIP3    H230586   5.107   0.965  18.139  0.5771 -1.7420  0.3375
 2131TIP3   OH230587   1.071   4.972  19.021 -0.7952 -0.3071  0.6466
 2131TIP3    H130588   1.156   4.933  19.000 -0.1182  0.6791  1.4154
 2131TIP3    H230589   1.016   4.898  19.046  0.4141 -0.8044  1.9899
 2132TIP3   OH230590   1.154   1.626  17.981  0.5662  0.2656  0.5065
 2132TIP3    H130591   1.240   1.585  17.970  0.0703 -0.4081 -1.0620
 2132TIP3    H230592   1.162   1.710  17.936 -0.2193 -0.7416 -1.6469
 2133TIP3   OH230593   2.403   2.840  17.899  0.0144  0.1798 -0.1453
 2133TIP3    H130594   2.327   2.898  17.895 -0.6209 -0.6930 -1.5493
 2133TIP3    H230595   2.435   2.836  17.809  0.5158 -1.0208  0.0639
 2134TIP3   OH230596   3.725   1.429  20.000  0.2960  0.3242 -0.1668
 2134TIP3    H130597   3.713   1.458  19.910  1.5207 -1.9362 -1.1190
 2134TIP3    H230598   3.694   1.339  20.002 -1.2749  0.8055  2.1296
 2135TIP3   OH230599   3.697   0.063  18.347  0.4085 -0.3616  0.4979
 2135TIP3    H130600   3.738   0.123  18.284  2.0480 -1.7520  0.1648
 2135TIP3    H230601   3.679   0.116  18.424  1.3670  0.6581  0.0331
 2136TIP3   OH230602   0.347   4.702  20.180 -0.0653  0.1067  0.1452
 2136TIP3    H130603   0.263   4.701  20.226 -0.4792 -0.8732 -0.6094
 2136TIP3    H230604   0.411   4.679  20.248 -0.8624 -3.1312 -0.0377
 2137TIP3   OH230605   3.201   4.275  20.106 -0.5505  0.2507 -0.5005
 2137TIP3    H130606   3.180   4.367  20.091 -1.2609 -0.1744 -2.3045
 2137TIP3    H230607   3.141   4.248  20.176  0.3061  1.3606  0.7117
 2138TIP3   OH230608   5.063   3.764  20.654 -0.3624  0.3840  0.3477
 2138TIP3    H130609   5.132   3.794  20.712  0.2484 -1.3605  0.5676
 2138TIP3    H230610   5.109   3.725  20.580 -1.1267  2.1818 -1.1733
 2139TIP3   OH230611   6.492   1.769  20.208 -0.1704  0.1384 -0.1704
 2139TIP3    H130612   6.437   1.847  20.205  1.7058  1.6869  1.9802
 2139TIP3    H230613   6.460   1.720  20.283 -0.6943 -0.6842 -0.9124
 2140TIP3   OH230614   5.260   1.574  18.710  0.7083  0.0291  0.1061
 2140TIP3    H130615   5.262   1.482  18.683  0.8128 -0.1547  0.7213
 2140TIP3    H230616   5.174   1.584  18.752  0.6119  0.2672 -0.1454
 2141TIP3   OH230617   1.653   0.245  19.791  0.2671  0.0650  0.2206
 2141TIP3    H130618   1.641   0.152  19.770  1.5008 -0.3053  1.0465
 2141TIP3    H230619   1.666   0.288  19.707 -1.4147 -0.3179 -0.2667
 2142TIP3   OH230620   4.059   0.243  19.386 -0.0679 -0.3658 -0.0078
 2142TIP3    H130621   4.089   0.165  19.340  1.7466 -0.4686  1.2438
 2142TIP3    H230622   4.134   0.303  19.384 -0.1042 -0.1528  2.2371
 2143TIP3   OH230623   6.694   4.391  19.528 -0.3660 -0.4456 -0.8217
 2143TIP3    H130624   6.651   4.401  19.443  0.2320 -0.7479 -1.1669
 2143TIP3    H230625   6.678   4.300  19.553 -0.1550 -0.4865 -0.8307
 2144TIP3   OH230626   4.182   2.691  20.263 -0.3969 -0.0910 -0.0574
 2144TIP3    H130627   4.162   2.721  20.175 -0.8422 -0.4193 -0.0756
 2144TIP3    H230628   4.133   2.609  20.272  0.7110 -0.7506  0.0248
 2145TIP3   OH230629   0.025   4.321  17.263 -0.4051 -0.1210 -0.4208
 2145TIP3    H130630   0.077   4.391  17.224 -1.7081  0.3296 -1.3908
 2145TIP3    H230631  -0.062   4.358  17.273 -0.5187 -0.7622  1.4787
 2146TIP3   OH230632   4.412   6.326  17.865  0.6830 -0.2706 -0.0833
 2146TIP3    H130633   4.407   6.238  17.827 -0.5479 -0.5913  0.7866
 2146TIP3    H230634   4.368   6.318  17.950  3.4813  0.3922  1.5493
 2147TIP3   OH230635   0.535   6.185  20.120  0.4777  0.0357 -0.1913
 2147TIP3    H130636   0.538   6.094  20.151 -2.4932 -0.4378 -0.9141
 2147TIP3    H230637   0.537   6.178  20.024 -1.1484  0.5726 -0.2928
 2148TIP3   OH230638   2.800   4.381  18.992 -0.3178 -0.3616 -0.6753
 2148TIP3    H130639   2.795   4.425  18.907 -0.0131 -1.1293 -1.1010
 2148TIP3    H230640   2.893   4.377  19.012 -0.4672  1.5306  0.6327
 2149TIP3   OH230641   1.626   4.054  18.594 -0.3206  0.5560 -0.3381
 2149TIP3    H130642   1.712   4.018  18.574 -1.1020 -1.6778  0.0898
 2149TIP3    H230643   1.581   4.060  18.510  0.1751  1.6173 -0.5469
 2150TIP3   OH230644   1.957   1.145  20.899 -0.1295 -0.2498  0.1764
 2150TIP3    H130645   1.988   1.132  20.988  2.0187 -0.4200 -0.5452
 2150TIP3    H230646   1.885   1.082  20.889 -1.1742  0.5790  2.1113
 2151TIP3   OH230647   2.097   3.075  18.875  0.1436 -0.5314 -0.3951
 2151TIP3    H130648   2.050   2.992  18.886  0.5419 -0.6571  0.4764
 2151TIP3    H230649   2.170   3.069  18.937  1.1241 -0.2007 -1.4864
 2152TIP3   OH230650   1.816   4.617  19.951  0.3395  0.1545  0.3499
 2152TIP3    H130651   1.840   4.524  19.954 -0.0115 -0.0226 -1.3251
 2152TIP3    H230652   1.888   4.661  19.995 -0.4459 -1.0248  3.0472
 2153TIP3   OH230653   3.257   4.964  19.398 -0.2284 -0.3091  0.1598
 2153TIP3    H130654   3.283   4.983  19.307 -0.8291 -0.8441 -0.1346
 2153TIP3    H230655   3.326   5.003  19.451 -0.4665  1.0535 -0.4776
 2154TIP3   OH230656   3.119   5.641  18.145  0.3640  0.2622 -0.0667
 2154TIP3    H130657   3.109   5.722  18.195 -1.6933  0.6156 -0.9751
 2154TIP3    H230658   3.042   5.589  18.168 -0.6474  0.4226 -2.7634
 2155TIP3   OH230659   2.720   5.976  19.205 -0.1949 -0.3759 -0.1466
 2155TIP3    H130660   2.723   5.915  19.131 -2.3029 -0.3424 -0.3264
 2155TIP3    H230661   2.667   5.931  19.271  0.1902  0.3208  0.6572
 2156TIP3   OH230662   5.550   4.550  18.011  0.2239 -0.6054 -0.7623
 2156TIP3    H130663   5.616   4.608  18.048 -0.3601  0.0450 -0.7369
 2156TIP3    H230664   5.552   4.568  17.917  2.2905 -2.8421 -1.2516
 2157TIP3   OH230665   0.666   0.164  19.401  0.3624 -0.3718  0.3048
 2157TIP3    H130666   0.758   0.154  19.425  0.6445  0.6185 -0.3199
 2157TIP3    H230667   0.627   0.209  19.476  0.4282 -0.6027  0.4799
 2158TIP3   OH230668   1.488   6.674  19.296  0.2895 -0.5480  0.3145
 2158TIP3    H130669   1.567   6.662  19.243 -1.0117 -1.8684 -1.4458
 2158TIP3    H230670   1.462   6.764  19.279 -0.3618 -1.0662 -1.7909
 2159TIP3   OH230671   5.010   2.047  20.426 -0.3959  0.2319 -0.3495
 2159TIP3    H130672   5.065   2.064  20.349 -0.3520  0.4645 -0.2680
 2159TIP3    H230673   4.948   2.120  20.427 -1.1654 -0.4085 -0.8491
 2160TIP3   OH230674   2.869   2.142  18.329 -0.4349  0.0908  0.0571
 2160TIP3    H130675   2.857   2.232  18.361 -0.8483  0.3151 -0.6903
 2160TIP3    H230676   2.844   2.087  18.403 -1.0417  0.5922  0.2403
 2161TIP3   OH230677   0.511   0.808  17.411 -0.1147  0.4621  0.0520
 2161TIP3    H130678   0.458   0.842  17.339 -2.1492 -1.1964  0.6785
 2161TIP3    H230679   0.573   0.749  17.368 -1.4961 -0.7420 -0.3765
 2162TIP3   OH230680   5.566   1.214  20.054 -0.3517 -0.1790  0.9189
 2162TIP3    H130681   5.522   1.170  20.126  0.3470 -0.2611  1.3106
 2162TIP3    H230682   5.633   1.151  20.025 -0.4638 -0.0492  0.3651
 2163TIP3   OH230683   3.338   6.342  18.070 -0.1371 -0.0624 -0.4647
 2163TIP3    H130684   3.264   6.365  18.014 -1.0803 -1.2031  0.2849
 2163TIP3    H230685   3.313   6.373  18.157 -0.0913 -1.1466 -0.0511
 2164TIP3   OH230686   1.084   0.103  18.495 -0.1166  0.4368  0.3437
 2164TIP3    H130687   0.997   0.087  18.531 -0.3098 -0.4202 -0.4705
 2164TIP3    H230688   1.107   0.023  18.449  1.2100  0.5645  0.7179
 2165TIP3   OH230689   4.896   3.058  20.611  0.1626  0.2274  0.1652
 2165TIP3    H130690   4.964   3.009  20.657 -0.9124  1.4649  3.3236
 2165TIP3    H230691   4.847   2.991  20.563  2.3525 -0.9203 -0.6088
 2166TIP3   OH230692   0.287   5.023  18.592 -0.4230  0.1845  0.0079
 2166TIP3    H130693   0.259   4.942  18.550  1.8749 -0.7539  0.1400
 2166TIP3    H230694   0.380   5.030  18.570 -0.2824  2.1310  1.0487
 2167TIP3   OH230695   6.612   6.666  18.262 -0.0833  0.4433 -0.6087
 2167TIP3    H130696   6.589   6.757  18.243 -0.2380  0.1352 -2.0551
 2167TIP3    H230697   6.562   6.615  18.198  0.2166 -0.6443 -0.0073
 2168TIP3   OH230698   2.993   0.568  20.070 -0.5811 -0.4989  0.8075
 2168TIP3    H130699   2.983   0.533  19.982  0.9003  0.2509  0.3111
 2168TIP3    H230700   2.908   0.608  20.090 -0.7004 -0.0175 -0.5869
 2169TIP3   OH230701   6.034   5.217  19.852 -1.1661  0.1184 -0.2357
 2169TIP3    H130702   6.121   5.179  19.846 -1.0920  0.4368 -1.5112
 2169TIP3    H230703   5.989   5.164  19.917  0.0050  0.0142  0.5204
 2170TIP3   OH230704   0.632   5.388  19.711 -0.0302 -0.1182  0.1975
 2170TIP3    H130705   0.651   5.412  19.620  0.2324  0.4661  0.4001
 2170TIP3    H230706   0.708   5.336  19.738  1.5440  2.4783  1.1042
 2171TIP3   OH230707   6.628   1.468  20.458 -0.1146 -0.4631  0.6568
 2171TIP3    H130708   6.699   1.498  20.515  0.1621 -1.2854  0.7474
 2171TIP3    H230709   6.660   1.385  20.421  0.1534  0.5136 -1.4919
 2172TIP3   OH230710   0.528   5.128  18.911 -0.2097  0.0699  0.1305
 2172TIP3    H130711   0.453   5.069  18.915  0.1047 -0.4762 -1.3589
 2172TIP3    H230712   0.604   5.071  18.909  0.3690  0.6308  2.5012
 2173TIP3   OH230713   3.246   6.481  18.306  0.2662  0.2465 -0.4762
 2173TIP3    H130714   3.312   6.494  18.375  1.2219 -0.8856 -1.1289
 2173TIP3    H230715   3.255   6.558  18.250  0.8125  0.2557 -0.3814
 2174TIP3   OH230716   3.926   6.209  18.185  0.9266  0.1970 -0.4122
 2174TIP3    H130717   3.926   6.239  18.094 -0.6824 -1.4750 -1.0271
 2174TIP3    H230718   3.992   6.139  18.186  0.3510 -0.3518 -0.5146
 2175TIP3   OH230719   4.039   1.025  20.466 -0.2899 -0.3068 -0.1705
 2175TIP3    H130720   3.978   0.998  20.534 -0.8006 -1.1004 -0.9153
 2175TIP3    H230721   4.001   0.990  20.385  0.1797  0.8011 -0.8923
 2176TIP3   OH230722   2.073   5.923  19.298  0.1717 -0.9121  0.0467
 2176TIP3    H130723   2.039   5.899  19.212 -0.1925 -1.0462  0.2264
 2176TIP3    H230724   2.009   5.888  19.360 -1.1933  1.8094  0.3040
 2177TIP3   OH230725   2.429   1.065  20.692 -0.4383 -0.0563 -0.3873
 2177TIP3    H130726   2.482   1.137  20.657 -0.7868 -0.3490 -1.5599
 2177TIP3    H230727   2.390   1.101  20.772  0.6581  0.5187 -0.0801
 2178TIP3   OH230728   4.063   5.613  18.220  0.0507 -0.0893  0.1211
 2178TIP3    H130729   4.042   5.648  18.134  0.7620 -0.9793 -0.4302
 2178TIP3    H230730   4.150   5.648  18.240  0.4878 -0.9714 -0.1511
 2179TIP3   OH230731   5.924   0.948  20.281 -0.0794 -0.1230 -0.1137
 2179TIP3    H130732   5.864   0.929  20.353  0.2697  0.7069  0.4032
 2179TIP3    H230733   5.953   0.862  20.250  0.9846 -0.4901  1.7669
 2180TIP3   OH230734   1.674   4.679  18.587 -0.0300  0.1644 -0.4611
 2180TIP3    H130735   1.736   4.624  18.539  0.2260  1.1402 -1.3019
 2180TIP3    H230736   1.723   4.759  18.605 -0.1381 -0.1605  1.4320
 2181TIP3   OH230737   4.383   6.511  20.482 -0.2433  0.0619  0.5057
 2181TIP3    H130738   4.367   6.468  20.398  0.3171 -0.7973  0.8317
 2181TIP3    H230739   4.298   6.512  20.526 -0.6335  0.8883 -0.2256
 2182TIP3   OH230740   5.455   0.593  16.693  0.1551 -0.1297 -0.6626
 2182TIP3    H130741   5.496   0.516  16.653  1.0177  0.7882 -1.6038
 2182TIP3    H230742   5.448   0.656  16.621 -0.5958  0.6559  0.0831
 2183TIP3   OH230743   5.188   3.484  18.840 -0.1169  0.0226  0.0636
 2183TIP3    H130744   5.097   3.501  18.865  0.1799  0.9054  0.5852
 2183TIP3    H230745   5.225   3.438  18.916  0.3868  1.3936  0.6720
 2184TIP3   OH230746   6.038   2.210  20.389 -0.3648  0.3237 -0.3037
 2184TIP3    H130747   6.034   2.305  20.398  0.0096  0.2037  1.3549
 2184TIP3    H230748   6.131   2.189  20.395 -0.4850 -0.1856 -0.1683
 2185TIP3   OH230749   6.177   3.414  18.001 -0.4174 -0.2948 -0.3768
 2185TIP3    H130750   6.215   3.353  18.064  1.6974  1.6827  0.4037
 2185TIP3    H230751   6.219   3.392  17.918 -0.7024 -0.7832 -0.3904
 2186TIP3   OH230752   5.767   5.670  19.527  0.2038 -0.1486 -0.2163
 2186TIP3    H130753   5.835   5.603  19.518  0.8579  0.5443 -0.5154
 2186TIP3    H230754   5.780   5.705  19.616 -0.7687 -1.0803  0.3117
 2187TIP3   OH230755   0.398   4.542  18.422  0.5218  0.2295 -0.0903
 2187TIP3    H130756   0.481   4.579  18.454  1.2051 -1.1225 -0.2159
 2187TIP3    H230757   0.331   4.592  18.467  1.3955  1.6566 -0.3197
 2188TIP3   OH230758   2.187   0.545  17.953 -0.5909  0.0755 -0.0575
 2188TIP3    H130759   2.224   0.544  18.041 -0.3363 -1.1685 -0.1637
 2188TIP3    H230760   2.166   0.637  17.938 -0.1789  0.3874  1.1045
 2189TIP3   OH230761   3.104   2.576  20.479  0.5262  0.0122  0.3093
 2189TIP3    H130762   3.060   2.560  20.396  1.3041 -1.2477  0.1146
 2189TIP3    H230763   3.037   2.619  20.533 -1.5490 -3.1826  0.5601
 2190TIP3   OH230764   4.853   2.781  17.968 -0.1175  0.1933  0.0605
 2190TIP3    H130765   4.935   2.731  17.971  2.0373  3.1592 -2.6682
 2190TIP3    H230766   4.840   2.811  18.058  1.4572 -0.8234  0.6718
 2191TIP3   OH230767   3.173   1.948  19.662 -0.2673 -0.1570  0.2245
 2191TIP3    H130768   3.110   1.931  19.733 -0.2173 -1.5685 -0.0411
 2191TIP3    H230769   3.242   2.000  19.703 -0.5889 -0.3558  1.0449
 2192TIP3   OH230770   2.322   3.786  20.655  0.1193 -0.3458 -0.0457
 2192TIP3    H130771   2.331   3.826  20.741 -0.2650 -0.5659  0.1004
 2192TIP3    H230772   2.303   3.694  20.673  0.8414 -0.5652 -0.3712
 2193TIP3   OH230773   1.500   4.936  19.027 -0.4632 -0.6571  0.0273
 2193TIP3    H130774   1.476   5.028  19.035 -0.9903 -0.7575 -0.3614
 2193TIP3    H230775   1.554   4.918  19.104  2.0027  0.7023 -1.2481
 2194TIP3   OH230776   3.943   3.799  18.994  0.2090 -0.5479 -0.6268
 2194TIP3    H130777   3.918   3.722  19.045 -1.6773  0.6192  0.3544
 2194TIP3    H230778   3.970   3.864  19.060  1.2189 -0.1714 -1.3851
 2195TIP3   OH230779   3.363   2.669  20.147 -0.0577  0.5075  0.0652
 2195TIP3    H130780   3.299   2.648  20.079 -0.6786  2.1675  0.0850
 2195TIP3    H230781   3.344   2.608  20.217  0.5880 -1.2366 -1.2091
 2196TIP3   OH230782   4.465   0.389  17.717  0.0321  0.2276  0.0834
 2196TIP3    H130783   4.514   0.348  17.788  0.0729 -1.5445 -0.9090
 2196TIP3    H230784   4.430   0.469  17.755  0.3848 -0.4648  1.9758
 2197TIP3   OH230785   1.891   2.372  17.490  0.0304 -0.0789 -0.1468
 2197TIP3    H130786   1.918   2.329  17.408 -0.3509 -0.1233 -0.2553
 2197TIP3    H230787   1.943   2.452  17.494  0.2194 -0.1919 -0.3151
 2198TIP3   OH230788   0.352   4.041  18.538 -0.3488 -0.0236 -0.4009
 2198TIP3    H130789   0.390   3.975  18.596  1.0628  0.4144 -0.7825
 2198TIP3    H230790   0.289   4.088  18.593  0.5161 -0.0181  0.6134
 2199TIP3   OH230791   2.731   1.829  18.792  0.0283  0.3738 -0.0591
 2199TIP3    H130792   2.758   1.755  18.737 -0.8914  0.3286 -0.4661
 2199TIP3    H230793   2.720   1.792  18.879  0.8524  0.3105  0.0280
 2200TIP3   OH230794   2.013   2.429  19.441 -0.0361 -0.2556 -0.4335
 2200TIP3    H130795   2.056   2.436  19.356  0.9765 -0.0493  0.0841
 2200TIP3    H230796   1.985   2.519  19.461 -2.0119 -0.5923 -1.3961
 2201TIP3   OH230797   4.428   1.839  18.448 -0.4698  0.3183 -0.3288
 2201TIP3    H130798   4.516   1.804  18.432 -1.1434 -0.7030 -2.0818
 2201TIP3    H230799   4.444   1.924  18.490  1.3243 -0.0470 -0.1611
 2202TIP3   OH230800   0.221   4.744  17.812 -0.8275 -0.4589 -0.0832
 2202TIP3    H130801   0.138   4.792  17.813 -1.5085 -1.5379  2.1477
 2202TIP3    H230802   0.270   4.779  17.886  0.2784 -0.5952 -0.7209
 2203TIP3   OH230803   4.572   1.041  20.851 -0.6477  0.1232 -0.3519
 2203TIP3    H130804   4.480   1.068  20.847 -0.8880 -0.5931  0.1974
 2203TIP3    H230805   4.620   1.122  20.866 -0.9001  0.9738 -3.4620
 2204TIP3   OH230806   2.498   5.326  18.730 -0.2725  0.0239  0.1819
 2204TIP3    H130807   2.582   5.316  18.775 -0.5100  0.4788  0.7331
 2204TIP3    H230808   2.467   5.413  18.755 -1.6734 -0.7569  1.3054
 2205TIP3   OH230809   0.760   5.030  19.758  0.2836  0.5254 -0.1565
 2205TIP3    H130810   0.666   5.018  19.766  0.4901  0.1047  1.9511
 2205TIP3    H230811   0.798   4.986  19.834  2.0490  2.2100  0.0375
 2206TIP3   OH230812   6.208   4.426  20.624 -0.1602  0.2462 -0.0320
 2206TIP3    H130813   6.235   4.393  20.710 -0.4633  0.4243  0.1322
 2206TIP3    H230814   6.288   4.425  20.572  0.6452  2.5896  1.0099
 2207TIP3   OH230815   4.725   3.943  20.411 -0.2660  0.0159  0.6188
 2207TIP3    H130816   4.699   3.902  20.328  1.3377 -2.4078  1.1943
 2207TIP3    H230817   4.648   3.933  20.467 -0.4348 -0.8922  0.2521
 2208TIP3   OH230818   0.615   4.392  20.301  0.1088 -0.0058 -0.9084
 2208TIP3    H130819   0.595   4.486  20.310 -1.3974 -0.2070 -1.7028
 2208TIP3    H230820   0.605   4.358  20.390  1.3986  0.6939 -0.4697
 2209TIP3   OH230821   4.503   4.760  19.292 -0.3610  0.0713  0.1723
 2209TIP3    H130822   4.456   4.737  19.372 -2.3181  0.1507 -0.8980
 2209TIP3    H230823   4.446   4.822  19.247  1.4753  1.3734 -0.5091
 2210TIP3   OH230824   2.603   4.996  18.710 -0.3313  0.1497 -0.2416
 2210TIP3    H130825   2.513   4.966  18.714 -0.9100  1.4963 -1.8116
 2210TIP3    H230826   2.606   5.052  18.632  2.2527 -1.0915 -1.1549
 2211TIP3   OH230827   5.022   1.778  20.697 -0.4802 -0.3496  0.7943
 2211TIP3    H130828   4.978   1.842  20.752 -1.0737 -0.5620  0.5771
 2211TIP3    H230829   4.984   1.791  20.610  0.3650 -0.0914  0.4559
 2212TIP3   OH230830   6.711   5.409  19.782 -0.5504  0.2322 -0.2944
 2212TIP3    H130831   6.738   5.385  19.871 -0.8040 -0.1365 -0.3153
 2212TIP3    H230832   6.777   5.472  19.753  0.8869 -1.3979 -0.7256
 2213TIP3   OH230833   2.490   6.050  20.566 -0.0523 -0.0450 -0.3926
 2213TIP3    H130834   2.465   5.990  20.496 -0.6017 -0.0543 -0.1920
 2213TIP3    H230835   2.582   6.030  20.583  0.4066  0.6952 -1.8428
 2214TIP3   OH230836   3.991   1.615  19.494  0.4541  0.2736  0.9841
 2214TIP3    H130837   3.934   1.635  19.569 -0.4083  2.3913 -0.1539
 2214TIP3    H230838   4.042   1.695  19.481  1.8572 -0.6929  0.3727
 2215TIP3   OH230839   1.801   6.006  19.933 -0.4000 -0.2302 -0.5950
 2215TIP3    H130840   1.706   5.998  19.934 -0.2654 -2.6341 -1.1430
 2215TIP3    H230841   1.829   5.971  20.018 -0.0238  1.9045  0.2215
 2216TIP3   OH230842   4.117   4.690  20.740 -0.3605  0.4217  0.1440
 2216TIP3    H130843   4.040   4.712  20.687  0.2829  0.1073 -0.9521
 2216TIP3    H230844   4.173   4.768  20.734 -0.1474  0.2662  0.1045
 2217TIP3   OH230845   2.127   4.611  20.282  0.4905  0.2002 -0.2691
 2217TIP3    H130846   2.036   4.590  20.305  0.4409  0.0131 -0.6335
 2217TIP3    H230847   2.178   4.540  20.322  0.7315  1.6051  2.0693
 2218TIP3   OH230848   5.172   6.304  17.437 -0.3659  0.1275 -0.5132
 2218TIP3    H130849   5.185   6.298  17.343  1.7977  1.0487 -0.3134
 2218TIP3    H230850   5.178   6.214  17.468  0.9028  0.0241 -1.0345
 2219TIP3   OH230851   5.155   2.572  19.931 -0.2241  0.2377  0.0733
 2219TIP3    H130852   5.238   2.618  19.948 -0.3607  0.0636  1.3195
 2219TIP3    H230853   5.172   2.521  19.852  1.0037 -0.1113  0.5381
 2220TIP3   OH230854   6.368   0.748  17.651 -0.3094 -0.3179 -0.4456
 2220TIP3    H130855   6.419   0.671  17.625  0.3050 -0.2457  0.5125
 2220TIP3    H230856   6.432   0.805  17.695 -1.2875 -0.3776  1.1084
 2221TIP3   OH230857   2.986   5.259  19.280  0.3052 -0.1064  0.1300
 2221TIP3    H130858   2.990   5.183  19.222 -1.1974  0.4942 -0.8265
 2221TIP3    H230859   2.910   5.243  19.335 -0.3210  0.8859 -0.4049
 2222TIP3   OH230860   1.367   5.597  20.499  0.0547  0.0711  0.0349
 2222TIP3    H130861   1.275   5.568  20.494  0.0932  0.1161 -1.1042
 2222TIP3    H230862   1.408   5.562  20.420  1.2020 -0.5177  0.8616
 2223TIP3   OH230863   1.891   4.682  20.466 -0.6032 -0.0947 -0.2017
 2223TIP3    H130864   1.870   4.610  20.525  0.5663 -1.0145 -0.8616
 2223TIP3    H230865   1.936   4.746  20.522  1.0436 -1.2220 -0.1472
 2224TIP3   OH230866   1.446   1.894  17.398  0.2536 -0.2310 -0.6446
 2224TIP3    H130867   1.429   1.965  17.335 -0.3512 -0.4769 -0.7678
 2224TIP3    H230868   1.469   1.819  17.343  1.1666 -0.0589 -0.5019
 2225TIP3   OH230869   2.405   6.524  18.567  0.1899 -0.2814 -0.3349
 2225TIP3    H130870   2.335   6.579  18.532 -0.6660 -2.0614 -1.5381
 2225TIP3    H230871   2.476   6.532  18.503 -1.1267 -3.0012 -2.3340
 2226TIP3   OH230872   6.070   1.651  18.990 -0.5203  0.3043 -0.6353
 2226TIP3    H130873   5.999   1.590  19.009 -0.1881  0.3242  0.7763
 2226TIP3    H230874   6.066   1.715  19.062  1.2607 -0.0035 -0.2332
 2227TIP3   OH230875   6.417   0.750  17.009 -0.2897  0.0532  0.1883
 2227TIP3    H130876   6.401   0.711  16.923  0.2860  0.3185 -0.0402
 2227TIP3    H230877   6.471   0.686  17.055 -0.0849  0.1864  0.1324
 2228TIP3   OH230878   1.995   5.853  19.020 -0.2847  0.1414 -0.0999
 2228TIP3    H130879   1.916   5.858  18.967  0.1234 -0.1040 -0.7349
 2228TIP3    H230880   2.047   5.929  18.995 -0.2177  0.1873  0.1663
 2229TIP3   OH230881   6.065   6.138  18.944 -0.3660 -0.4018 -0.0999
 2229TIP3    H130882   6.034   6.210  18.999 -0.6327  0.5604 -1.4751
 2229TIP3    H230883   6.159   6.155  18.934 -0.3855 -0.3750 -0.2323
 2230TIP3   OH230884   4.380   4.708  20.939 -0.3054  0.3391 -0.0050
 2230TIP3    H130885   4.295   4.698  20.898 -0.3999  1.7268 -0.1689
 2230TIP3    H230886   4.414   4.791  20.906  0.8996  0.0465  0.4379
 2231TIP3   OH230887   5.487   6.135  17.546 -0.6010  0.0760 -0.5701
 2231TIP3    H130888   5.541   6.134  17.467 -0.2411 -0.5032 -0.3300
 2231TIP3    H230889   5.547   6.108  17.616 -0.9131  0.5856 -0.1009
 2232TIP3   OH230890   4.457   5.077  19.246  0.3022 -0.3747 -0.2198
 2232TIP3    H130891   4.448   5.158  19.197 -1.1909  0.0565  0.6664
 2232TIP3    H230892   4.526   5.095  19.310 -0.7109  0.5988  0.6472
 2233TIP3   OH230893   5.697   3.961  19.152  0.2308 -0.0766  0.6386
 2233TIP3    H130894   5.758   4.009  19.097 -1.5134  1.3225 -0.1820
 2233TIP3    H230895   5.753   3.907  19.209  2.1351 -1.0346 -1.9425
 2234TIP3   OH230896   3.906   6.656  18.564 -0.1407  0.0476  0.2897
 2234TIP3    H130897   3.921   6.743  18.527 -1.4465  0.4238  0.6210
 2234TIP3    H230898   3.891   6.600  18.487  1.5279 -0.0820  0.0263
 2235TIP3   OH230899   2.397   2.707  17.651  0.0302 -0.0584 -0.1423
 2235TIP3    H130900   2.491   2.690  17.656 -0.0181 -0.2530  0.1235
 2235TIP3    H230901   2.362   2.671  17.732 -0.3977 -0.7799 -0.6404
 2236TIP3   OH230902   4.426   0.011  19.145  0.2363  0.2168  0.4148
 2236TIP3    H130903   4.343   0.050  19.170  0.1972 -0.6641  1.7323
 2236TIP3    H230904   4.424   0.010  19.049 -1.4018 -0.1047  0.4317
 2237TIP3   OH230905   4.066   1.961  20.423  0.2148 -0.3616  0.5145
 2237TIP3    H130906   4.071   2.007  20.508  2.3973 -1.3447  0.9894
 2237TIP3    H230907   4.056   1.869  20.446  0.5385 -0.6074 -0.3080
 2238TIP3   OH230908   6.313   5.435  18.338 -0.3764  0.2641  0.5253
 2238TIP3    H130909   6.335   5.450  18.246  1.1381  0.4901  0.9037
 2238TIP3    H230910   6.338   5.344  18.354 -2.3190 -0.3531  0.2690
 2239TIP3   OH230911   1.050   4.378  18.850  0.1095 -0.3075  0.1540
 2239TIP3    H130912   1.019   4.449  18.905 -0.2282 -0.0668 -0.3436
 2239TIP3    H230913   1.136   4.407  18.820 -0.5532  0.4717 -1.0699
 2240TIP3   OH230914   3.506   2.482  18.038  0.1355  0.3167 -0.1807
 2240TIP3    H130915   3.554   2.549  17.990  0.6079  0.8797  1.0225
 2240TIP3    H230916   3.548   2.480  18.124  0.9486 -2.3845 -0.5532
 2241TIP3   OH230917   5.840   1.140  19.662 -0.3612 -0.2038 -0.0331
 2241TIP3    H130918   5.855   1.196  19.739  0.2175  1.4296 -1.2603
 2241TIP3    H230919   5.765   1.086  19.686 -0.6226  0.7408  1.4349
 2242TIP3   OH230920   5.990   4.525  18.254 -0.0818  0.2219  0.7291
 2242TIP3    H130921   5.990   4.581  18.332  2.9232 -1.5184  2.1524
 2242TIP3    H230922   5.940   4.447  18.280  0.6867 -0.2414  0.8369
 2243TIP3   OH230923   6.221   0.182  16.455 -0.2618  0.0029 -0.4291
 2243TIP3    H130924   6.208   0.275  16.439 -1.8054  0.3665  2.4264
 2243TIP3    H230925   6.135   0.143  16.446 -0.0374 -0.7624  0.5064
 2244TIP3   OH230926   4.114   6.570  19.648  0.1983 -0.4391  0.2489
 2244TIP3    H130927   4.124   6.516  19.726  2.2278 -0.2522  0.1762
 2244TIP3    H230928   4.200   6.611  19.636 -1.1203  2.5605  0.1036
 2245TIP3   OH230929   6.700   0.677  17.122  0.0080  0.1328 -0.3848
 2245TIP3    H130930   6.736   0.599  17.079 -1.7258 -0.1334 -1.4453
 2245TIP3    H230931   6.710   0.747  17.057 -0.7010  0.2192 -0.4048
 2246TIP3   OH230932   3.884   6.166  19.088 -0.2537 -0.2256 -0.4750
 2246TIP3    H130933   3.963   6.128  19.127 -1.5094 -1.2242  1.2582
 2246TIP3    H230934   3.843   6.214  19.160 -2.0376 -1.0844 -0.8542
 2247TIP3   OH230935   6.122   0.228  18.630 -0.2753 -0.1612 -0.4069
 2247TIP3    H130936   6.082   0.312  18.607 -0.0464  0.6017  1.6811
 2247TIP3    H230937   6.048   0.171  18.650 -0.4165 -0.1991 -1.0424
 2248TIP3   OH230938   6.229   3.353  17.735  0.2067 -0.1749  0.0693
 2248TIP3    H130939   6.200   3.263  17.716  1.6134 -1.2755  2.5888
 2248TIP3    H230940   6.154   3.408  17.712 -2.7085 -2.4889  3.0149
 2249TIP3   OH230941   3.892   5.485  18.746 -0.1248  0.0784 -0.7366
 2249TIP3    H130942   3.972   5.442  18.717  0.6149  0.7843  0.1614
 2249TIP3    H230943   3.881   5.559  18.686 -0.0729  0.0065 -0.8330
 2250TIP3   OH230944   5.172   1.590  18.441 -0.3933 -0.1678  0.9591
 2250TIP3    H130945   5.202   1.519  18.385  0.6070  0.0179  1.2399
 2250TIP3    H230946   5.178   1.556  18.530 -0.4171  0.0882  1.0607
 2251TIP3   OH230947   0.593   6.225  17.370 -0.3731 -0.2071  0.1650
 2251TIP3    H130948   0.602   6.130  17.361 -0.6539 -0.1414 -0.9779
 2251TIP3    H230949   0.499   6.239  17.373 -0.3482  0.0766 -0.2906
 2252TIP3   OH230950   4.117   6.598  20.168 -0.0197  0.2924 -0.1813
 2252TIP3    H130951   4.145   6.689  20.171 -0.8007  0.5090  1.1190
 2252TIP3    H230952   4.181   6.551  20.223 -0.2623  0.2389  0.0566
 2253TIP3   OH230953   5.126   0.254  20.301  0.1741 -0.1579  0.0531
 2253TIP3    H130954   5.135   0.160  20.313  1.3508  0.0548  1.0359
 2253TIP3    H230955   5.188   0.275  20.231 -0.2697 -0.1398 -0.3404
 2254TIP3   OH230956   4.819   1.970  19.878 -0.5305  0.0905  0.3718
 2254TIP3    H130957   4.880   2.018  19.933  1.3413 -1.1531 -0.5128
 2254TIP3    H230958   4.874   1.924  19.815 -2.3851 -1.1457 -0.4482
 2255TIP3   OH230959   6.021   6.245  18.493  0.2928  0.3164 -0.3614
 2255TIP3    H130960   6.056   6.223  18.407 -0.0524 -1.5751 -0.0671
 2255TIP3    H230961   6.095   6.237  18.552 -0.0381 -1.2926 -0.0990
 2256TIP3   OH230962   3.670   3.216  19.707 -0.1653 -0.0134 -0.1261
 2256TIP3    H130963   3.675   3.302  19.666  0.1074  0.0749  0.0888
 2256TIP3    H230964   3.578   3.191  19.701 -0.1013 -0.0679 -0.9266
 2257TIP3   OH230965   6.622   2.681  19.800  0.2882  0.0190 -0.0022
 2257TIP3    H130966   6.588   2.762  19.837 -0.9781 -0.3027 -0.4267
 2257TIP3    H230967   6.661   2.636  19.875 -0.1464  0.4325  0.4861
 2258TIP3   OH230968   6.597   5.635  19.499 -0.4249  0.3930 -0.3781
 2258TIP3    H130969   6.662   5.681  19.445  1.6687 -2.5365 -0.6152
 2258TIP3    H230970   6.594   5.685  19.580  1.5447  1.1246 -0.6923
 2259TIP3   OH230971   3.157   3.541  18.462 -0.1043  0.0509  0.7081
 2259TIP3    H130972   3.105   3.467  18.493 -0.7259  0.1457 -0.0832
 2259TIP3    H230973   3.135   3.549  18.369  1.7814 -0.2942  0.1836
 2260TIP3   OH230974   1.495   5.097  18.379 -0.0636 -0.2577 -0.3449
 2260TIP3    H130975   1.486   5.190  18.396 -0.1325 -0.1894 -0.7295
 2260TIP3    H230976   1.526   5.092  18.288  1.7061 -0.5631  0.2502
 2261TIP3   OH230977   1.641   0.299  17.337  0.2065  0.1174 -0.1663
 2261TIP3    H130978   1.625   0.249  17.258 -1.0439  0.7072 -0.3055
 2261TIP3    H230979   1.693   0.241  17.393 -0.4043 -0.9519 -0.6983
 2262TIP3   OH230980   1.992   6.047  18.651 -0.4553  0.1242 -0.0541
 2262TIP3    H130981   2.055   6.021  18.583  1.2241  1.4055  0.9344
 2262TIP3    H230982   1.921   6.089  18.603 -1.3608 -2.6138 -1.3342
 2263TIP3   OH230983   2.725   0.474  18.912  0.2799 -0.7329 -1.0508
 2263TIP3    H130984   2.651   0.527  18.882 -0.2946 -0.9908 -0.1411
 2263TIP3    H230985   2.796   0.497  18.853 -0.0449  0.8162 -0.8865
 2264TIP3   OH230986   2.495   5.843  20.761  0.5303  0.4890 -0.5857
 2264TIP3    H130987   2.424   5.889  20.716  0.1876  1.7528  1.1337
 2264TIP3    H230988   2.454   5.762  20.793  0.5887 -0.0577 -1.8628
 2265TIP3   OH230989   2.266   1.431  18.823  0.2550 -0.2538 -0.7452
 2265TIP3    H130990   2.358   1.431  18.850  0.1362  0.3053 -0.3277
 2265TIP3    H230991   2.223   1.372  18.884  0.0448  0.7628  0.1112
 2266TIP3   OH230992   6.560   4.869  18.213  0.1558  0.5489 -0.3485
 2266TIP3    H130993   6.552   4.794  18.155 -0.7688  1.0741 -0.9216
 2266TIP3    H230994   6.651   4.896  18.205  0.4792 -0.4535 -0.1846
 2267TIP3   OH230995   5.443   1.932  20.726 -0.9266 -0.2831 -0.0694
 2267TIP3    H130996   5.415   1.956  20.814 -0.8678 -0.2708 -0.0540
 2267TIP3    H230997   5.432   2.012  20.674  0.4703  0.1383  0.2645
 2268TIP3   OH230998   3.585   6.344  19.493  0.1557  0.8139 -0.5726
 2268TIP3    H130999   3.578   6.253  19.521 -0.2776  1.4221  1.4619
 2268TIP3    H231000   3.498   6.381  19.508  0.6384  1.8539 -0.2314
 2269TIP3   OH231001   0.481   6.695  19.684 -0.0297 -0.1042  0.3501
 2269TIP3    H131002   0.557   6.651  19.647  0.5891  0.6830  0.6459
 2269TIP3    H231003   0.511   6.785  19.700 -0.5205 -0.2016  1.9976
 2270TIP3   OH231004   4.696   1.100  20.565 -0.0431  0.4388 -0.0838
 2270TIP3    H131005   4.710   1.175  20.622 -1.2288  1.0821 -0.5988
 2270TIP3    H231006   4.730   1.026  20.614  0.8423  1.2546  0.5822
 2271TIP3   OH231007   5.635   5.357  18.686  0.0381 -0.1255 -0.1556
 2271TIP3    H131008   5.658   5.433  18.739 -0.1926  0.1561 -0.4522
 2271TIP3    H231009   5.701   5.291  18.708  1.6512  0.9220 -1.5859
 2272TIP3   OH231010   6.586   0.133  20.141 -0.4657  0.6660  0.2477
 2272TIP3    H131011   6.598   0.083  20.222 -0.8100  2.2623  1.3216
 2272TIP3    H231012   6.560   0.067  20.076  1.2781 -0.8968  1.0303
 2273TIP3   OH231013   4.274   5.797  19.126 -0.5232 -0.8311  0.3502
 2273TIP3    H131014   4.232   5.883  19.121  1.1163  0.0126  0.3365
 2273TIP3    H231015   4.237   5.757  19.205 -1.8096 -0.4197 -0.0134
 2274TIP3   OH231016   4.975   1.562  19.966  0.1054  0.1188 -0.0497
 2274TIP3    H131017   4.913   1.494  19.942 -1.5110  0.8224  1.8523
 2274TIP3    H231018   5.053   1.515  19.994  0.6342 -0.7746 -2.7556
 2275TIP3   OH231019   0.367   5.374  18.734 -0.2971 -0.0877  0.0580
 2275TIP3    H131020   0.423   5.297  18.734  1.2709  0.9720  2.0606
 2275TIP3    H231021   0.311   5.364  18.811  0.0731  0.8421  0.4668
 2276TIP3   OH231022   1.222   4.973  20.725 -0.5534  0.2830 -0.5899
 2276TIP3    H131023   1.261   4.904  20.670  0.4906  1.9365 -2.0089
 2276TIP3    H231024   1.184   4.925  20.799  1.5581 -1.7058 -0.6596
 2277TIP3   OH231025   0.806   1.338  17.994 -0.1362 -0.1515  0.4313
 2277TIP3    H131026   0.816   1.433  18.002  2.1248 -0.4271  1.5139
 2277TIP3    H231027   0.823   1.320  17.901  0.4264  0.4143  0.4159
 2278TIP3   OH231028   4.338   1.174  20.807  0.0725  0.1225 -0.3315
 2278TIP3    H131029   4.316   1.243  20.869 -0.6075 -0.2484 -0.1556
 2278TIP3    H231030   4.309   1.208  20.722 -3.5310 -1.2759  0.1493
 2279TIP3   OH231031   3.470   2.280  20.050 -0.6181 -0.6766  0.1896
 2279TIP3    H131032   3.395   2.332  20.077 -0.9436  1.1669 -3.5276
 2279TIP3    H231033   3.435   2.218  19.986  0.9484  0.3714 -1.7976
 2280TIP3   OH231034   2.024   5.631  19.269  0.5036 -0.3578 -0.2633
 2280TIP3    H131035   2.114   5.656  19.289 -0.2868  2.6300 -0.0100
 2280TIP3    H231036   2.004   5.678  19.188 -1.6219  1.2149  1.0880
 2281TIP3   OH231037   1.288   1.612  18.462  0.1478 -1.0956  0.2516
 2281TIP3    H131038   1.305   1.522  18.436 -0.4612 -2.3396  3.5991
 2281TIP3    H231039   1.244   1.604  18.547 -0.6158  2.3605  0.3283
 2282TIP3   OH231040   3.754   4.176  20.744 -0.0338  0.1330 -0.5670
 2282TIP3    H131041   3.753   4.167  20.649  0.1483  1.0333 -0.6639
 2282TIP3    H231042   3.662   4.176  20.769 -0.0954  0.3564 -0.7911
 2283TIP3   OH231043   4.893   6.661  18.713  0.0213 -0.2036  0.3748
 2283TIP3    H131044   4.825   6.720  18.747 -1.5195 -1.7549  0.1509
 2283TIP3    H231045   4.960   6.720  18.678 -0.5052  1.4135  1.8893
 2284TIP3   OH231046   3.378   0.846  17.275 -0.2361 -0.1123 -0.0186
 2284TIP3    H131047   3.354   0.758  17.248  0.1218 -0.1880 -0.0944
 2284TIP3    H231048   3.454   0.834  17.332 -0.8099  0.0628  0.8186
 2285TIP3   OH231049   2.177   4.214  20.673 -0.3485 -0.2839  0.2559
 2285TIP3    H131050   2.180   4.147  20.605  0.9696  1.1846 -1.1827
 2285TIP3    H231051   2.267   4.223  20.703 -0.6536  0.2382  1.0620
 2286TIP3   OH231052   4.424   5.250  18.732  0.3948 -0.3946  0.0721
 2286TIP3    H131053   4.376   5.201  18.799  0.0817 -0.9019 -0.5083
 2286TIP3    H231054   4.466   5.183  18.678  1.1803  0.0268  0.1454
 2287TIP3   OH231055   5.577   3.391  19.884  0.8380 -0.0444  0.5862
 2287TIP3    H131056   5.582   3.487  19.880  0.3602  0.0530  1.6930
 2287TIP3    H231057   5.575   3.372  19.978  0.1953 -1.0954  0.3731
 2288TIP3   OH231058   1.701   2.348  19.746  0.2096  0.0961  0.1022
 2288TIP3    H131059   1.783   2.340  19.697 -0.4374  0.7922 -1.1512
 2288TIP3    H231060   1.644   2.282  19.706 -0.6759  1.4013 -0.8722
 2289TIP3   OH231061   0.182   3.535  19.895 -0.1503 -0.3053  0.5436
 2289TIP3    H131062   0.164   3.595  19.823  0.2766  0.1675  0.8343
 2289TIP3    H231063   0.271   3.503  19.880 -0.6366 -1.4651 -0.0349
 2290TIP3   OH231064   4.005   6.088  20.000 -0.2135  0.0928 -0.4028
 2290TIP3    H131065   3.931   6.074  20.058 -0.5738  0.1671 -0.8380
 2290TIP3    H231066   3.968   6.133  19.923  0.5050  1.3356 -0.0578
 2291TIP3   OH231067   4.536   0.939  19.617  0.3183 -0.5085  0.2817
 2291TIP3    H131068   4.531   0.973  19.706 -2.5525 -0.5375  0.2363
 2291TIP3    H231069   4.469   0.988  19.569  2.0093 -0.2721 -1.9707
 2292TIP3   OH231070   6.319   0.848  18.778 -0.0556 -0.0798 -0.1972
 2292TIP3    H131071   6.237   0.893  18.795  1.3445  1.9901  1.5417
 2292TIP3    H231072   6.338   0.868  18.686 -0.6302  0.8864 -0.1182
 2293TIP3   OH231073   5.915   5.061  20.729 -0.0875  0.0586  0.0248
 2293TIP3    H131074   5.928   4.974  20.690 -0.0162 -0.7287  1.7458
 2293TIP3    H231075   5.840   5.051  20.786 -0.6067  1.3772 -0.3931
 2294TIP3   OH231076   3.816   1.449  18.948  0.0854 -0.1080  0.4074
 2294TIP3    H131077   3.761   1.454  18.870  0.0016 -1.2305  0.3842
 2294TIP3    H231078   3.769   1.391  19.008  1.4800 -1.5397  0.1719
 2295TIP3   OH231079   0.370   2.516  20.471 -0.2742  0.0239 -0.2000
 2295TIP3    H131080   0.353   2.565  20.552  0.8125  3.1108 -1.6676
 2295TIP3    H231081   0.428   2.445  20.499  0.5727  1.3469  1.7211
 2296TIP3   OH231082   4.681   2.452  19.912  0.4140 -0.0397  0.4118
 2296TIP3    H131083   4.709   2.544  19.912  0.6407 -0.0562 -1.7858
 2296TIP3    H231084   4.759   2.403  19.887 -0.3559 -0.5185 -1.1987
 2297TIP3   OH231085   2.019   4.339  19.577 -0.2867 -0.3583  0.5624
 2297TIP3    H131086   2.071   4.301  19.506  1.4670  0.8772  1.0915
 2297TIP3    H231087   1.928   4.324  19.551  0.3015 -1.0342 -1.3264
 2298TIP3   OH231088   0.922   4.134  18.771 -0.0299  0.1458  0.0071
 2298TIP3    H131089   0.950   4.221  18.800  0.4051  0.2406 -0.6585
 2298TIP3    H231090   1.001   4.096  18.732 -0.2593 -0.4885  0.1538
 2299TIP3   OH231091   6.720   2.926  18.420  0.0069  0.7829  0.7697
 2299TIP3    H131092   6.800   2.944  18.469  0.3594  0.2425  0.4022
 2299TIP3    H231093   6.747   2.927  18.328 -0.1266 -0.6604  0.6873
 2300TIP3   OH231094   3.926   2.595  17.522 -0.2567 -0.2116 -0.0037
 2300TIP3    H131095   3.992   2.550  17.470 -0.6101 -1.9442  0.9834
 2300TIP3    H231096   3.895   2.530  17.585  0.6724  1.9728  2.9328
 2301TIP3   OH231097   4.928   1.792  20.105  0.2931  0.0110 -0.6928
 2301TIP3    H131098   4.854   1.808  20.046 -0.6706  1.0166  0.7092
 2301TIP3    H231099   4.958   1.704  20.082 -0.2231  0.2496 -2.4602
 2302TIP3   OH231100   5.036   2.103  20.027  0.8022  0.3207 -0.1455
 2302TIP3    H131101   5.068   2.039  20.090  1.2460 -0.2985 -0.9811
 2302TIP3    H231102   4.964   2.147  20.072 -0.6168 -1.8917 -0.1258
 2303TIP3   OH231103   2.247   5.855  20.419  0.5559 -0.2128  0.0008
 2303TIP3    H131104   2.177   5.791  20.409  1.4542 -1.2012 -0.2094
 2303TIP3    H231105   2.327   5.802  20.422  1.4019  0.9454 -1.0365
 2304TIP3   OH231106   3.965   3.887  19.477 -0.4014  0.5392 -0.3779
 2304TIP3    H131107   4.049   3.932  19.488 -0.9180  1.2486  0.7601
 2304TIP3    H231108   3.911   3.948  19.427 -0.7211  0.6966  0.1586
 2305TIP3   OH231109   2.826   3.622  19.862 -0.5541 -0.5729  0.0221
 2305TIP3    H131110   2.910   3.653  19.829  1.2528 -2.1622  2.7454
 2305TIP3    H231111   2.792   3.565  19.793  0.8459 -0.3132 -0.9187
 2306TIP3   OH231112   0.588   4.056  20.782  0.0128 -0.5518  0.2013
 2306TIP3    H131113   0.537   4.123  20.827 -1.0056 -0.5014 -0.9594
 2306TIP3    H231114   0.675   4.095  20.771 -0.0948 -0.0777  0.9775
 2307TIP3   OH231115   3.392   3.911  18.420 -0.1876  0.0275 -0.0502
 2307TIP3    H131116   3.402   3.816  18.431  1.2716  0.1609 -0.0326
 2307TIP3    H231117   3.480   3.942  18.397 -0.7966  1.2875 -0.7913
 2308TIP3   OH231118   6.414   0.529  20.004  0.2791  0.5148 -0.3722
 2308TIP3    H131119   6.501   0.492  20.016 -0.4755 -2.0170 -1.9802
 2308TIP3    H231120   6.375   0.528  20.091  0.6527 -1.7141 -0.1772
 2309TIP3   OH231121   0.934   3.713  18.310  0.2328  0.2225  0.3371
 2309TIP3    H131122   0.922   3.646  18.377 -2.8282 -0.6481 -0.9049
 2309TIP3    H231123   0.892   3.791  18.345  0.3531  0.3520  0.2006
 2310TIP3   OH231124   3.324   0.061  18.597 -0.3146  0.5303 -0.1879
 2310TIP3    H131125   3.305  -0.031  18.614 -0.5410  0.4892 -0.6369
 2310TIP3    H231126   3.253   0.108  18.641 -0.6633  0.4466 -0.6540
 2311TIP3   OH231127   5.799   5.465  18.905 -0.4709  0.2694 -0.4465
 2311TIP3    H131128   5.823   5.524  18.977 -1.2952  0.2031 -0.1059
 2311TIP3    H231129   5.848   5.385  18.923 -0.5615  0.3032 -0.0289
 2312TIP3   OH231130   6.026   2.429  18.964 -0.8213  0.3936 -0.4897
 2312TIP3    H131131   6.036   2.351  18.909  1.0189  2.4956 -3.4149
 2312TIP3    H231132   6.095   2.421  19.030 -0.3793 -0.2453 -1.0210
 2313TIP3   OH231133   2.652   5.660  17.460 -0.1639 -1.0912 -0.0125
 2313TIP3    H131134   2.711   5.699  17.395 -1.8491  1.9815  0.1287
 2313TIP3    H231135   2.564   5.683  17.429 -1.1021  3.1133  4.5712
 2314TIP3   OH231136   3.938   0.418  19.544 -0.2774  0.5802  0.0221
 2314TIP3    H131137   3.870   0.444  19.481  0.7527 -0.9996 -1.8619
 2314TIP3    H231138   4.001   0.369  19.491  1.0854 -0.1060  2.1845
 2315TIP3   OH231139   5.163   3.601  19.605 -0.0080  0.2483  0.0436
 2315TIP3    H131140   5.152   3.554  19.688  0.3372  0.8090  0.4111
 2315TIP3    H231141   5.074   3.612  19.572 -0.2432  1.0027  0.8932
 2316TIP3   OH231142   6.477   0.989  20.261  0.3226 -0.0049  0.2613
 2316TIP3    H131143   6.401   0.972  20.206 -0.3727 -0.2171  1.2495
 2316TIP3    H231144   6.483   0.913  20.319 -0.9002  1.5499  2.5949
 2317TIP3   OH231145   2.918   2.922  18.175 -0.0960  0.5117 -0.5798
 2317TIP3    H131146   2.960   2.871  18.105  0.6342 -1.4799  1.2229
 2317TIP3    H231147   2.964   2.896  18.254 -3.5067 -0.3827  1.2788
 2318TIP3   OH231148   1.885   2.924  18.369  0.0897 -0.8309 -0.1315
 2318TIP3    H131149   1.963   2.925  18.426  0.0386  0.4704 -0.0652
 2318TIP3    H231150   1.820   2.974  18.417  0.4745  1.5328 -1.8916
 2319TIP3   OH231151   6.060   4.187  18.503  0.2468  0.0900  0.2450
 2319TIP3    H131152   6.143   4.199  18.456  0.3408 -1.0626  0.0839
 2319TIP3    H231153   6.075   4.230  18.588  0.4274  1.2974 -0.3793
 2320TIP3   OH231154   5.077   5.592  19.809  0.0822 -0.2927  0.3534
 2320TIP3    H131155   5.003   5.531  19.803 -0.5382  0.5810 -2.9470
 2320TIP3    H231156   5.141   5.559  19.746  0.5261  1.3629 -0.1302
 2321TIP3   OH231157   5.317   2.662  20.229  0.2152  0.6684 -0.0689
 2321TIP3    H131158   5.352   2.671  20.140 -0.6895  0.1845 -0.4929
 2321TIP3    H231159   5.223   2.646  20.216  0.0295  0.8316  0.9876
 2322TIP3   OH231160   2.812   3.451  19.268 -0.4176  0.0750  0.5554
 2322TIP3    H131161   2.904   3.476  19.270 -0.3555  0.1037 -1.4416
 2322TIP3    H231162   2.810   3.365  19.312  0.5414  0.0871  0.6391
 2323TIP3   OH231163   2.363   5.997  17.492  1.0531  0.3732 -0.3930
 2323TIP3    H131164   2.329   6.059  17.427  0.0752 -1.2052 -1.4641
 2323TIP3    H231165   2.292   5.987  17.555  0.3824 -1.1100 -1.3203
 2324TIP3   OH231166   5.181   4.149  17.935 -0.5898 -0.1648 -0.2336
 2324TIP3    H131167   5.227   4.115  17.858 -0.5168  1.1948 -0.8240
 2324TIP3    H231168   5.247   4.203  17.979 -1.0276  0.1470  0.0399
 2325TIP3   OH231169   0.832   3.718  18.657 -0.3221  0.2019 -0.2176
 2325TIP3    H131170   0.791   3.757  18.734  0.9431  2.7034 -0.7195
 2325TIP3    H231171   0.759   3.686  18.604 -1.4878  1.9611  0.2364
 2326TIP3   OH231172   3.903   4.529  17.222  0.4428  0.0328  0.3464
 2326TIP3    H131173   3.881   4.482  17.142 -1.0897 -0.2372  0.9040
 2326TIP3    H231174   3.964   4.597  17.193 -0.5467  0.3333 -1.1623
 2327TIP3   OH231175   3.234   0.566  20.231 -0.3131 -0.2554  0.1736
 2327TIP3    H131176   3.155   0.584  20.181 -0.7106 -0.2187  0.8003
 2327TIP3    H231177   3.222   0.476  20.261 -0.4557 -0.0147  0.8620
 2328TIP3   OH231178   0.209   3.287  20.188 -0.2275 -0.2783  0.1273
 2328TIP3    H131179   0.287   3.337  20.164 -0.7561  0.2498 -0.5507
 2328TIP3    H231180   0.167   3.339  20.256  0.2883 -0.8356  0.8831
 2329TIP3   OH231181   6.123   3.471  11.831  0.9625 -0.1492 -0.0684
 2329TIP3    H131182   6.142   3.434  11.745  1.5714 -0.6957  0.2904
 2329TIP3    H231183   6.091   3.560  11.813  0.1660 -0.5893 -0.9014
 2330TIP3   OH231184   4.136   4.197  20.574 -0.6324  0.2504  0.3161
 2330TIP3    H131185   4.139   4.171  20.666  0.6015  2.4116  0.9619
 2330TIP3    H231186   4.148   4.115  20.526 -0.3103 -0.8025  2.0883
 2331TIP3   OH231187   2.713   0.327  20.330 -0.1132 -0.2776  0.7308
 2331TIP3    H131188   2.798   0.289  20.306  0.1359  0.4972  0.3564
 2331TIP3    H231189   2.686   0.376  20.252 -1.0099 -0.6862  0.7699
 2332TIP3   OH231190   5.382   5.686  19.775  0.1356  0.4478  0.0701
 2332TIP3    H131191   5.306   5.698  19.832  0.2769  0.5017  0.2477
 2332TIP3    H231192   5.376   5.595  19.746 -0.4126  0.6652 -0.5216
 2333TIP3   OH231193   5.267   4.812  18.917  1.0427 -0.1000 -0.4745
 2333TIP3    H131194   5.260   4.907  18.904 -0.1120 -0.0842  0.1446
 2333TIP3    H231195   5.190   4.789  18.969  1.9510 -1.1944  0.4402
 2334TIP3   OH231196   1.725   4.196  19.233 -0.0822  0.0450 -0.2371
 2334TIP3    H131197   1.701   4.122  19.177 -0.7113 -0.3286  0.5180
 2334TIP3    H231198   1.707   4.273  19.180 -1.5583 -0.2784 -0.2282
 2335TIP3   OH231199   5.224   2.878  19.381 -0.1810 -0.0742  0.3560
 2335TIP3    H131200   5.270   2.806  19.423  2.8199  2.2900  1.5216
 2335TIP3    H231201   5.180   2.924  19.452 -0.3623  0.3811 -0.0372
 2336TIP3   OH231202   5.040   3.884  17.942  0.4992  0.4606  0.0828
 2336TIP3    H131203   5.094   3.938  18.000 -1.9187  2.3616  0.7124
 2336TIP3    H231204   5.073   3.903  17.854  1.7878  0.4195  0.5362
 2337TIP3   OH231205   1.204   1.622  19.082 -0.2487 -0.1617  0.1660
 2337TIP3    H131206   1.212   1.607  19.176 -0.0713 -0.7601  0.0572
 2337TIP3    H231207   1.132   1.565  19.054 -0.7128  0.4645  0.0358
 2338TIP3   OH231208   1.196   2.080  18.112  0.4180  0.3961 -0.3208
 2338TIP3    H131209   1.288   2.076  18.138  0.1086  0.6576  0.8651
 2338TIP3    H231210   1.182   2.172  18.089  0.2776  0.5034  0.1866
 2339TIP3   OH231211   5.574   1.552  20.589  0.1377 -0.2319 -0.6210
 2339TIP3    H131212   5.588   1.464  20.554  1.0322 -1.3691  2.3086
 2339TIP3    H231213   5.482   1.551  20.618  0.4692 -0.6570  0.4673
 2340TIP3   OH231214   1.426   6.641  19.915 -0.6081  0.3348 -0.3472
 2340TIP3    H131215   1.367   6.569  19.934  0.3105 -0.5854 -0.9000
 2340TIP3    H231216   1.401   6.710  19.977 -1.7423 -0.3058 -0.0711
 2341TIP3   OH231217   1.200   2.920  17.936 -0.1870  0.0396  0.0562
 2341TIP3    H131218   1.235   2.983  17.873 -1.1871  0.7756  0.2126
 2341TIP3    H231219   1.194   2.838  17.886  0.8400  0.1309 -0.2368
 2342TIP3   OH231220   1.359   0.490  20.750 -0.3259  0.3958  0.0463
 2342TIP3    H131221   1.269   0.491  20.783 -0.7443 -0.6642 -1.0031
 2342TIP3    H231222   1.356   0.543  20.670 -0.7556 -2.0003 -1.6571
 2343TIP3   OH231223   6.351   6.517  19.267 -0.2141 -0.1997  0.0198
 2343TIP3    H131224   6.388   6.585  19.210  1.1473 -2.3406 -1.9010
 2343TIP3    H231225   6.384   6.538  19.354  0.9497  1.0672 -0.6796
 2344TIP3   OH231226   6.100   4.095  19.271 -0.0701  0.4286 -0.1531
 2344TIP3    H131227   6.023   4.141  19.304 -0.3381 -0.0286 -0.1276
 2344TIP3    H231228   6.173   4.129  19.322 -0.6642 -1.4053  2.0723
 2345TIP3   OH231229   3.559   4.819  18.196  0.2157  0.1267 -0.3687
 2345TIP3    H131230   3.585   4.821  18.104  1.1086  2.3959 -0.1456
 2345TIP3    H231231   3.641   4.825  18.245 -0.1974 -1.6176  0.6443
 2346TIP3   OH231232   5.242   6.224  17.807  0.3750 -0.0818 -0.4388
 2346TIP3    H131233   5.297   6.284  17.857 -1.6946  0.8483  0.8724
 2346TIP3    H231234   5.295   6.144  17.798  2.3905  1.1923 -0.4096
 2347TIP3   OH231235   1.102   1.271  19.263  1.3557  0.4982 -0.2616
 2347TIP3    H131236   1.078   1.318  19.342  2.1948  0.9956 -0.2928
 2347TIP3    H231237   1.185   1.228  19.284  0.9112 -0.4832 -0.4325
 2348TIP3   OH231238   2.893   2.244  20.451  0.0727  0.1963  0.7589
 2348TIP3    H131239   2.987   2.259  20.466  0.0661 -0.7880  1.9829
 2348TIP3    H231240   2.852   2.274  20.532 -0.5627 -0.3869  0.6548
 2349TIP3   OH231241   2.377   3.997  19.944 -0.0694  1.3215  0.2758
 2349TIP3    H131242   2.319   4.062  19.984 -0.3423  1.0594  0.3087
 2349TIP3    H231243   2.396   4.032  19.857  0.5708  1.9207  0.6412
 2350TIP3   OH231244   0.584   3.193  18.697  0.0702 -0.1688 -0.3070
 2350TIP3    H131245   0.586   3.287  18.683 -0.3798 -0.0409  0.4366
 2350TIP3    H231246   0.676   3.166  18.698  0.3783  0.7264  2.4252
 2351TIP3   OH231247   3.496   0.743  17.702 -0.8536 -0.0770  0.1299
 2351TIP3    H131248   3.498   0.707  17.791 -0.3210  1.4452  0.7576
 2351TIP3    H231249   3.411   0.787  17.696 -0.4577  0.7142  0.2593
 2352TIP3   OH231250   1.993   2.651  17.228  0.3876 -0.0533  0.7008
 2352TIP3    H131251   2.013   2.648  17.134 -0.4818  0.1709  0.4992
 2352TIP3    H231252   1.907   2.608  17.235 -0.2191  1.2087  1.1982
 2353TIP3   OH231253   2.600   5.231  17.832 -0.0217 -0.3380 -0.3392
 2353TIP3    H131254   2.612   5.136  17.825 -2.0695 -0.8736  1.9994
 2353TIP3    H231255   2.519   5.249  17.785 -0.5208 -0.0522  0.6005
 2354TIP3   OH231256   6.211   5.448  19.970  0.5937 -0.0679  0.4298
 2354TIP3    H131257   6.188   5.365  20.011 -1.5697  0.8419  1.1759
 2354TIP3    H231258   6.283   5.482  20.024  0.6878 -0.8883  0.8339
 2355TIP3   OH231259   5.417   6.591  20.099  0.5022 -0.3086  0.4307
 2355TIP3    H131260   5.490   6.628  20.050  0.7778 -1.1571  0.1773
 2355TIP3    H231261   5.339   6.623  20.054  0.7509 -1.0499 -0.5751
 2356TIP3   OH231262   3.027   4.819  19.481 -0.2705  0.1793  0.1063
 2356TIP3    H131263   3.002   4.750  19.420 -0.4970 -0.0999  0.5045
 2356TIP3    H231264   3.089   4.874  19.433 -0.8162  0.2434 -0.5360
 2357TIP3   OH231265   6.248   3.137  19.836 -0.8393  0.4974 -0.4465
 2357TIP3    H131266   6.307   3.188  19.892  1.5311 -0.8400 -1.5706
 2357TIP3    H231267   6.277   3.156  19.747  1.3318 -3.7828 -0.9471
 2358TIP3   OH231268   1.264   6.409  20.050 -0.7991  0.2434  0.4261
 2358TIP3    H131269   1.171   6.391  20.032 -0.3281 -0.2498 -1.7777
 2358TIP3    H231270   1.288   6.344  20.115 -1.5063 -1.0209 -0.5216
 2359TIP3   OH231271   2.903   0.662  19.406 -0.5793  0.2539 -0.4627
 2359TIP3    H131272   2.857   0.656  19.489 -1.1129  1.8882 -0.6171
 2359TIP3    H231273   2.839   0.634  19.341  0.3840 -2.8402 -0.2473
 2360TIP3   OH231274   5.848   1.688  17.729  0.1399 -0.1215  0.5587
 2360TIP3    H131275   5.876   1.650  17.646 -0.7333  3.8232 -1.8301
 2360TIP3    H231276   5.758   1.656  17.741 -1.0317  1.8100 -2.0245
 2361TIP3   OH231277   6.380   2.586  18.980  0.1349 -0.1069 -0.0356
 2361TIP3    H131278   6.351   2.496  18.963  1.1450 -0.5456  0.4336
 2361TIP3    H231279   6.468   2.590  18.944  0.8722  0.0676  1.6838
 2362TIP3   OH231280   1.290   4.933  18.176 -0.5731 -0.5377  0.6219
 2362TIP3    H131281   1.358   4.965  18.236  1.7242 -1.8902 -1.0932
 2362TIP3    H231282   1.299   4.990  18.099 -0.9277 -1.1369  0.1327
 2363TIP3   OH231283   2.554   1.186  17.353  0.5734  0.0969 -0.3744
 2363TIP3    H131284   2.603   1.249  17.301 -1.8438  1.9941 -0.5340
 2363TIP3    H231285   2.514   1.127  17.289  0.2932  0.3541 -0.4356
 2364TIP3   OH231286   0.195   0.200  20.671 -0.0485 -0.3425 -0.4897
 2364TIP3    H131287   0.239   0.158  20.745 -1.1971 -1.3328 -0.3492
 2364TIP3    H231288   0.144   0.131  20.630 -2.4386  0.9529  0.0786
 2365TIP3   OH231289   2.312   2.078  18.071  0.5281  0.4427  0.3655
 2365TIP3    H131290   2.225   2.049  18.095  0.4811 -2.2836 -2.4997
 2365TIP3    H231291   2.308   2.174  18.075 -3.3235  0.5458 -1.7537
 2366TIP3   OH231292   2.503   2.284  18.310  0.5277  0.1508  0.5247
 2366TIP3    H131293   2.482   2.192  18.328  0.7955 -0.2227 -0.9546
 2366TIP3    H231294   2.523   2.286  18.216  0.1330  1.7966  0.4504
 2367TIP3   OH231295   2.360   2.464  20.083 -0.2550 -0.3112 -0.0426
 2367TIP3    H131296   2.296   2.450  20.013  0.0058 -0.3404 -0.2752
 2367TIP3    H231297   2.389   2.555  20.071  1.1710 -0.8764 -1.1307
 2368TIP3   OH231298   3.797   1.947  18.005 -0.3241  0.4735  0.0570
 2368TIP3    H131299   3.715   1.899  18.016 -0.5005  0.7763  0.0639
 2368TIP3    H231300   3.848   1.925  18.083 -0.5720  0.6219  0.2628
 2369TIP3   OH231301   3.125   5.869  18.309 -0.5532  0.8010 -0.0953
 2369TIP3    H131302   3.218   5.863  18.329 -0.4578  1.9577 -0.1440
 2369TIP3    H231303   3.083   5.881  18.394 -0.4819  2.1151 -0.2383
 2370TIP3   OH231304   5.423   0.957  19.563 -0.0075  0.3057 -0.4670
 2370TIP3    H131305   5.448   0.980  19.473  0.7238 -0.2663 -0.4258
 2370TIP3    H231306   5.449   0.865  19.572  0.3106  0.4784  0.4581
 2371TIP3   OH231307   1.204   2.629  18.100 -0.9390  0.1836  0.1390
 2371TIP3    H131308   1.250   2.688  18.161 -0.9658  0.4434 -0.0916
 2371TIP3    H231309   1.234   2.656  18.014 -0.3546 -0.6470  0.0678
 2372TIP3   OH231310   5.378   1.268  19.481 -1.0753  0.0531 -0.0257
 2372TIP3    H131311   5.328   1.189  19.459  0.5524 -0.7877 -0.8811
 2372TIP3    H231312   5.469   1.239  19.486 -0.4355  1.8601 -0.2811
 2373TIP3   OH231313   1.473   0.057  20.711  0.1290  0.0885  0.4138
 2373TIP3    H131314   1.557   0.065  20.755  2.1415  1.9322 -3.3117
 2373TIP3    H231315   1.422   0.132  20.741 -0.2698 -0.9417  2.5449
 2374TIP3   OH231316   6.284   1.158  19.010  0.1039 -0.1729  0.3831
 2374TIP3    H131317   6.295   1.074  19.054  2.2494 -0.5689 -0.7897
 2374TIP3    H231318   6.199   1.190  19.041 -0.3011 -2.2720  1.6421
 2375TIP3   OH231319   3.091   6.567  19.312  0.1606 -0.0090  0.1095
 2375TIP3    H131320   3.080   6.503  19.382  0.5081  0.3584  0.5084
 2375TIP3    H231321   3.170   6.541  19.267 -0.2655 -0.4611 -0.3849
 2376TIP3   OH231322   4.233   4.961  20.038 -0.1773  0.1202 -0.2235
 2376TIP3    H131323   4.274   4.880  20.009 -0.2947  0.5409 -1.6750
 2376TIP3    H231324   4.224   4.952  20.133  1.9845 -0.5591 -0.0411
 2377TIP3   OH231325   0.101   6.706  20.594 -0.4199 -0.2008  0.0196
 2377TIP3    H131326   0.017   6.751  20.596  0.3029  1.2410 -0.5037
 2377TIP3    H231327   0.079   6.614  20.581 -1.8586  0.3010 -1.3509
 2378TIP3   OH231328   3.994   0.689  19.697  0.0103 -0.0277 -0.2252
 2378TIP3    H131329   3.919   0.633  19.719 -1.0108  1.3259 -0.0999
 2378TIP3    H231330   4.049   0.635  19.640 -0.0630 -1.7211  1.2575
 2379TIP3   OH231331   0.440   1.766  19.562 -0.1177 -0.6331 -0.5078
 2379TIP3    H131332   0.459   1.690  19.616 -0.6087 -0.5323 -0.1893
 2379TIP3    H231333   0.497   1.757  19.486  1.5723 -0.0864  0.6464
 2380TIP3   OH231334   1.998   4.628  18.962  0.0178 -0.4599  0.4234
 2380TIP3    H131335   1.962   4.573  19.032 -0.6032  0.3563  0.7595
 2380TIP3    H231336   1.941   4.612  18.887 -1.7505  1.5931  1.2408
 2381TIP3   OH231337   2.711   0.038  17.419  0.1218 -0.0695  0.6682
 2381TIP3    H131338   2.788   0.091  17.397 -0.9212  1.6870  1.0827
 2381TIP3    H231339   2.709   0.037  17.515  0.2851 -1.1625  0.6805
 2382TIP3   OH231340   5.565   0.371  17.647  0.5668  0.0798  0.2188
 2382TIP3    H131341   5.490   0.326  17.607  1.1092 -1.1415  0.5347
 2382TIP3    H231342   5.618   0.399  17.573 -0.2703  1.0877 -0.0152
 2383TIP3   OH231343   1.803   3.933  18.104 -0.2620 -0.5663  0.2642
 2383TIP3    H131344   1.821   3.844  18.074  0.5381 -0.5687  0.7179
 2383TIP3    H231345   1.833   3.989  18.032  0.8898 -0.6041  0.6959
 2384TIP3   OH231346   6.480   4.605  20.136 -0.3495  0.0585  0.1565
 2384TIP3    H131347   6.478   4.519  20.093 -0.0652  0.0010  0.2571
 2384TIP3    H231348   6.405   4.603  20.196 -1.8073  0.7708 -1.5271
 2385TIP3   OH231349   1.225   2.000  20.432 -0.4349 -0.3385  0.4913
 2385TIP3    H131350   1.286   1.964  20.497  0.9999 -2.2509 -1.7336
 2385TIP3    H231351   1.281   2.029  20.360 -2.0540 -0.5841 -0.9270
 2386TIP3   OH231352   3.233   1.308  17.966 -0.3837 -0.0510  0.1949
 2386TIP3    H131353   3.250   1.351  17.883 -0.2972  0.2079  0.3469
 2386TIP3    H231354   3.156   1.351  18.001 -1.0461 -0.8557 -0.2319
 2387TIP3   OH231355   0.857   0.817  17.892  0.2986 -0.7403  0.2917
 2387TIP3    H131356   0.830   0.906  17.915  1.3235 -0.2162 -0.4615
 2387TIP3    H231357   0.939   0.803  17.939  1.5093 -0.2957 -1.5947
 2388TIP3   OH231358   2.288   6.580  18.108  0.2339  0.4012 -0.0350
 2388TIP3    H131359   2.377   6.590  18.140  0.5070 -0.6703 -0.4481
 2388TIP3    H231360   2.284   6.636  18.030 -0.0627  2.0108  1.0831
 2389TIP3   OH231361   3.054   1.679  17.810 -0.1375 -0.1199 -0.0196
 2389TIP3    H131362   3.041   1.660  17.717  0.4438 -0.8893  0.0430
 2389TIP3    H231363   3.142   1.717  17.814  0.5684 -1.7041  0.4041
 2390TIP3   OH231364   0.141   1.311  19.014 -0.7393 -0.6257  0.2404
 2390TIP3    H131365   0.155   1.404  18.994  0.1266 -1.0868 -1.5389
 2390TIP3    H231366   0.087   1.311  19.092 -0.7087  1.3834  0.3151
 2391TIP3   OH231367   5.563   0.589  17.860  0.1983  0.1256 -0.0771
 2391TIP3    H131368   5.494   0.534  17.822  0.5620  0.4644 -1.2681
 2391TIP3    H231369   5.606   0.628  17.784  2.8729 -1.4646  0.5161
 2392TIP3   OH231370   4.301   1.012  20.493  0.3099  0.4286 -0.3439
 2392TIP3    H131371   4.304   0.959  20.573  3.3309  1.4880  0.4021
 2392TIP3    H231372   4.208   1.031  20.480 -0.6493 -2.8079  0.7958
 2393TIP3   OH231373   4.596   0.385  19.770  0.3127  0.0056  0.0851
 2393TIP3    H131374   4.590   0.394  19.865  1.9052 -0.3341  0.2314
 2393TIP3    H231375   4.643   0.303  19.756 -0.4715 -0.2798 -1.0194
 2394TIP3   OH231376   4.105   5.062  20.273  0.0749 -0.0734  0.4773
 2394TIP3    H131377   4.172   5.096  20.332  1.0116  1.1338 -1.1733
 2394TIP3    H231378   4.082   5.137  20.218  0.4111 -1.4935 -1.7179
 2395TIP3   OH231379   4.259   1.118  18.322  0.0104  0.3240 -0.0521
 2395TIP3    H131380   4.313   1.054  18.274 -1.6210 -2.3587  1.4220
 2395TIP3    H231381   4.197   1.150  18.257 -0.7998 -1.6405 -0.3254
 2396TIP3   OH231382   1.290   1.304  16.970 -0.2044 -0.4628 -0.4746
 2396TIP3    H131383   1.298   1.365  17.044 -1.1599 -2.0728  1.0429
 2396TIP3    H231384   1.253   1.357  16.900  0.8986  1.1692  0.1141
 2397TIP3   OH231385   5.206   1.063  18.332 -0.1717  0.3393 -0.3572
 2397TIP3    H131386   5.198   1.136  18.393 -0.4292  0.4366 -0.5053
 2397TIP3    H231387   5.260   1.097  18.261  0.8345 -0.0331  0.2073
 2398TIP3   OH231388   0.073   2.574  20.013  0.5622 -0.0350 -0.5464
 2398TIP3    H131389   0.136   2.562  20.084 -1.0158 -0.1425  0.8991
 2398TIP3    H231390   0.105   2.651  19.966  1.5359  0.1779  0.4174
 2399TIP3   OH231391   0.382   6.720  17.894  0.4792 -0.3301  0.0945
 2399TIP3    H131392   0.288   6.706  17.898  0.0717  2.0912  0.3857
 2399TIP3    H231393   0.419   6.633  17.878 -1.9269 -1.0167 -2.3012
 2400TIP3   OH231394   3.580   5.210  19.899  0.4832  0.3740 -0.3968
 2400TIP3    H131395   3.612   5.121  19.908 -0.5308 -0.1509 -1.6362
 2400TIP3    H231396   3.492   5.200  19.862 -0.7996  1.7606  1.9855
 2401TIP3   OH231397   0.666   5.952  20.885  0.2976 -0.2150  0.5092
 2401TIP3    H131398   0.599   5.938  20.951  0.0370  0.6748  0.4425
 2401TIP3    H231399   0.698   5.864  20.864 -1.7105 -0.8014 -0.3761
 2402TIP3   OH231400   0.816   1.923  20.605 -0.4544 -0.3415 -0.2853
 2402TIP3    H131401   0.839   1.952  20.694 -2.8750  0.0482  0.2851
 2402TIP3    H231402   0.871   1.977  20.548 -0.3159  0.8850  0.9358
 2403TIP3   OH231403   0.308   1.982  19.376  0.0605  0.2689 -0.0661
 2403TIP3    H131404   0.322   1.893  19.408 -1.8058  0.4433  1.3814
 2403TIP3    H231405   0.214   1.996  19.382 -0.3037  0.9477 -4.2150
 2404TIP3   OH231406   5.711   4.203  18.691  0.1632  0.0039  0.2050
 2404TIP3    H131407   5.768   4.129  18.672 -0.5401 -0.7661  0.9599
 2404TIP3    H231408   5.626   4.178  18.653 -0.0433  0.4865  0.3361
 2405TIP3   OH231409   4.540   4.165  20.616  0.0690  0.6065 -0.1538
 2405TIP3    H131410   4.552   4.072  20.637 -0.3160 -0.1432 -2.9457
 2405TIP3    H231411   4.565   4.210  20.697  0.8703 -1.8686  1.1033
 2406TIP3   OH231412   1.600   0.659  20.717 -0.0491 -0.1656 -0.5373
 2406TIP3    H131413   1.573   0.579  20.762  1.4051 -0.8578 -0.8365
 2406TIP3    H231414   1.526   0.719  20.728 -0.2267 -0.7123  1.7330
 2407TIP3   OH231415   6.257   0.914  19.099  0.1603  0.1174 -0.9204
 2407TIP3    H131416   6.284   0.927  19.190 -0.5765  0.0378 -0.6835
 2407TIP3    H231417   6.328   0.863  19.061  0.2378 -0.3031 -0.2431
 2408TIP3   OH231418   2.150   2.463  19.880 -0.4000  0.2871  0.1022
 2408TIP3    H131419   2.208   2.415  19.821 -0.5540  0.0564  0.1376
 2408TIP3    H231420   2.066   2.417  19.874 -0.6417  0.7475 -0.1185
 2409TIP3   OH231421   6.429   4.894  17.220 -0.4956  0.0059  0.4458
 2409TIP3    H131422   6.396   4.844  17.146  2.0662 -0.2723 -0.5915
 2409TIP3    H231423   6.510   4.849  17.246  1.0044  2.5793  0.5607
 2410TIP3   OH231424   6.185   2.772  17.379 -0.1618  0.0305 -0.0011
 2410TIP3    H131425   6.131   2.837  17.425 -0.7058 -0.8477  0.6267
 2410TIP3    H231426   6.129   2.695  17.372  0.9626 -0.8748  0.5794
 2411TIP3   OH231427   4.938   2.372  20.500 -0.4545 -0.2501  0.0645
 2411TIP3    H131428   5.001   2.355  20.429  2.3256  1.9057  1.7681
 2411TIP3    H231429   4.861   2.406  20.456  1.0368  0.6949 -1.9843
 2412TIP3   OH231430   6.041   5.628  18.814  0.0927 -0.0209 -0.3656
 2412TIP3    H131431   6.075   5.694  18.875 -1.4044 -0.1145  0.6158
 2412TIP3    H231432   5.947   5.645  18.810  0.0368 -0.5310 -2.0629
 2413TIP3   OH231433   5.594   3.617  18.992 -0.1071  0.3545 -0.5253
 2413TIP3    H131434   5.516   3.646  19.040 -1.4039 -1.8723 -1.1008
 2413TIP3    H231435   5.559   3.564  18.921  1.9522 -2.0529  0.1069
 2414TIP3   OH231436   6.129   6.728  19.701  0.0547  0.5157  0.0907
 2414TIP3    H131437   6.169   6.759  19.620  1.7973  0.0639  0.7410
 2414TIP3    H231438   6.120   6.634  19.689  1.1336  0.3181  0.7370
 2415TIP3   OH231439   5.367   2.082  18.264  0.3051 -0.4935 -0.2404
 2415TIP3    H131440   5.427   2.010  18.241  0.3156 -0.5812  0.0574
 2415TIP3    H231441   5.407   2.123  18.341  0.3655 -0.0862 -0.4828
 2416TIP3   OH231442   1.076   5.928  19.384 -0.1782  0.0293  0.4839
 2416TIP3    H131443   1.067   6.022  19.393 -0.8981 -0.0160  0.2591
 2416TIP3    H231444   0.989   5.893  19.400  0.8224 -1.0277  5.2230
 2417TIP3   OH231445   0.033   4.320  20.151 -0.3053  0.4974 -0.1513
 2417TIP3    H131446   0.085   4.259  20.204 -0.4296  0.1308 -0.4461
 2417TIP3    H231447  -0.054   4.318  20.190  0.5318  3.3276  2.2102
 2418TIP3   OH231448   2.704   1.673  19.005 -0.2236  0.8995  0.0470
 2418TIP3    H131449   2.690   1.735  19.077 -0.3387  2.2835 -1.1155
 2418TIP3    H231450   2.666   1.591  19.036  0.9125  1.0842  2.0729
 2419TIP3   OH231451   6.010   5.481  19.777 -0.6861 -0.3337 -0.1565
 2419TIP3    H131452   6.083   5.489  19.838  0.2663  0.2397 -1.3365
 2419TIP3    H231453   6.022   5.395  19.736 -0.4465 -0.0794 -0.6263
 2420TIP3   OH231454   2.558   6.604  17.804  0.0815 -0.5969  0.3039
 2420TIP3    H131455   2.546   6.531  17.743  2.1171 -0.1255 -0.7465
 2420TIP3    H231456   2.622   6.660  17.761 -0.6937  1.3253  1.5437
 2421TIP3   OH231457   4.359   6.399  20.233  0.1307 -0.2768 -0.2971
 2421TIP3    H131458   4.286   6.356  20.189  0.2964  0.1176 -0.9735
 2421TIP3    H231459   4.418   6.426  20.162  1.3837 -1.3651  0.2711
 2422TIP3   OH231460   4.933   5.986  18.698  0.2215  0.1851 -0.3264
 2422TIP3    H131461   4.897   5.952  18.780 -1.3586 -0.5343 -1.2532
 2422TIP3    H231462   4.982   5.913  18.661  0.2404  0.2343 -0.3983
 2423TIP3   OH231463   1.069   1.302  18.674 -0.1136  0.3737 -0.2554
 2423TIP3    H131464   1.077   1.274  18.583 -1.1063  0.4961 -0.4002
 2423TIP3    H231465   1.159   1.317  18.703  0.2519 -0.2259 -1.0312
 2424TIP3   OH231466   4.417   4.795  20.474 -0.0787 -0.5985 -0.2364
 2424TIP3    H131467   4.402   4.801  20.568  0.2486  0.1215 -0.2231
 2424TIP3    H231468   4.329   4.788  20.437 -0.1802 -1.5559  0.1527
 2425TIP3   OH231469   5.441   2.128  21.018 -0.1861 -0.0178 -0.2006
 2425TIP3    H131470   5.385   2.200  20.990 -1.3605 -0.8331 -0.0557
 2425TIP3    H231471   5.413   2.110  21.108  0.0642 -0.6714 -0.2470
 2426TIP3   OH231472   0.825   5.787  18.460  0.2519 -0.1665  0.1650
 2426TIP3    H131473   0.884   5.797  18.385  0.9403 -3.4468  0.0871
 2426TIP3    H231474   0.760   5.723  18.430 -0.3611 -0.3866  1.8559
 2427TIP3   OH231475   4.101   6.559  20.550 -0.4758  0.1776 -0.4537
 2427TIP3    H131476   4.023   6.591  20.594 -0.4187  0.6837 -0.7102
 2427TIP3    H231477   4.071   6.485  20.497 -0.7099  0.1411 -0.2683
 2428TIP3   OH231478   2.403   5.122  19.112  0.0105  0.0474 -0.0213
 2428TIP3    H131479   2.394   5.072  19.031 -0.0370  0.6250 -0.3790
 2428TIP3    H231480   2.359   5.068  19.178  1.6715 -1.3468  0.0328
 2429TIP3   OH231481   5.417   1.513  19.592 -0.1378  0.1778  0.2284
 2429TIP3    H131482   5.387   1.429  19.555 -0.4398  0.5075 -0.2943
 2429TIP3    H231483   5.347   1.575  19.569 -0.1557  0.4671  1.0610
 2430TIP3   OH231484   6.354   5.247  18.657 -0.0908 -0.3277  0.0028
 2430TIP3    H131485   6.356   5.300  18.737 -1.0636  0.3710 -0.4100
 2430TIP3    H231486   6.343   5.157  18.688  0.2208 -0.1451  0.6709
 2431TIP3   OH231487   5.911   3.845  19.293  0.4648 -0.2557 -0.2890
 2431TIP3    H131488   5.978   3.910  19.313 -0.7003  0.6665  0.7501
 2431TIP3    H231489   5.924   3.776  19.358  0.1274  0.1429  0.2072
 2432TIP3   OH231490   1.444   1.749  18.703 -0.6208 -0.0483 -0.1440
 2432TIP3    H131491   1.447   1.704  18.619 -0.7635  0.2087 -0.2843
 2432TIP3    H231492   1.475   1.683  18.766  0.7434  0.1550 -0.5525
 2433TIP3   OH231493   0.818   6.008  18.080 -0.6125  0.1668 -0.0837
 2433TIP3    H131494   0.744   5.953  18.052 -1.6801  1.0748  0.8387
 2433TIP3    H231495   0.780   6.067  18.145  0.7565  1.2399 -0.2203
 2434TIP3   OH231496   4.908   0.370  19.217  0.1585  0.5702 -0.0437
 2434TIP3    H131497   4.813   0.381  19.211 -0.0738 -1.0087  0.4065
 2434TIP3    H231498   4.927   0.380  19.311  0.3873  0.4850 -0.0804
 2435TIP3   OH231499   3.285   4.807  18.606  0.0532  0.0567 -0.5904
 2435TIP3    H131500   3.380   4.813  18.622 -0.2243  0.6126  1.0667
 2435TIP3    H231501   3.272   4.854  18.524  1.0042  1.5218  0.0591
 2436TIP3   OH231502   0.380   2.775  18.345  0.3372 -0.3916  0.2767
 2436TIP3    H131503   0.437   2.743  18.415  1.7039  2.5207  0.6447
 2436TIP3    H231504   0.405   2.724  18.268  2.2924 -0.3508  0.8316
 2437TIP3   OH231505   6.698   4.139  19.674  0.0111 -0.1288  0.2079
 2437TIP3    H131506   6.661   4.055  19.648  1.4831 -0.9121  0.5680
 2437TIP3    H231507   6.651   4.162  19.754  0.7166 -1.4187  1.0251
 2438TIP3   OH231508   6.666   1.062  17.166 -0.6921 -0.1088 -0.1304
 2438TIP3    H131509   6.748   1.090  17.125  1.0082 -2.3596  1.4201
 2438TIP3    H231510   6.622   1.143  17.190  1.0754  1.1860 -1.0078
 2439TIP3   OH231511   4.768   0.550  17.692  0.7322 -0.1344  0.1125
 2439TIP3    H131512   4.787   0.531  17.600 -2.2966  0.5581 -0.7476
 2439TIP3    H231513   4.707   0.482  17.719 -0.8564  1.4152  0.6114
 2440TIP3   OH231514   4.744   1.821  20.962 -0.1023 -0.0136  0.1930
 2440TIP3    H131515   4.680   1.862  21.020 -0.6833 -0.7785  0.1035
 2440TIP3    H231516   4.771   1.892  20.903 -0.3256  0.4895  0.6816
 2441TIP3   OH231517   0.569   3.670  19.553 -0.0831  0.7234 -0.1642
 2441TIP3    H131518   0.643   3.674  19.614  0.4611 -0.9160 -0.6829
 2441TIP3    H231519   0.584   3.592  19.501 -2.2179  0.3029 -0.2485
 2442TIP3   OH231520   0.038   4.654  19.020 -0.0632  0.1031  0.2917
 2442TIP3    H131521  -0.009   4.593  18.962 -3.0404  1.1474  1.4532
 2442TIP3    H231522   0.093   4.597  19.074  0.4668 -1.1413 -1.4668
 2443TIP3   OH231523   4.917   5.814  19.736  0.1176  0.6295  0.7289
 2443TIP3    H131524   4.918   5.721  19.758  0.8227  0.4813  0.1221
 2443TIP3    H231525   4.995   5.826  19.682 -0.1950  1.4867  0.4549
 2444TIP3   OH231526   2.198   2.542  17.820 -0.1931 -0.1772 -0.2882
 2444TIP3    H131527   2.133   2.612  17.811 -0.9853 -0.9341 -0.6292
 2444TIP3    H231528   2.194   2.518  17.913  0.3525  0.4662 -0.0876
 2445TIP3   OH231529   1.694   1.466  19.660  0.6495 -0.0711  0.5650
 2445TIP3    H131530   1.644   1.508  19.731  0.9019  0.9578  0.1531
 2445TIP3    H231531   1.677   1.372  19.672 -0.7206  0.1884  0.9368
 2446TIP3   OH231532   1.875   1.975  18.558 -0.4518 -0.1112  0.3562
 2446TIP3    H131533   1.783   1.967  18.582 -0.5992  0.6694  0.0759
 2446TIP3    H231534   1.875   2.022  18.474  0.1633 -0.8439 -0.0772
 2447TIP3   OH231535   3.325   6.709  17.248  0.4897 -0.2968 -0.2015
 2447TIP3    H131536   3.315   6.800  17.218  1.7410 -0.7905 -2.2591
 2447TIP3    H231537   3.396   6.673  17.194 -0.7206 -2.8490 -0.2168
 2448TIP3   OH231538   6.741   1.939  16.870  0.0438  0.2143 -0.3853
 2448TIP3    H131539   6.666   1.973  16.919  1.1474  0.5173  1.1876
 2448TIP3    H231540   6.809   2.006  16.881  0.9738 -0.6666 -0.6092
 2449TIP3   OH231541   6.304   2.027  19.020  0.1230 -0.0835 -0.2225
 2449TIP3    H131542   6.369   2.097  19.021  1.3176 -1.1628  0.2907
 2449TIP3    H231543   6.273   2.021  19.110 -0.8063  0.5107 -0.4888
 2450TIP3   OH231544   3.698   2.639  17.948  0.5428  0.6718  0.4476
 2450TIP3    H131545   3.722   2.713  17.892  1.3007  1.8004  2.1785
 2450TIP3    H231546   3.749   2.566  17.914  1.1195  1.3774 -0.2362
 2451TIP3   OH231547   1.338   0.734  20.086 -0.0506 -0.0289 -0.3277
 2451TIP3    H131548   1.410   0.795  20.071 -1.2660  1.8428  1.0070
 2451TIP3    H231549   1.267   0.789  20.119 -1.4857 -2.0819  0.1571
 2452TIP3   OH231550   3.813   3.576  19.101 -0.2528  0.1860  0.3990
 2452TIP3    H131551   3.860   3.619  19.173 -0.4170  1.0192  0.0184
 2452TIP3    H231552   3.728   3.555  19.138 -1.1364  2.5220 -0.1195
 2453TIP3   OH231553   1.805   0.289  17.720 -0.0880 -0.3179 -0.3818
 2453TIP3    H131554   1.748   0.223  17.761 -0.6587  0.1649 -0.3916
 2453TIP3    H231555   1.844   0.242  17.646 -1.2221 -0.3975 -0.9620
 2454TIP3   OH231556   1.273   4.130  19.444 -0.2377  0.1265  0.7156
 2454TIP3    H131557   1.361   4.159  19.420 -0.7007 -1.3282 -3.5313
 2454TIP3    H231558   1.222   4.210  19.452  0.9646  0.8825  1.0921
 2455TIP3   OH231559   6.357   3.781  19.215 -0.1072  0.0654 -0.2266
 2455TIP3    H131560   6.355   3.686  19.206  0.6151  0.1600 -1.7230
 2455TIP3    H231561   6.336   3.814  19.128  1.6787  1.2373 -0.2824
 2456TIP3   OH231562   5.939   5.080  17.685 -0.0387  0.1200 -0.2250
 2456TIP3    H131563   5.965   4.992  17.711  1.9063  0.1996 -1.6523
 2456TIP3    H231564   6.012   5.136  17.713 -0.6477  1.0673 -0.4876
 2457TIP3   OH231565   2.735   0.932  17.977  0.1107  0.4421 -0.1793
 2457TIP3    H131566   2.748   0.978  17.894  1.2325 -0.5500 -0.5785
 2457TIP3    H231567   2.705   0.845  17.953  0.7875  0.0250  0.4353
 2458TIP3   OH231568   6.009   2.491  19.414  0.3094  0.3752 -0.2987
 2458TIP3    H131569   5.992   2.584  19.398  0.7919  0.6033  0.4328
 2458TIP3    H231570   5.960   2.445  19.346 -0.6545  1.1293 -0.1271
 2459TIP3   OH231571   3.731   1.439  18.138 -0.0056  0.0982 -0.1218
 2459TIP3    H131572   3.756   1.439  18.230  0.6114  1.4342 -0.2655
 2459TIP3    H231573   3.640   1.469  18.138  0.7042  2.5112 -0.0535
 2460TIP3   OH231574   1.791   4.444  20.305 -0.7378  0.1151 -0.7930
 2460TIP3    H131575   1.781   4.526  20.257 -1.5349  0.1661 -0.5506
 2460TIP3    H231576   1.751   4.461  20.390 -1.3290 -0.6585 -0.9034
 2461TIP3   OH231577   6.439   4.403  18.104 -0.2944 -0.0560 -0.1457
 2461TIP3    H131578   6.440   4.308  18.118 -0.7681 -0.1930 -0.9701
 2461TIP3    H231579   6.384   4.438  18.174 -2.5918 -0.7063 -1.5159
 2462TIP3   OH231580   4.110   1.163  17.651  0.0492 -0.2728 -0.7998
 2462TIP3    H131581   4.062   1.245  17.643  0.4021 -0.0509 -0.6376
 2462TIP3    H231582   4.128   1.137  17.561 -0.9566 -0.7068 -0.8939
 2463TIP3   OH231583   1.298   0.004  18.094 -0.2324 -0.1617 -0.2033
 2463TIP3    H131584   1.205   0.019  18.080 -0.1627 -0.1040 -0.6073
 2463TIP3    H231585   1.328   0.081  18.142 -0.2298  0.1832 -0.7615
 2464TIP3   OH231586   2.167   0.116  18.306 -0.2709 -0.4602 -0.3227
 2464TIP3    H131587   2.209   0.141  18.224  2.9856 -0.9520  1.0641
 2464TIP3    H231588   2.169   0.196  18.359  1.9784 -1.2410  0.8921
 2465TIP3   OH231589   3.612   2.497  19.811  0.0329 -0.1536  0.2154
 2465TIP3    H131590   3.677   2.470  19.875  1.4908 -0.8680 -1.4912
 2465TIP3    H231591   3.662   2.549  19.748 -0.7136 -1.8796 -1.8934
 2466TIP3   OH231592   0.788   5.162  20.942 -0.1752 -0.2276 -0.2481
 2466TIP3    H131593   0.775   5.068  20.930  0.1338 -0.1728 -1.1037
 2466TIP3    H231594   0.870   5.181  20.895 -0.2223  0.4600 -0.0589
 2467TIP3   OH231595   2.780   6.342  18.637 -0.3801 -0.0757 -0.4558
 2467TIP3    H131596   2.853   6.336  18.697 -0.6356 -1.5197 -0.2564
 2467TIP3    H231597   2.735   6.258  18.644 -2.1379  0.8041 -0.4779
 2468TIP3   OH231598   6.112   1.799  18.176 -0.1464  0.4882 -0.9960
 2468TIP3    H131599   6.168   1.753  18.113  0.2854 -1.0964  0.4586
 2468TIP3    H231600   6.034   1.743  18.184 -0.7380  1.2987 -1.0150
 2469TIP3   OH231601   3.080   5.486  20.259 -0.0629 -0.3913 -0.1903
 2469TIP3    H131602   3.053   5.513  20.171 -0.5702 -2.7454 -0.8103
 2469TIP3    H231603   3.093   5.569  20.306  1.1355  0.9835 -2.7134
 2470TIP3   OH231604   4.527   2.187  17.842  0.0597 -0.1737  0.2424
 2470TIP3    H131605   4.600   2.155  17.894  1.3965 -0.2754 -1.5783
 2470TIP3    H231606   4.450   2.174  17.897  1.2117 -1.5441  1.6152
 2471TIP3   OH231607   3.881   2.895  18.890  0.3769 -0.0497 -0.4839
 2471TIP3    H131608   3.804   2.944  18.859  1.3003  1.0985 -1.0479
 2471TIP3    H231609   3.938   2.890  18.814  1.0428 -0.5195  0.0417
 2472TIP3   OH231610   3.654   5.410  19.137 -0.1975  0.8571  0.0970
 2472TIP3    H131611   3.578   5.464  19.158 -0.0622  0.8693  0.5661
 2472TIP3    H231612   3.644   5.333  19.193 -2.3801 -1.4575 -3.0859
 2473TIP3   OH231613   5.525   1.469  18.699 -0.6959  0.7661  0.4179
 2473TIP3    H131614   5.580   1.546  18.716 -0.5404  0.7480 -0.0048
 2473TIP3    H231615   5.439   1.493  18.733 -0.6152  1.0779  0.4049
 2474TIP3   OH231616   6.692   6.239  20.652  0.3789  0.5318  0.3364
 2474TIP3    H131617   6.740   6.158  20.639  0.7417  1.0067 -1.6941
 2474TIP3    H231618   6.599   6.214  20.646  0.4751  0.2037  0.2149
 2475TIP3   OH231619   3.053   0.184  19.648 -0.4517 -0.3390 -0.1207
 2475TIP3    H131620   3.042   0.222  19.561  0.2963  3.2004  1.1712
 2475TIP3    H231621   3.125   0.122  19.638  0.7186  1.1859 -1.7418
 2476TIP3   OH231622   3.378   0.543  17.452 -0.1419 -0.2155 -0.8458
 2476TIP3    H131623   3.456   0.487  17.461  1.4534  1.7643 -1.5104
 2476TIP3    H231624   3.357   0.538  17.358  1.2234  1.7041 -1.3195
 2477TIP3   OH231625   4.424   0.229  19.944  0.4009 -0.4567 -0.7967
 2477TIP3    H131626   4.381   0.187  19.869  1.3021  1.4170 -2.4409
 2477TIP3    H231627   4.369   0.305  19.964  1.0588 -0.0172 -0.6268
 2478TIP3   OH231628   3.993   6.378  20.385  0.5187 -0.0865  0.1912
 2478TIP3    H131629   4.023   6.343  20.301  0.2620  0.1420  0.0022
 2478TIP3    H231630   3.907   6.416  20.366  1.3224  1.8088  0.0979
 2479TIP3   OH231631   5.091   2.665  20.755  0.8368  0.3410  0.1225
 2479TIP3    H131632   5.142   2.744  20.775  1.6117 -0.1288  0.0528
 2479TIP3    H231633   5.153   2.593  20.768 -0.6925 -0.5753  3.5125
 2480TIP3   OH231634   5.790   1.867  18.946  0.5190  0.6623  0.0193
 2480TIP3    H131635   5.778   1.854  19.040  0.2722  1.5627  0.1217
 2480TIP3    H231636   5.883   1.887  18.936  0.8001 -0.5959 -0.0827
 2481TIP3   OH231637   0.556   1.887  20.603 -0.3157  0.0110 -0.3835
 2481TIP3    H131638   0.650   1.906  20.604 -0.0142 -1.3481  1.0347
 2481TIP3    H231639   0.542   1.842  20.520  0.7106 -1.4576  0.1718
 2482TIP3   OH231640   4.050   6.507  17.213  0.0218 -0.5406 -0.2329
 2482TIP3    H131641   4.093   6.570  17.270 -0.1290  0.8390 -1.5749
 2482TIP3    H231642   3.957   6.513  17.236  0.1370 -1.1813  0.4571
 2483TIP3   OH231643   3.696   3.124  19.379 -0.3405  0.0352 -0.1567
 2483TIP3    H131644   3.719   3.040  19.418  2.1530  0.7830  0.1572
 2483TIP3    H231645   3.691   3.106  19.285  2.3220 -0.1080 -0.3301
 2484TIP3   OH231646   0.961   6.607  19.921  0.0465  0.1443  0.4062
 2484TIP3    H131647   1.033   6.631  19.862  0.8557 -2.4369  0.2015
 2484TIP3    H231648   0.883   6.607  19.865  0.0267  1.9823  0.3982
 2485TIP3   OH231649   5.201   5.817  18.672  0.4838 -0.0545  0.5837
 2485TIP3    H131650   5.229   5.732  18.705  1.1207  0.7341  2.2166
 2485TIP3    H231651   5.257   5.832  18.596 -0.4481 -1.5768 -0.4503
 2486TIP3   OH231652   1.842   3.902  19.225  0.4107  0.1887  0.1961
 2486TIP3    H131653   1.750   3.918  19.203  0.2512 -0.0675  0.6518
 2486TIP3    H231654   1.862   3.969  19.291  0.6747  0.5117 -0.2123
 2487TIP3   OH231655   0.575   0.750  19.814  0.2377 -0.8870  0.1071
 2487TIP3    H131656   0.538   0.834  19.787 -0.1565 -1.2685 -0.5986
 2487TIP3    H231657   0.657   0.743  19.764  1.4475  0.0634  1.8458
 2488TIP3   OH231658   1.061   2.717  19.907  0.0672 -0.3074 -0.2285
 2488TIP3    H131659   1.016   2.800  19.922 -0.7277 -0.9538  1.1069
 2488TIP3    H231660   1.066   2.676  19.993  0.5051 -1.6245 -0.8515
 2489TIP3   OH231661   2.602   5.588  19.230  0.3273  0.1589  0.0227
 2489TIP3    H131662   2.617   5.637  19.149  0.5469 -0.3116 -0.2256
 2489TIP3    H231663   2.546   5.515  19.204 -1.9318  1.5040  0.8027
 2490TIP3   OH231664   3.980   5.746  18.011 -0.1915 -0.2024 -0.0173
 2490TIP3    H131665   3.976   5.841  18.005 -0.4272 -0.2771 -1.2647
 2490TIP3    H231666   3.919   5.715  17.944  1.2131 -1.2288 -0.8693
 2491TIP3   OH231667   6.202   5.866  19.893  0.7921 -0.4811 -0.1520
 2491TIP3    H131668   6.188   5.958  19.874 -1.2091 -0.5810  0.6483
 2491TIP3    H231669   6.187   5.821  19.809 -3.5440 -0.4968  0.3926
 2492TIP3   OH231670   6.178   0.412  17.445 -0.3281 -0.1731 -0.1881
 2492TIP3    H131671   6.248   0.470  17.473 -0.8114  0.5734 -0.4937
 2492TIP3    H231672   6.125   0.465  17.385 -1.0086 -0.7989 -0.1604
 2493TIP3   OH231673   4.679   3.297  19.799  0.2938  0.1605 -0.5851
 2493TIP3    H131674   4.701   3.235  19.868  2.5771  0.3559 -1.0450
 2493TIP3    H231675   4.662   3.243  19.722 -1.5643 -0.0264 -0.0699
 2494TIP3   OH231676   5.500   6.607  19.467  0.6160  0.1945 -0.2358
 2494TIP3    H131677   5.509   6.539  19.534  0.4053  1.6539  1.3455
 2494TIP3    H231678   5.406   6.611  19.449  0.5188  0.6231  0.3172
 2495TIP3   OH231679   5.015   2.344  18.256  0.0650 -0.2319 -0.0179
 2495TIP3    H131680   4.974   2.327  18.341  0.9837  1.2779  0.7771
 2495TIP3    H231681   5.090   2.400  18.277 -0.6859  1.6325 -1.9855
 2496TIP3   OH231682   4.740   0.036  18.039 -0.7254 -0.8022 -0.3127
 2496TIP3    H131683   4.834   0.029  18.054 -0.8021  0.2695  0.8151
 2496TIP3    H231684   4.701  -0.028  18.098 -0.7447 -0.7444 -0.2632
 2497TIP3   OH231685   0.957   3.708  20.558 -0.0149  0.1215  0.6860
 2497TIP3    H131686   0.986   3.778  20.499  1.0138  0.1824  1.2534
 2497TIP3    H231687   0.876   3.742  20.597 -0.8432 -0.0088 -0.8292
 2498TIP3   OH231688   6.656   2.290  18.482  0.7350  0.0130 -0.1135
 2498TIP3    H131689   6.718   2.361  18.503  1.6700 -0.9608  0.4993
 2498TIP3    H231690   6.684   2.259  18.396  0.9920 -0.3188  0.0909
 2499TIP3   OH231691   0.713   1.752  18.704 -0.0518 -0.4965  0.6426
 2499TIP3    H131692   0.740   1.843  18.688  0.3126 -0.7003  0.0830
 2499TIP3    H231693   0.720   1.742  18.799  1.4661 -0.4038  0.5711
 2500TIP3   OH231694   1.071   6.310  20.840  0.1007  0.1381  0.1999
 2500TIP3    H131695   1.125   6.234  20.818  2.9412  1.4771  2.1028
 2500TIP3    H231696   0.986   6.272  20.864  1.1075 -2.3326  0.1642
 2501TIP3   OH231697   6.388   5.183  18.317 -0.1049 -0.2505 -0.0178
 2501TIP3    H131698   6.446   5.111  18.341  2.0892  1.3993 -0.0405
 2501TIP3    H231699   6.387   5.183  18.221  0.3501  0.0505 -0.0288
 2502TIP3   OH231700   5.644   5.345  20.526  0.5232  0.1630 -0.1486
 2502TIP3    H131701   5.573   5.402  20.555 -1.5902 -2.7206  0.7419
 2502TIP3    H231702   5.638   5.268  20.581  1.4707 -2.1697 -3.0115
 2503TIP3   OH231703   4.926   1.857  18.994 -0.7400 -0.2840  0.2340
 2503TIP3    H131704   4.931   1.878  18.901 -0.3290 -1.3893 -0.0027
 2503TIP3    H231705   4.871   1.927  19.031 -1.2536 -0.0648 -0.8934
 2504TIP3   OH231706   5.756   6.059  19.095  0.5781 -0.0251 -0.1505
 2504TIP3    H131707   5.805   6.132  19.133  1.0705  0.1545 -1.1153
 2504TIP3    H231708   5.694   6.034  19.164 -0.4579  2.0871 -0.2145
 2505TIP3   OH231709   6.527   1.222  19.171 -0.2503 -0.0704  0.1449
 2505TIP3    H131710   6.549   1.299  19.118  1.4081 -0.2269  0.5440
 2505TIP3    H231711   6.433   1.231  19.188 -0.2018  1.5972 -0.2444
 2506TIP3   OH231712   2.797   5.305  20.354 -0.2334 -0.2247  0.1127
 2506TIP3    H131713   2.850   5.275  20.428  1.2569  0.6597 -0.5549
 2506TIP3    H231714   2.713   5.261  20.365  0.3678 -1.0467  1.6542
 2507TIP3   OH231715   2.671   4.441  19.639  0.1819  0.1187 -0.4094
 2507TIP3    H131716   2.676   4.536  19.651  0.7977  0.2111 -1.2960
 2507TIP3    H231717   2.670   4.428  19.544 -2.0899 -0.6741 -0.3625
 2508TIP3   OH231718   3.686   3.045  20.586  0.5449  0.2830  0.4140
 2508TIP3    H131719   3.717   2.964  20.625 -2.0719 -1.1832 -0.3674
 2508TIP3    H231720   3.766   3.088  20.554  1.9009 -2.5901 -0.3387
 2509TIP3   OH231721   1.982   2.320  19.712 -0.4089 -0.0355 -0.7485
 2509TIP3    H131722   2.004   2.376  19.638 -0.6640 -1.6772 -2.1302
 2509TIP3    H231723   2.025   2.236  19.692 -1.5790 -0.9132  0.2875
 2510TIP3   OH231724   4.324   4.373  21.002  0.4072 -0.3655  0.4178
 2510TIP3    H131725   4.333   4.453  21.054  0.2975 -0.0991  0.0264
 2510TIP3    H231726   4.411   4.333  21.005  0.8218  0.4479 -0.4954
 2511TIP3   OH231727   2.981   1.347  18.735 -0.8535  0.3637 -0.3015
 2511TIP3    H131728   2.952   1.283  18.671  0.0185 -0.8384  0.4558
 2511TIP3    H231729   3.054   1.392  18.692 -0.2550 -0.4550 -0.1759
 2512TIP3   OH231730   1.187   6.363  17.993 -0.2886 -0.0819 -0.1841
 2512TIP3    H131731   1.205   6.375  17.900 -0.9437  0.3692 -0.2556
 2512TIP3    H231732   1.152   6.274  18.000  0.2002 -0.2850 -0.3015
 2513TIP3   OH231733   3.079   1.387  18.268 -0.1098 -0.0473 -0.6920
 2513TIP3    H131734   3.054   1.433  18.187  0.2289  0.4386 -0.5270
 2513TIP3    H231735   3.114   1.456  18.325  1.3937 -0.6459 -0.8269
 2514TIP3   OH231736   2.325   0.563  18.602  0.3502  0.5065 -0.5333
 2514TIP3    H131737   2.404   0.611  18.578 -0.2689  1.4976 -0.6047
 2514TIP3    H231738   2.254   0.610  18.560 -0.3027 -0.2810 -0.3281
 2515TIP3   OH231739   6.546   0.299  19.810 -0.4428 -0.1694  0.7880
 2515TIP3    H131740   6.579   0.331  19.894  2.3441  0.6247 -0.4947
 2515TIP3    H231741   6.600   0.223  19.790 -1.2281 -0.4894 -0.1955
 2516TIP3   OH231742   4.217   0.624  18.926  0.4901 -0.6010  0.7397
 2516TIP3    H131743   4.266   0.545  18.904  2.6124  0.8226  0.1036
 2516TIP3    H231744   4.267   0.664  18.997 -0.0863  0.6084  0.4850
 2517TIP3   OH231745   5.174   3.391  20.030  0.1394 -0.1495  0.1469
 2517TIP3    H131746   5.144   3.406  19.941 -0.3778  1.6379  0.5888
 2517TIP3    H231747   5.165   3.476  20.073 -0.0604 -1.0850  2.0356
 2518TIP3   OH231748   2.782   5.199  19.499  0.7844  0.0822  0.1965
 2518TIP3    H131749   2.701   5.157  19.468  0.4530  0.0443  1.1057
 2518TIP3    H231750   2.823   5.134  19.555  0.7497  0.6173  0.8458
 2519TIP3   OH231751   0.271   0.306  20.049 -0.1430 -0.4061 -0.2758
 2519TIP3    H131752   0.328   0.233  20.026  1.4882  1.5346 -2.9789
 2519TIP3    H231753   0.200   0.303  19.985  0.7193  1.1030 -1.3828
 2520TIP3   OH231754   4.630   2.699  19.202  0.1703  0.1234 -0.3359
 2520TIP3    H131755   4.540   2.687  19.173 -0.7916  0.9488  2.0825
 2520TIP3    H231756   4.658   2.781  19.160 -0.6778  0.5457 -0.1060
 2521TIP3   OH231757   5.335   4.630  18.483  0.0285 -0.0965 -0.5971
 2521TIP3    H131758   5.333   4.724  18.504  2.2113  0.0785 -0.9024
 2521TIP3    H231759   5.355   4.627  18.390  0.2931 -0.8648 -0.5206
 2522TIP3   OH231760   4.657   5.103  19.433 -0.2575 -0.0934  0.2689
 2522TIP3    H131761   4.694   5.024  19.394  0.8187  0.4696  0.0913
 2522TIP3    H231762   4.722   5.131  19.498 -0.2725  1.0122 -0.1564
 2523TIP3   OH231763   5.221   5.263  19.882 -0.5482  0.7732  0.1407
 2523TIP3    H131764   5.161   5.228  19.817  0.0639 -1.4656  0.6849
 2523TIP3    H231765   5.307   5.255  19.842 -0.1070 -1.1187  1.3402
 2524TIP3   OH231766   5.581   3.903  20.629  0.2631  0.0777  0.0945
 2524TIP3    H131767   5.538   3.903  20.543 -0.7992  0.8094  0.6045
 2524TIP3    H231768   5.610   3.993  20.642  0.0856  0.0567  0.6579
 2525TIP3   OH231769   0.589   5.918  20.278  0.0788  0.0289  0.5473
 2525TIP3    H131770   0.574   5.848  20.342 -0.4001  0.8599  1.3650
 2525TIP3    H231771   0.532   5.895  20.205 -0.0133 -0.4765  0.7675
 2526TIP3   OH231772   5.336   0.280  17.935  0.2573  0.1289 -0.5235
 2526TIP3    H131773   5.335   0.351  17.871 -0.4041 -2.3767 -3.5768
 2526TIP3    H231774   5.247   0.246  17.933  0.4722 -0.6060  1.1141
 2527TIP3   OH231775   1.762   2.617  19.652  0.1128  0.1095 -0.5434
 2527TIP3    H131776   1.698   2.661  19.596  0.0560 -2.2614 -2.5245
 2527TIP3    H231777   1.730   2.527  19.659  2.4490 -0.7834 -0.3598
 2528TIP3   OH231778   1.031   5.349  19.375 -0.2032 -0.0487  0.3287
 2528TIP3    H131779   1.024   5.429  19.428  0.6950  0.0347  0.3382
 2528TIP3    H231780   0.961   5.357  19.311  2.3673  2.9117 -2.5012
 2529TIP3   OH231781   4.586   4.719  19.588  0.0192  0.6943 -0.1065
 2529TIP3    H131782   4.619   4.739  19.500  0.3349  0.3985 -0.0595
 2529TIP3    H231783   4.598   4.624  19.597 -0.6320  0.6196  0.0047
 2530TIP3   OH231784   2.919   5.163  20.624 -0.2313  0.0960  0.3920
 2530TIP3    H131785   2.908   5.068  20.620  0.7645 -0.0087 -0.2938
 2530TIP3    H231786   3.012   5.176  20.642 -0.3117  0.9431  0.2544
 2531TIP3   OH231787   4.639   3.158  18.450 -0.1528  0.1213 -0.0467
 2531TIP3    H131788   4.664   3.200  18.368 -0.3387  1.7476  0.6852
 2531TIP3    H231789   4.676   3.215  18.518 -0.0342 -1.1666  1.0041
 2532TIP3   OH231790   2.521   6.084  18.120  0.2979  0.2433 -0.1134
 2532TIP3    H131791   2.487   6.163  18.162 -2.0264 -0.0450 -1.3136
 2532TIP3    H231792   2.523   6.104  18.027  1.6949 -0.4354 -0.2611
 2533TIP3   OH231793   4.208   2.129  17.443  0.4959  0.2451  0.0875
 2533TIP3    H131794   4.157   2.051  17.424  1.4227 -0.6793  1.2531
 2533TIP3    H231795   4.181   2.192  17.376 -0.9456 -0.7474 -0.3059
 2534TIP3   OH231796   4.038   6.670  18.811 -0.5134  0.1313  0.2360
 2534TIP3    H131797   4.095   6.729  18.760 -0.6110  0.4732  0.5221
 2534TIP3    H231798   3.979   6.633  18.746  2.1675 -2.9119 -0.7583
 2535TIP3   OH231799   1.723   3.912  20.179 -0.3616 -0.0514 -0.3275
 2535TIP3    H131800   1.741   4.006  20.168 -0.2655 -0.1122 -0.7008
 2535TIP3    H231801   1.663   3.908  20.253  1.4138  0.1372  1.1763
 2536TIP3   OH231802   0.070   4.551  18.584  0.2842  0.5099 -0.2392
 2536TIP3    H131803   0.013   4.548  18.662 -0.1120 -0.5401 -0.5627
 2536TIP3    H231804   0.043   4.477  18.531  1.2960  0.5822 -0.8823
 2537TIP3   OH231805   5.530   4.670  20.260  0.2049 -0.0232  0.2589
 2537TIP3    H131806   5.499   4.608  20.326 -1.9719  0.7867  0.0588
 2537TIP3    H231807   5.519   4.625  20.177  3.2659 -1.1759  0.3360
 2538TIP3   OH231808   2.020   1.839  19.065 -0.4029  0.2546  0.0968
 2538TIP3    H131809   2.089   1.828  18.999  0.5440 -0.5394  1.1784
 2538TIP3    H231810   1.970   1.757  19.059  0.0882 -0.1050  0.7981
 2539TIP3   OH231811   2.193   3.515  17.753  0.4903  0.3344  0.5615
 2539TIP3    H131812   2.191   3.422  17.732 -1.0527  0.7793 -1.5651
 2539TIP3    H231813   2.271   3.548  17.709 -0.3158  0.4496 -0.8414
 2540TIP3   OH231814   1.258   6.286  19.298 -0.5326  0.3846 -0.4255
 2540TIP3    H131815   1.253   6.275  19.393  0.5706 -2.6688 -0.6131
 2540TIP3    H231816   1.171   6.316  19.273 -1.5701 -0.9785  1.3375
 2541TIP3   OH231817   3.037   5.413  19.874 -0.4915  0.0184  0.1615
 2541TIP3    H131818   3.116   5.359  19.869  0.1030  0.9515 -2.1858
 2541TIP3    H231819   2.995   5.387  19.956  1.7608 -1.1693  1.0390
 2542TIP3   OH231820   1.299   0.995  17.755  0.0831 -0.0449 -0.0467
 2542TIP3    H131821   1.364   1.037  17.699  1.1858 -1.7522 -0.1394
 2542TIP3    H231822   1.257   1.067  17.802  1.5825  1.1586 -0.4718
 2543TIP3   OH231823   0.224   5.676  20.027 -0.4615 -0.1420 -0.3562
 2543TIP3    H131824   0.165   5.634  20.089 -1.1326  0.4316 -0.5904
 2543TIP3    H231825   0.205   5.633  19.943 -0.0552 -0.4281 -0.3060
 2544TIP3   OH231826   4.372   4.709  18.870 -0.0804 -0.3187 -0.0715
 2544TIP3    H131827   4.289   4.717  18.823  0.0607 -0.5094 -0.3580
 2544TIP3    H231828   4.351   4.734  18.960 -0.7975 -1.8188  0.2229
 2545TIP3   OH231829   3.882   6.381  18.398  0.4730 -0.1864  0.5738
 2545TIP3    H131830   3.836   6.446  18.345 -0.4933  0.4843  2.1352
 2545TIP3    H231831   3.895   6.306  18.340  1.0293  1.1445 -1.0805
 2546TIP3   OH231832   3.108   4.322  18.371 -0.4539 -0.1234 -0.0047
 2546TIP3    H131833   3.019   4.297  18.396  0.1028 -0.5323  1.7190
 2546TIP3    H231834   3.119   4.410  18.406 -0.0812 -0.1964  0.0701
 2547TIP3   OH231835   3.549   6.160  17.744  0.2432  0.3189  0.3092
 2547TIP3    H131836   3.644   6.151  17.745  0.2946 -0.4149 -2.8025
 2547TIP3    H231837   3.533   6.254  17.742  0.9868  0.4243 -0.9929
 2548TIP3   OH231838   3.065   0.095  18.733  0.1564  0.0322  0.0315
 2548TIP3    H131839   3.134   0.100  18.798 -0.5487 -0.9607  0.8846
 2548TIP3    H231840   3.065   0.004  18.704 -1.8554 -0.4260  1.2713
 2549TIP3   OH231841   5.271   6.394  20.700  0.0642 -0.4234 -0.4367
 2549TIP3    H131842   5.199   6.356  20.650 -1.8364 -2.0835  3.1354
 2549TIP3    H231843   5.240   6.482  20.724 -0.2820 -0.6865  0.1020
 2550TIP3   OH231844   4.003   4.805  18.173 -0.7008  0.0932  0.1550
 2550TIP3    H131845   4.084   4.757  18.157 -1.1338 -1.0989  1.3482
 2550TIP3    H231846   4.012   4.886  18.122  0.5297 -0.7434 -1.0089
 2551TIP3   OH231847   2.351   1.624  20.284 -0.0762 -0.2390 -0.2401
 2551TIP3    H131848   2.351   1.706  20.333 -0.6460 -0.4274  0.0766
 2551TIP3    H231849   2.427   1.577  20.317  1.0999  0.7424 -1.4227
 2552TIP3   OH231850   3.711   1.024  19.083  0.7797 -0.3562  0.2924
 2552TIP3    H131851   3.676   0.937  19.064  0.7196 -0.0809 -0.8889
 2552TIP3    H231852   3.709   1.030  19.179  0.4217 -1.5000  0.3674
 2553TIP3   OH231853   2.886   3.193  19.333  0.4046 -0.1098 -0.1930
 2553TIP3    H131854   2.879   3.139  19.253  1.3727 -1.1328  0.3734
 2553TIP3    H231855   2.967   3.242  19.320  0.8489 -0.6775  0.3758
 2554TIP3   OH231856   5.640   6.517  18.106 -0.4385  0.4530  0.3036
 2554TIP3    H131857   5.685   6.497  18.188 -0.1201  0.3145  0.0977
 2554TIP3    H231858   5.667   6.606  18.084  1.5050 -0.3988 -0.9557
 2555TIP3   OH231859   5.509   1.355  17.917  0.1826 -0.0338  0.0486
 2555TIP3    H131860   5.420   1.350  17.951  0.7763  0.2505  1.8014
 2555TIP3    H231861   5.500   1.349  17.822 -1.5822 -1.2513  0.2485
 2556TIP3   OH231862   4.113   3.970  18.844 -0.4894  0.0085  0.5444
 2556TIP3    H131863   4.040   3.949  18.785 -0.9399 -2.3460  1.8142
 2556TIP3    H231864   4.081   3.947  18.931  0.7630  1.7745  1.5330
 2557TIP3   OH231865   6.135   1.667  20.471 -0.1269 -0.2890  0.3877
 2557TIP3    H131866   6.093   1.752  20.473  0.7466  0.1847 -0.4630
 2557TIP3    H231867   6.068   1.606  20.502 -0.1145  0.9352  3.1242
 2558TIP3   OH231868   0.877   4.184  19.334 -0.3143 -0.3695  0.8177
 2558TIP3    H131869   0.924   4.128  19.273  0.4598  0.2337  0.8415
 2558TIP3    H231870   0.820   4.238  19.279 -1.1859 -1.2562  0.8059
 2559TIP3   OH231871   1.417   2.135  17.237  0.4188  0.2668  0.3903
 2559TIP3    H131872   1.509   2.120  17.214 -0.2198 -1.2428 -1.4951
 2559TIP3    H231873   1.371   2.131  17.153 -1.6120 -1.2102  1.5014
 2560TIP3   OH231874   3.212   5.168  20.638 -0.3519 -0.4896  0.4847
 2560TIP3    H131875   3.226   5.202  20.549 -0.1763  0.0988  0.7290
 2560TIP3    H231876   3.239   5.077  20.633 -1.7319 -0.8774 -0.4326
 2561TIP3   OH231877   4.386   5.641  19.555  0.2642 -0.1823 -0.1701
 2561TIP3    H131878   4.379   5.735  19.536 -0.8279  0.0004  0.9584
 2561TIP3    H231879   4.409   5.638  19.648 -2.1016 -1.0161  0.4462
 2562TIP3   OH231880   5.512   0.239  19.813 -0.4471 -0.7224  0.0288
 2562TIP3    H131881   5.556   0.166  19.769 -0.9959 -1.5636  0.8109
 2562TIP3    H231882   5.583   0.296  19.842  0.0384 -1.2933 -0.0068
 2563TIP3   OH231883   3.504   5.015  19.559  0.0103 -0.2397  0.8436
 2563TIP3    H131884   3.588   4.976  19.532  0.6522 -0.1275  2.5400
 2563TIP3    H231885   3.482   4.970  19.640 -0.5079  1.1843  1.5262
 2564TIP3   OH231886   3.292   0.494  20.565 -0.1134  0.0489 -0.2726
 2564TIP3    H131887   3.222   0.438  20.598  0.6435 -1.1644 -0.6675
 2564TIP3    H231888   3.318   0.455  20.482  1.9665 -0.3870  0.5044
 2565TIP3   OH231889   3.510   5.571  18.107  0.0235 -0.0209  0.4067
 2565TIP3    H131890   3.465   5.506  18.162  0.0732  0.3612  0.9074
 2565TIP3    H231891   3.557   5.626  18.169 -0.3182  0.7237  0.0187
 2566TIP3   OH231892   5.665   3.417  18.176  0.2883 -0.2581 -0.0136
 2566TIP3    H131893   5.733   3.479  18.204  0.4211  0.4164 -1.7112
 2566TIP3    H231894   5.590   3.472  18.153  1.0233 -0.4167 -3.3815
 2567TIP3   OH231895   2.144   1.801  18.070 -0.2782 -0.4150  0.0257
 2567TIP3    H131896   2.050   1.815  18.061 -0.1644  0.3056 -0.0905
 2567TIP3    H231897   2.171   1.766  17.985 -0.8780 -3.2753  0.9201
 2568TIP3   OH231898   3.210   2.210  18.988  0.0258  0.6555  0.4603
 2568TIP3    H131899   3.233   2.302  18.975 -0.2381  0.7236  0.4622
 2568TIP3    H231900   3.205   2.200  19.083  0.9433  0.4132  0.4908
 2569TIP3   OH231901   0.097   1.987  19.658 -0.2112 -0.0710  0.1347
 2569TIP3    H131902   0.003   2.002  19.672 -0.2417 -0.6561  0.5717
 2569TIP3    H231903   0.101   1.904  19.611  0.0263  0.6198 -1.1215
 2570TIP3   OH231904   4.460   4.083  19.090  0.1280  0.1116  0.1285
 2570TIP3    H131905   4.473   3.993  19.061 -0.1178  0.3630 -0.7937
 2570TIP3    H231906   4.524   4.134  19.040  0.4743  0.4201  0.8665
 2571TIP3   OH231907   2.597   5.640  19.871 -0.3396 -0.2315 -0.3323
 2571TIP3    H131908   2.613   5.710  19.807  2.0976 -0.5222 -0.1434
 2571TIP3    H231909   2.630   5.561  19.828  0.0064 -0.6766  0.7270
 2572TIP3   OH231910   5.792   6.501  18.854  0.1751 -0.2904 -0.4761
 2572TIP3    H131911   5.878   6.458  18.853  0.4357 -0.1493  3.3039
 2572TIP3    H231912   5.810   6.591  18.880 -1.1077 -0.2713  0.4324
 2573TIP3   OH231913   5.089   3.686  18.280  0.3379  0.5718  0.5027
 2573TIP3    H131914   5.094   3.674  18.375 -0.3989 -1.5485  0.3373
 2573TIP3    H231915   4.999   3.660  18.258  1.4990 -2.6131 -1.1262
 2574TIP3   OH231916   4.529   4.224  19.371  0.3641  0.0246  0.1313
 2574TIP3    H131917   4.623   4.210  19.379  0.2574  0.1488  1.9040
 2574TIP3    H231918   4.521   4.293  19.305  1.5342  0.3031  0.2564
 2575TIP3   OH231919   0.429   0.670  17.630 -1.2695 -1.0092 -0.1695
 2575TIP3    H131920   0.411   0.583  17.594  1.7866 -0.4373 -3.5461
 2575TIP3    H231921   0.452   0.724  17.555 -0.9958  2.2200  2.0199
 2576TIP3   OH231922   6.553   6.483  17.731  0.4252 -0.4398  0.1217
 2576TIP3    H131923   6.582   6.568  17.765  1.0565 -0.6981  0.2377
 2576TIP3    H231924   6.619   6.458  17.668 -0.6832 -0.0290 -1.2594
 2577TIP3   OH231925   1.086   3.435  18.239  0.1859 -0.3930  0.1242
 2577TIP3    H131926   1.119   3.369  18.178  1.0793  1.0645 -1.0377
 2577TIP3    H231927   1.059   3.385  18.316 -0.6092 -2.2646 -1.2748
 2578TIP3   OH231928   1.114   5.684  18.348  0.7076 -0.1211 -0.0493
 2578TIP3    H131929   1.187   5.629  18.318  1.4270  0.1127  1.1934
 2578TIP3    H231930   1.101   5.659  18.439 -2.0447 -1.4764 -0.7122
 2579TIP3   OH231931   1.201   6.713  17.375 -0.2966 -0.2274  0.5024
 2579TIP3    H131932   1.175   6.620  17.369 -1.7861  0.0462  1.7678
 2579TIP3    H231933   1.284   6.711  17.422 -0.8143 -0.9155  1.4539
 2580TIP3   OH231934   3.047   0.063  20.619 -0.0711  0.2395 -0.1754
 2580TIP3    H131935   2.956   0.040  20.597  0.3680  1.3965 -3.8989
 2580TIP3    H231936   3.088  -0.021  20.641 -1.6718 -0.5441 -0.0594
 2581TIP3   OH231937   0.034   4.623  20.235 -0.3449  0.7505 -1.0766
 2581TIP3    H131938   0.027   4.645  20.328 -0.0442  0.7844 -1.0632
 2581TIP3    H231939  -0.043   4.568  20.217  1.2162 -1.9404 -0.0729
 2582TIP3   OH231940   0.179   3.264  20.848 -0.0331 -0.0861  0.4186
 2582TIP3    H131941   0.090   3.269  20.882  0.4426 -0.2775  1.7632
 2582TIP3    H231942   0.178   3.189  20.789 -1.0593  0.6691 -0.5722
 2583TIP3   OH231943   5.608   4.309  18.912 -0.4727  0.3527 -0.5108
 2583TIP3    H131944   5.661   4.278  18.838 -0.0929  2.9951 -1.4681
 2583TIP3    H231945   5.519   4.313  18.878 -0.5794 -0.0575 -0.2774
 2584TIP3   OH231946   3.680   2.014  19.384 -0.0645 -0.1340  0.0901
 2584TIP3    H131947   3.744   1.947  19.361 -0.4975 -0.9564  1.1755
 2584TIP3    H231948   3.701   2.088  19.328  2.9924  0.3062  1.5998
 2585TIP3   OH231949   0.032   5.800  19.804 -0.0083 -0.3484  0.1174
 2585TIP3    H131950   0.085   5.727  19.771  0.6707  0.3383 -0.3658
 2585TIP3    H231951   0.045   5.870  19.739  0.4360  0.6444  1.2304
 2586TIP3   OH231952   0.241   2.169  18.339 -0.5634  0.2240 -0.6819
 2586TIP3    H131953   0.288   2.140  18.262  2.5030 -0.9060  1.4212
 2586TIP3    H231954   0.174   2.102  18.354 -1.9823  1.0559 -2.8674
 2587TIP3   OH231955   0.496   4.438  20.697 -0.3358 -0.1887  0.2864
 2587TIP3    H131956   0.493   4.346  20.670 -1.8991  0.3432 -1.5584
 2587TIP3    H231957   0.409   4.471  20.678  0.3135  1.7925  0.5777
 2588TIP3   OH231958   6.295   3.213  18.173  0.0554 -0.1399 -0.4759
 2588TIP3    H131959   6.219   3.187  18.226  0.0182  1.0259  0.0842
 2588TIP3    H231960   6.334   3.130  18.144 -1.7399 -0.7677 -1.2411
 2589TIP3   OH231961   3.155   2.729  20.763 -0.4981  0.0684  0.2690
 2589TIP3    H131962   3.213   2.656  20.783 -2.2742 -1.4983  0.0093
 2589TIP3    H231963   3.211   2.806  20.765  1.8276 -1.4714 -1.1821
 2590TIP3   OH231964   3.349   0.708  18.863 -0.0579  0.2014 -0.5431
 2590TIP3    H131965   3.342   0.803  18.862 -3.5938  0.1375  1.2906
 2590TIP3    H231966   3.331   0.683  18.954  0.2367 -2.2704 -1.0690
 2591TIP3   OH231967   3.079   2.334  17.809 -0.1777 -0.3917 -0.2698
 2591TIP3    H131968   3.168   2.324  17.842  0.1752  1.5210 -0.5130
 2591TIP3    H231969   3.085   2.406  17.746 -2.4948  2.3439  2.3416
 2592TIP3   OH231970   1.482   6.083  18.076 -0.3092 -0.3035  0.3245
 2592TIP3    H131971   1.555   6.129  18.116  1.3844 -1.4116 -1.3352
 2592TIP3    H231972   1.459   6.135  17.999 -1.1019 -0.1031  0.6864
 2593TIP3   OH231973   3.822   1.753  20.789 -0.1693 -0.3436 -0.1469
 2593TIP3    H131974   3.891   1.754  20.854 -0.8827  0.1909  0.6234
 2593TIP3    H231975   3.806   1.660  20.771  0.0512 -0.4882  0.4152
 2594TIP3   OH231976   0.825   1.304  17.450 -0.0923  0.0082  0.6528
 2594TIP3    H131977   0.851   1.246  17.379  1.4384 -1.3458  2.2521
 2594TIP3    H231978   0.907   1.344  17.480 -0.8937  1.6450  0.7659
 2595TIP3   OH231979   6.633   5.931  19.356 -0.1725  0.0651 -0.1552
 2595TIP3    H131980   6.710   5.939  19.300  0.5593  0.9461  0.9351
 2595TIP3    H231981   6.560   5.955  19.299  0.1945 -1.7556 -1.5020
 2596TIP3   OH231982   3.548   1.982  19.951 -0.3062 -0.0227 -0.0845
 2596TIP3    H131983   3.543   1.983  20.047  0.0947  0.6669 -0.0608
 2596TIP3    H231984   3.601   1.905  19.931  1.9791  1.3251  0.4170
 2597TIP3   OH231985   2.882   2.021  19.170 -0.0419  0.1337 -0.0670
 2597TIP3    H131986   2.935   2.046  19.245 -1.3421  2.1735  0.2294
 2597TIP3    H231987   2.845   2.103  19.137 -1.5348 -0.9974 -1.3892
 2598TIP3   OH231988   0.168   4.331  18.211 -0.5247 -0.1723  0.3941
 2598TIP3    H131989   0.232   4.303  18.275 -0.7035 -0.5741  0.3958
 2598TIP3    H231990   0.199   4.418  18.183 -0.7194  0.2235  1.3801
 2599TIP3   OH231991   4.661   0.899  17.644  0.1283 -0.6455  0.5672
 2599TIP3    H131992   4.729   0.837  17.620 -0.3699 -1.9170  2.2358
 2599TIP3    H231993   4.624   0.928  17.561  2.0796 -0.5965 -0.3402
 2600TIP3   OH231994   5.215   1.252  18.953 -0.9804  0.3759  0.3142
 2600TIP3    H131995   5.284   1.211  19.005  1.2730  0.3787 -2.3947
 2600TIP3    H231996   5.200   1.336  18.995  0.6346  0.3337  1.0667
 2601TIP3   OH231997   0.015   3.260  19.106 -0.2663 -0.2302  0.5491
 2601TIP3    H131998  -0.052   3.263  19.174 -1.7563  0.9527 -0.9015
 2601TIP3    H231999   0.058   3.175  19.119 -2.0927 -1.0739  1.4562
 2602TIP3   OH232000   5.164   1.883  18.308 -0.0233  0.6441 -0.3406
 2602TIP3    H132001   5.113   1.888  18.228  0.0504 -0.5012 -0.4719
 2602TIP3    H232002   5.232   1.950  18.298 -1.2366  1.9395 -0.3199
 2603TIP3   OH232003   2.127   3.495  19.168 -0.4127  0.0107 -0.5017
 2603TIP3    H132004   2.069   3.455  19.103  1.0133 -1.5905 -0.8810
 2603TIP3    H232005   2.149   3.423  19.227  2.1785  0.2065 -1.1302
 2604TIP3   OH232006   0.728   0.948  18.834 -0.1068  0.2204 -0.2528
 2604TIP3    H132007   0.821   0.968  18.833  0.1641 -0.9653 -0.8898
 2604TIP3    H232008   0.707   0.927  18.743 -0.4770 -1.6989  0.2409
 2605TIP3   OH232009   3.102   2.616  20.073 -0.0217 -0.1075  0.8511
 2605TIP3    H132010   3.046   2.687  20.104  0.7061  0.5279  0.7450
 2605TIP3    H232011   3.056   2.536  20.098 -1.2795  0.3871  0.2167
 2606TIP3   OH232012   5.389   6.002  17.849 -0.4198 -0.2919  0.0070
 2606TIP3    H132013   5.468   5.992  17.796 -0.1781  2.5387 -0.3221
 2606TIP3    H232014   5.407   5.954  17.930  2.4186  1.7031  0.6934
 2607TIP3   OH232015   4.195   5.632  19.358 -0.1746 -0.6696  0.3275
 2607TIP3    H132016   4.278   5.620  19.403  0.7001  0.6600 -0.8409
 2607TIP3    H232017   4.138   5.672  19.423  0.6767  0.0650  0.6496
 2608TIP3   OH232018   2.535   0.431  18.274 -0.4197  0.4100 -0.0145
 2608TIP3    H132019   2.592   0.502  18.243  0.4234 -0.1375  0.2618
 2608TIP3    H232020   2.564   0.415  18.363 -0.2526 -0.6290 -0.2500
 2609TIP3   OH232021   0.426   6.138  20.416 -0.8943  0.3472 -0.0906
 2609TIP3    H132022   0.387   6.110  20.334 -0.6167 -1.9109  0.4847
 2609TIP3    H232023   0.500   6.078  20.430  1.1030  2.7136  0.2443
 2610TIP3   OH232024   1.794   1.426  16.871  0.3141 -0.2280  0.3377
 2610TIP3    H132025   1.827   1.458  16.787  0.0947  0.6223  0.5622
 2610TIP3    H232026   1.706   1.463  16.878 -1.1256 -3.1785 -0.6535
 2611TIP3   OH232027   1.304   5.615  20.955 -0.4636  0.2581  0.0278
 2611TIP3    H132028   1.386   5.581  20.919 -0.5575  0.5728 -0.4955
 2611TIP3    H232029   1.330   5.693  21.004 -0.4131  0.1918  0.1079
 2612TIP3   OH232030   4.860   0.147  18.447 -0.1165  0.1267  0.3667
 2612TIP3    H132031   4.927   0.150  18.515  0.6074  0.2504 -0.3405
 2612TIP3    H232032   4.782   0.182  18.490  0.1148 -0.5312  1.3642
 2613TIP3   OH232033   5.183   5.915  18.935  0.2403 -0.5539 -0.0378
 2613TIP3    H132034   5.176   5.871  18.850 -1.1668 -0.5229  0.0395
 2613TIP3    H232035   5.114   5.982  18.932  1.0543  0.3193  0.6193
 2614TIP3   OH232036   0.092   0.423  17.826  0.5198  0.6292 -0.1705
 2614TIP3    H132037   0.100   0.456  17.916  0.1750 -2.1081  0.9477
 2614TIP3    H232038   0.114   0.330  17.832  1.5797  0.5642 -3.1493
 2615TIP3   OH232039   4.867   6.719  17.534 -0.1350 -0.6364 -0.0487
 2615TIP3    H132040   4.906   6.645  17.581  1.2252 -0.5596 -1.0091
 2615TIP3    H232041   4.862   6.690  17.443 -0.0285  0.2669 -0.3543
 2616TIP3   OH232042   4.384   4.313  17.913  0.4460  0.0959  0.2366
 2616TIP3    H132043   4.478   4.299  17.908  0.3318 -0.3970 -0.5977
 2616TIP3    H232044   4.371   4.404  17.887  0.7722  0.4604  1.2972
 2617TIP3   OH232045   6.459   0.967  19.679 -0.0879  0.5833 -0.0328
 2617TIP3    H132046   6.400   0.894  19.696 -0.5922  1.0779  0.3915
 2617TIP3    H232047   6.441   1.030  19.749 -1.3691  2.1493 -1.6395
 2618TIP3   OH232048   2.173   4.663  18.672 -0.2569 -0.0783 -0.4190
 2618TIP3    H132049   2.098   4.634  18.620 -0.6539 -0.3568  0.2935
 2618TIP3    H232050   2.173   4.758  18.662 -0.2290 -0.1395 -1.0515
 2619TIP3   OH232051   1.884   5.695  18.059  0.4795  0.2137 -0.0940
 2619TIP3    H132052   1.849   5.781  18.081  1.7517  0.5025  0.9505
 2619TIP3    H232053   1.876   5.689  17.964  1.6304  2.0831 -0.3489
 2620TIP3   OH232054   6.265   2.815  20.444  0.8055 -0.2754 -0.3110
 2620TIP3    H132055   6.230   2.903  20.456  1.9815  0.3880 -1.5202
 2620TIP3    H232056   6.212   2.777  20.374 -1.0501 -1.3339  1.5732
 2621TIP3   OH232057   4.210   1.802  19.153 -0.2310  0.5477  0.1926
 2621TIP3    H132058   4.266   1.749  19.095  0.9636  2.1591 -0.2232
 2621TIP3    H232059   4.140   1.743  19.180 -0.4051 -0.5097 -2.2814
 2622TIP3   OH232060   4.973   1.148  20.065 -0.2131  0.1073 -0.9441
 2622TIP3    H132061   5.006   1.134  19.976 -0.6223 -0.4216 -1.0147
 2622TIP3    H232062   4.910   1.219  20.056  0.7475  1.0026 -0.8393
 2623TIP3   OH232063   0.752   5.825  19.188  0.4219 -0.4828 -0.4695
 2623TIP3    H132064   0.816   5.811  19.118  0.2441  2.0694 -1.2346
 2623TIP3    H232065   0.770   5.914  19.219 -1.2536 -0.5743  0.9061
 2624TIP3   OH232066   2.765   1.038  18.499  0.1223 -0.0491  0.0112
 2624TIP3    H132067   2.799   0.965  18.551 -0.5051 -0.7412 -0.5272
 2624TIP3    H232068   2.694   1.075  18.553  0.4567  0.1922  0.2945
 2625TIP3   OH232069   2.662   0.662  17.903  0.0897 -0.1552  0.5780
 2625TIP3    H132070   2.627   0.652  17.814 -1.2843  2.1678  0.7853
 2625TIP3    H232071   2.590   0.638  17.961  1.5085 -3.4624  1.2436
 2626TIP3   OH232072   2.338   2.598  19.432 -0.1840 -0.0252  0.7311
 2626TIP3    H132073   2.289   2.666  19.478 -0.0731 -0.3242  1.2984
 2626TIP3    H232074   2.271   2.544  19.390 -0.2646  0.5716  0.0592
 2627TIP3   OH232075   2.271   6.338  18.689  0.1494 -0.0728 -0.0854
 2627TIP3    H132076   2.218   6.290  18.626 -1.5616 -0.2616  1.4174
 2627TIP3    H232077   2.294   6.419  18.644 -2.7925  0.7579 -0.3267
 2628TIP3   OH232078   5.501   0.510  20.051 -0.1294  0.3978 -0.0333
 2628TIP3    H132079   5.544   0.561  20.121  1.5092  0.8897 -1.3413
 2628TIP3    H232080   5.565   0.443  20.028 -1.2095 -0.6100 -0.1661
 2629TIP3   OH232081   1.460   0.795  19.159 -0.0931 -0.1537 -0.4652
 2629TIP3    H132082   1.462   0.741  19.238  0.1385 -0.5355 -0.7299
 2629TIP3    H232083   1.550   0.826  19.148 -0.0086 -0.5351 -0.8738
 2630TIP3   OH232084   3.125   2.816  18.498 -0.0662  0.5846 -0.1054
 2630TIP3    H132085   3.217   2.829  18.473  0.9435 -0.4039  2.6030
 2630TIP3    H232086   3.088   2.764  18.428  1.1700  1.7474 -1.7031
 2631TIP3   OH232087   5.928   6.286  19.713 -0.1919  0.1343 -0.0047
 2631TIP3    H132088   5.992   6.221  19.741 -0.2322 -0.8036 -1.9249
 2631TIP3    H232089   5.979   6.366  19.702 -0.0131  0.2938  1.6792
 2632TIP3   OH232090   6.381   0.986  17.883  0.4165 -0.6538 -0.4278
 2632TIP3    H132091   6.345   1.075  17.880  0.7320 -0.4666  0.7076
 2632TIP3    H232092   6.425   0.982  17.968  0.5351 -1.8543 -0.5390
 2633TIP3   OH232093   0.434   2.144  17.792 -0.2306 -0.3394  0.2532
 2633TIP3    H132094   0.435   2.056  17.831 -1.3015 -0.4719 -0.0123
 2633TIP3    H232095   0.526   2.172  17.796  0.0637 -1.3125  0.6837
 2634TIP3   OH232096   1.862   3.633  19.194  0.0709  0.5303 -0.0684
 2634TIP3    H132097   1.865   3.723  19.225  0.7703  0.3524  0.3977
 2634TIP3    H232098   1.863   3.641  19.098 -1.8692  1.0672 -0.0889
 2635TIP3   OH232099   5.851   2.124  19.989 -1.1523 -0.2240 -0.1934
 2635TIP3    H132100   5.815   2.158  19.906 -2.0291 -0.8983 -0.1075
 2635TIP3    H232101   5.874   2.033  19.969 -0.2593 -0.0485 -0.0048
 2636TIP3   OH232102   2.053   4.722  19.581  0.5498 -0.6039  0.2003
 2636TIP3    H132103   2.088   4.669  19.509 -1.4549 -1.0155 -0.5280
 2636TIP3    H232104   2.079   4.811  19.559  1.0903 -0.8823 -0.3399
 2637TIP3   OH232105   1.087   1.476  18.212 -0.6772 -0.2471 -0.1816
 2637TIP3    H132106   1.169   1.437  18.182 -1.4169 -1.5734 -0.5520
 2637TIP3    H232107   1.071   1.548  18.151  0.7083  0.7030  0.5177
 2638TIP3   OH232108   2.816   1.282  19.996  0.6995 -0.3144  0.1481
 2638TIP3    H132109   2.876   1.208  19.987  1.0330 -0.1480  0.9253
 2638TIP3    H232110   2.760   1.258  20.070  0.4413 -0.0362  0.0439
 2639TIP3   OH232111   1.491   2.527  18.019  0.0223 -0.1295 -0.2286
 2639TIP3    H132112   1.515   2.480  17.939 -0.9974 -0.2869 -0.4499
 2639TIP3    H232113   1.405   2.493  18.042 -0.1183  0.6252  0.3986
 2640TIP3   OH232114   5.802   0.278  18.721  0.5067  0.8671 -0.1298
 2640TIP3    H132115   5.838   0.346  18.663  0.2194  1.3268  0.2195
 2640TIP3    H232116   5.760   0.216  18.661  1.3634  0.6300 -0.4986
 2641TIP3   OH232117   2.391   6.226  19.885  0.3236 -0.3290  0.0142
 2641TIP3    H132118   2.336   6.301  19.862  1.5689  0.5054 -0.3329
 2641TIP3    H232119   2.329   6.160  19.917 -0.7912  0.9042  0.5166
 2642TIP3   OH232120   0.504   2.380  19.544 -0.2975  0.2379  0.4485
 2642TIP3    H132121   0.426   2.366  19.598 -0.8316 -1.1994 -0.6314
 2642TIP3    H232122   0.535   2.291  19.525  1.3426  0.7891  0.4655
 2643TIP3   OH232123   3.098   1.876  18.817 -0.1510 -0.1143  0.2488
 2643TIP3    H132124   3.174   1.926  18.846 -0.7332  1.1201 -0.2382
 2643TIP3    H232125   3.111   1.864  18.723 -1.4956  1.9776 -0.2847
 2644TIP3   OH232126   4.770   1.231  17.748  0.2510 -0.4877  0.0931
 2644TIP3    H132127   4.786   1.187  17.831 -0.0043  1.4572  1.2396
 2644TIP3    H232128   4.705   1.177  17.703 -1.8988 -0.0801  2.4947
 2645TIP3   OH232129   5.963   3.326  19.424  0.2631  0.1032 -0.3319
 2645TIP3    H132130   5.980   3.239  19.461  3.3599  0.9662  0.5991
 2645TIP3    H232131   6.011   3.327  19.342 -2.6223 -0.1307 -2.1513
 2646TIP3   OH232132   4.740   4.075  18.764  0.2349  0.0304  0.9512
 2646TIP3    H132133   4.707   4.122  18.841 -1.1378 -0.1765  0.5252
 2646TIP3    H232134   4.721   3.983  18.783  1.8398 -0.2590  1.2685
 2647TIP3   OH232135   4.612   0.259  17.947 -0.0878 -0.1068  0.0436
 2647TIP3    H132136   4.519   0.240  17.954 -0.3302  1.1930  0.6135
 2647TIP3    H232137   4.655   0.177  17.970 -1.0784 -0.7700 -0.3798
 2648TIP3   OH232138   3.145   2.319  20.515 -0.1830  0.2682 -0.1090
 2648TIP3    H132139   3.159   2.413  20.512  0.7086  0.1511  0.0639
 2648TIP3    H232140   3.154   2.296  20.608 -0.2448 -0.0081 -0.1681
 2649TIP3   OH232141   0.903   3.187  18.722 -0.3059 -0.3374  0.3097
 2649TIP3    H132142   0.890   3.281  18.708  0.9371  0.2394  2.4744
 2649TIP3    H232143   0.979   3.165  18.668 -1.8590 -0.6429 -1.8559
 2650TIP3   OH232144   6.435   6.542  18.530 -0.1522 -0.3442 -0.0497
 2650TIP3    H132145   6.466   6.621  18.573 -0.1454 -0.3331 -0.0753
 2650TIP3    H232146   6.514   6.502  18.492 -0.0460 -0.7183  0.5467
 2651TIP3   OH232147   1.688   2.478  18.673 -0.2146  0.3706  0.2979
 2651TIP3    H132148   1.727   2.462  18.759  0.9585 -1.4797 -0.5127
 2651TIP3    H232149   1.751   2.536  18.629 -0.1975  0.3324  0.2714
 2652TIP3   OH232150   5.008   3.049  19.145  0.0539 -0.3460 -0.5978
 2652TIP3    H132151   4.975   2.960  19.159 -1.7287  0.0067 -2.0506
 2652TIP3    H232152   5.006   3.089  19.231  0.6107 -1.6188  0.0327
 2653TIP3   OH232153   2.770   3.186  19.588  0.4557  0.0389 -0.6090
 2653TIP3    H132154   2.730   3.101  19.604  0.4212  0.1644 -0.0026
 2653TIP3    H232155   2.815   3.176  19.504 -0.4702 -0.2402 -1.0899
 2654TIP3   OH232156   0.607   0.633  17.836 -0.4048 -0.4201  0.0460
 2654TIP3    H132157   0.627   0.725  17.853 -1.6326 -0.3394  1.2093
 2654TIP3    H232158   0.548   0.635  17.760  0.0900 -0.3024 -0.3389
 2655TIP3   OH232159   4.857   1.317  18.818  0.0847 -0.3379  0.2681
 2655TIP3    H132160   4.914   1.245  18.793 -1.8451 -1.6129 -0.7138
 2655TIP3    H232161   4.875   1.332  18.911  2.6544 -0.0071 -0.2207
 2656TIP3   OH232162   2.738   4.497  18.743 -0.6142  0.3860  0.3756
 2656TIP3    H132163   2.807   4.467  18.684  1.2662  1.4870  1.8651
 2656TIP3    H232164   2.708   4.580  18.705  0.4976  1.0276  0.8532
 2657TIP3   OH232165   1.679   0.457  19.265 -0.0272 -0.4533  0.0416
 2657TIP3    H132166   1.632   0.478  19.346  0.6189 -0.4652  0.4314
 2657TIP3    H232167   1.610   0.445  19.200 -0.5247  0.3198  0.4089
 2658TIP3   OH232168   2.373   2.860  19.277 -0.2082  0.5218 -0.8096
 2658TIP3    H132169   2.371   2.853  19.373  0.1964 -0.0378 -0.8391
 2658TIP3    H232170   2.452   2.814  19.251 -0.5178  0.3360 -1.4492
 2659TIP3   OH232171   4.653   6.000  19.037  0.2372  0.0670 -0.3592
 2659TIP3    H132172   4.680   6.083  19.075  0.9159  1.3893 -3.4324
 2659TIP3    H232173   4.733   5.964  18.998 -0.9114  0.6400 -3.5792
 2660TIP3   OH232174   0.026   3.527  18.276 -0.9099  0.3332  0.3307
 2660TIP3    H132175   0.064   3.507  18.362 -1.7410  1.5623  1.0180
 2660TIP3    H232176   0.083   3.594  18.240 -0.2959 -0.5077 -0.3102
 2661TIP3   OH232177   4.593   6.500  19.030 -0.0245 -0.0476  0.5647
 2661TIP3    H132178   4.608   6.518  19.123  1.6347  0.1237  0.2861
 2661TIP3    H232179   4.625   6.579  18.985  0.2328 -0.5871 -0.2124
 2662TIP3   OH232180   4.325   5.934  19.790  0.1414 -0.2237  0.0557
 2662TIP3    H132181   4.242   5.906  19.831 -0.1108  0.7059  0.1990
 2662TIP3    H232182   4.370   5.982  19.859  2.3126 -3.3735  1.0883
 2663TIP3   OH232183   4.131   5.754  18.814 -0.0196 -0.1414 -0.1803
 2663TIP3    H132184   4.073   5.756  18.890 -1.8962  1.4001 -1.5559
 2663TIP3    H232185   4.174   5.669  18.819 -0.9120 -0.5313  1.9920
 2664TIP3   OH232186   5.012   2.177  18.013 -0.0919 -0.2354 -0.3976
 2664TIP3    H132187   5.091   2.197  17.963  1.2004 -0.8274  1.3033
 2664TIP3    H232188   5.018   2.234  18.090 -0.5657 -1.3216  0.4632
 2665TIP3   OH232189   1.425   1.573  18.013 -0.4058 -0.1942 -0.4257
 2665TIP3    H132190   1.497   1.517  17.982 -0.7625 -0.2149 -1.2255
 2665TIP3    H232191   1.469   1.644  18.059  0.0463 -2.6304  3.4312
 2666TIP3   OH232192   0.540   4.664  20.366  0.1236  0.0386  0.1214
 2666TIP3    H132193   0.587   4.732  20.318 -0.0148  1.1189  1.4531
 2666TIP3    H232194   0.594   4.647  20.443 -1.2547  0.7642  1.2926
 2667TIP3   OH232195   2.862   0.826  19.792 -0.1420  0.3039  0.0702
 2667TIP3    H132196   2.954   0.804  19.780 -0.3386 -0.8215  0.4353
 2667TIP3    H232197   2.814   0.753  19.753 -0.8858  0.8878 -0.1443
 2668TIP3   OH232198   1.417   1.364  18.517  0.1291  0.1752  0.2804
 2668TIP3    H132199   1.386   1.349  18.606  2.0351  0.0971  0.9640
 2668TIP3    H232200   1.505   1.398  18.527  0.3127  0.3721 -1.5860
 2669TIP3   OH232201   2.711   0.929  20.029  0.0266  0.5597 -0.1964
 2669TIP3    H132202   2.739   0.913  19.939  2.7309  0.3555  0.5801
 2669TIP3    H232203   2.749   0.857  20.079 -0.3074  1.3689  1.2813
 2670TIP3   OH232204   1.919   0.137  17.531 -0.5454 -0.4393  0.5325
 2670TIP3    H132205   1.978   0.063  17.546 -0.7887 -0.5086  1.1454
 2670TIP3    H232206   1.843   0.098  17.486 -0.0046 -0.2996 -0.5374
 2671TIP3   OH232207   0.451   3.592  17.307 -0.3557  0.2014  0.1364
 2671TIP3    H132208   0.415   3.505  17.322  0.4548 -0.2374 -0.3826
 2671TIP3    H232209   0.510   3.581  17.232  1.4227  0.7251  1.4098
 2672TIP3   OH232210   1.923   4.480  18.093  0.1283  0.3663 -0.6072
 2672TIP3    H132211   1.974   4.468  18.013 -1.1548 -0.4449 -1.3417
 2672TIP3    H232212   1.844   4.525  18.065 -1.3592 -1.8461 -0.2519
 2673TIP3   OH232213   4.975   4.655  19.865 -0.0922 -0.0369  0.4391
 2673TIP3    H132214   4.884   4.682  19.878 -0.4885 -0.9319 -0.3763
 2673TIP3    H232215   4.994   4.599  19.940 -0.8819 -1.4617 -0.3815
 2674TIP3   OH232216   0.981   0.797  19.956  0.4590 -0.0107  0.0713
 2674TIP3    H132217   0.912   0.739  19.989  1.4240 -2.0768 -1.3581
 2674TIP3    H232218   1.048   0.795  20.025  0.3671 -0.3966  0.1568
 2675TIP3   OH232219   1.251   3.785  20.804 -0.0480  0.0860 -0.2795
 2675TIP3    H132220   1.158   3.769  20.820 -0.3101  0.0335 -1.7036
 2675TIP3    H232221   1.290   3.788  20.891 -1.0911 -1.6287  0.2919
 2676TIP3   OH232222   5.960   1.712  17.246 -0.2983 -0.7322  0.1313
 2676TIP3    H132223   5.939   1.690  17.337  0.4114 -1.4155  0.1425
 2676TIP3    H232224   5.919   1.643  17.195 -2.4880  0.7656 -0.2654
 2677TIP3   OH232225   2.116   3.402  19.951 -0.4666 -0.5581 -0.0591
 2677TIP3    H132226   2.129   3.487  19.993 -0.5490 -0.5630 -0.0226
 2677TIP3    H232227   2.198   3.355  19.965 -0.7693 -0.8530  0.7817
 2678TIP3   OH232228   4.804   4.205  19.404  0.4086 -0.4094  0.2097
 2678TIP3    H132229   4.835   4.241  19.487 -1.3807  0.9836  0.3314
 2678TIP3    H232230   4.813   4.277  19.341 -0.3612 -0.7190 -0.2702
 2679TIP3   OH232231   1.096   6.401  20.577  0.1366 -0.1639  0.0022
 2679TIP3    H132232   1.177   6.409  20.628  0.1875  0.8626 -0.2150
 2679TIP3    H232233   1.027   6.402  20.642  0.2781 -0.6637  0.1648
 2680TIP3   OH232234   0.963   2.145  20.494 -0.2333  0.0033 -0.1220
 2680TIP3    H132235   0.952   2.215  20.430  0.8281 -1.1851 -1.6506
 2680TIP3    H232236   1.058   2.136  20.504 -0.3690 -0.6721  0.6805
 2681TIP3   OH232237   5.475   5.065  18.620 -0.6254  0.4244 -0.1282
 2681TIP3    H132238   5.495   5.149  18.578  1.5803 -0.4643 -1.0041
 2681TIP3    H232239   5.523   5.069  18.703 -0.4725  0.0296 -0.1964
 2682TIP3   OH232240   6.736   3.717  17.904 -0.8161 -0.1532 -0.5154
 2682TIP3    H132241   6.706   3.697  17.816  0.9181 -1.2250 -0.9069
 2682TIP3    H232242   6.697   3.649  17.959 -1.0280 -0.1233 -0.6291
 2683TIP3   OH232243   1.964   6.393  18.511 -0.1765 -0.2434 -0.1827
 2683TIP3    H132244   2.022   6.462  18.478  0.2235  0.1144  1.1553
 2683TIP3    H232245   1.907   6.439  18.574 -2.0795 -0.5510 -1.6101
 2684TIP3   OH232246   6.261   1.932  18.754 -0.1374  0.0339 -0.3497
 2684TIP3    H132247   6.241   1.998  18.688  2.5183  1.3006 -0.0089
 2684TIP3    H232248   6.261   1.980  18.837  0.7101 -0.6407  0.0555
 2685TIP3   OH232249   4.193   3.751  20.265  0.1438 -0.6649  0.0775
 2685TIP3    H132250   4.138   3.694  20.211 -0.8860 -0.5372  0.9536
 2685TIP3    H232251   4.163   3.736  20.355  0.3408  0.6995  0.3977
 2686TIP3   OH232252   5.518   4.978  19.951  0.0316  0.0095 -0.3069
 2686TIP3    H132253   5.530   5.061  19.997 -0.2751 -0.5150  0.7590
 2686TIP3    H232254   5.434   4.945  19.983  1.4407 -2.0663  1.4946
 2687TIP3   OH232255   0.928   0.911  18.285 -0.3915 -0.0598  0.4250
 2687TIP3    H132256   0.924   1.007  18.282  1.2894  0.0654  1.2200
 2687TIP3    H232257   0.969   0.886  18.203  1.6124  0.1117  1.3329
 2688TIP3   OH232258   3.765   1.559  17.815  0.0091 -0.4090 -0.2921
 2688TIP3    H132259   3.700   1.629  17.809  0.2176 -0.1216  0.6473
 2688TIP3    H232260   3.849   1.603  17.806  0.0912 -0.8041 -1.6875
 2689TIP3   OH232261   4.189   0.573  19.557  0.5503  0.6601 -0.7855
 2689TIP3    H132262   4.260   0.615  19.604  1.6775 -2.1085  0.1884
 2689TIP3    H232263   4.232   0.507  19.502 -1.1819 -0.6118 -0.6959
 2690TIP3   OH232264   1.058   3.795  18.902 -0.2958  0.3039 -0.0747
 2690TIP3    H132265   1.075   3.856  18.830 -1.5581 -1.1198 -1.6525
 2690TIP3    H232266   0.992   3.840  18.955 -1.8065  0.0514 -1.6548
 2691TIP3   OH232267   4.808   3.828  18.068 -0.2407  0.1640  0.0562
 2691TIP3    H132268   4.728   3.814  18.016 -1.1386  1.6158  0.9802
 2691TIP3    H232269   4.877   3.842  18.003 -0.5805 -1.7664 -0.7681
 2692TIP3   OH232270   4.191   1.241  19.852  0.3170  0.4674 -0.5125
 2692TIP3    H132271   4.261   1.238  19.787 -0.4868 -1.2644 -1.3398
 2692TIP3    H232272   4.141   1.320  19.829  1.3567  1.1385 -0.5521
 2693TIP3   OH232273   1.297   0.685  20.535 -0.0107  0.3937 -0.0179
 2693TIP3    H132274   1.281   0.767  20.580  1.2919 -0.0089  1.2626
 2693TIP3    H232275   1.389   0.691  20.507  0.1736 -0.7004  0.3066
 2694TIP3   OH232276   0.267   2.473  19.144  0.5216  0.4199 -0.3643
 2694TIP3    H132277   0.261   2.497  19.051  0.7479 -0.7767 -0.7073
 2694TIP3    H232278   0.223   2.389  19.150  0.2258  0.6424  0.6881
 2695TIP3   OH232279   6.169   5.076  19.541 -0.7450 -0.2769  0.0550
 2695TIP3    H132280   6.132   4.990  19.524 -0.2628 -0.8324  1.7104
 2695TIP3    H232281   6.261   5.068  19.515 -0.7339 -0.2132  0.0736
 2696TIP3   OH232282   6.067   3.564  17.638 -0.5523 -0.2969  0.1725
 2696TIP3    H132283   6.097   3.654  17.629  0.9228 -0.5002  2.2894
 2696TIP3    H232284   6.095   3.521  17.557  0.0939  0.7905 -0.2059
 2697TIP3   OH232285   1.969   1.261  18.765 -0.0529 -0.1590  0.2285
 2697TIP3    H132286   2.000   1.247  18.855 -0.0604  0.8057  0.3966
 2697TIP3    H232287   2.039   1.312  18.724 -0.0514 -0.6024 -0.3197
 2698TIP3   OH232288   0.992   2.028  19.940  0.5119  0.0107  0.1121
 2698TIP3    H132289   0.943   2.108  19.918  0.4970  0.0918  0.4347
 2698TIP3    H232290   0.959   1.963  19.878 -2.9428 -1.0498  2.7157
 2699TIP3   OH232291   1.453   4.902  20.253  0.2011 -0.1461  0.1292
 2699TIP3    H132292   1.437   4.960  20.179  0.0252 -0.0037  0.2762
 2699TIP3    H232293   1.450   4.814  20.216  1.8921 -0.0295 -0.3719
 2700TIP3   OH232294   3.009   0.349  18.806  0.5211  0.3536 -0.6324
 2700TIP3    H132295   3.050   0.278  18.757 -0.3811 -0.3981 -0.3314
 2700TIP3    H232296   2.966   0.305  18.879 -2.4164  0.8440 -1.9288
 2701TIP3   OH232297   1.326   5.206  17.347 -0.2078  0.1409 -0.2677
 2701TIP3    H132298   1.380   5.278  17.381 -2.2605  2.5152 -1.6471
 2701TIP3    H232299   1.287   5.167  17.425 -0.4996  1.7884  0.4564
 2702TIP3   OH232300   4.408   2.684  18.508  0.7177  0.1800 -0.4112
 2702TIP3    H132301   4.381   2.768  18.546 -0.7743 -0.2471 -0.4432
 2702TIP3    H232302   4.442   2.634  18.583 -2.0489 -0.5898  0.4533
 2703TIP3   OH232303   6.538   6.462  16.833  0.4410 -0.1615  0.5544
 2703TIP3    H132304   6.465   6.405  16.810  0.6108 -0.2216  0.1712
 2703TIP3    H232305   6.547   6.521  16.759  1.7170 -1.0846 -0.0409
 2704TIP3   OH232306   5.455   0.349  18.731 -0.1392 -0.4061  0.1351
 2704TIP3    H132307   5.498   0.368  18.648 -2.2658  0.4991 -0.8427
 2704TIP3    H232308   5.421   0.434  18.760 -0.6984 -0.9637  1.1651
 2705TIP3   OH232309   3.120   3.947  19.477  0.0583  0.0287  0.3162
 2705TIP3    H132310   3.092   4.012  19.413  2.9631  0.5055 -0.6238
 2705TIP3    H232311   3.072   3.868  19.454 -1.1295  0.9643 -0.5601
 2706TIP3   OH232312   3.503   3.041  18.567  0.2255 -0.1137  0.0791
 2706TIP3    H132313   3.474   2.979  18.633 -1.3936  1.7598  1.2395
 2706TIP3    H232314   3.595   3.059  18.588  0.0683 -0.4600  1.0659
 2707TIP3   OH232315   3.281   3.376  18.026  0.1010  0.0443 -0.7342
 2707TIP3    H132316   3.283   3.471  18.038  0.2719  0.2703 -2.3633
 2707TIP3    H232317   3.367   3.355  17.989 -1.1490 -0.1991 -3.7822
 2708TIP3   OH232318   5.146   6.110  20.303  0.6117 -0.3081  0.0173
 2708TIP3    H132319   5.118   6.131  20.213 -0.5976 -0.0380  0.4354
 2708TIP3    H232320   5.132   6.192  20.351  1.8869 -0.2551  0.3184
 2709TIP3   OH232321   1.854   3.360  19.301 -0.3925 -0.1504  0.0897
 2709TIP3    H132322   1.891   3.340  19.387  1.6134 -2.3210 -1.1466
 2709TIP3    H232323   1.892   3.445  19.278  1.1841 -0.7655  0.3003
 2710TIP3   OH232324   5.377   5.785  18.424 -0.3410  0.5468  0.5033
 2710TIP3    H132325   5.457   5.771  18.475 -0.8311  0.2608  1.2213
 2710TIP3    H232326   5.337   5.698  18.419  0.5181  0.2329 -1.8313
 2711TIP3   OH232327   2.389   1.187  17.840 -0.8831  0.0354  0.0534
 2711TIP3    H132328   2.385   1.208  17.933  0.6938 -0.7146  0.3260
 2711TIP3    H232329   2.449   1.252  17.803 -0.8408 -0.1835 -0.2703
 2712TIP3   OH232330   0.271   5.025  18.867  0.3991  0.2928 -0.0509
 2712TIP3    H132331   0.187   5.054  18.903  1.0533  1.7879  0.3223
 2712TIP3    H232332   0.260   5.033  18.772 -0.1940 -0.4929 -0.0696
 2713TIP3   OH232333   2.617   2.826  19.188 -0.0898 -0.2876  0.3245
 2713TIP3    H132334   2.698   2.776  19.183  0.4966  0.4693  1.6710
 2713TIP3    H232335   2.583   2.827  19.099  0.9628 -1.2917 -0.1049
 2714TIP3   OH232336   0.693   1.592  17.354 -0.1224  0.3793  0.1459
 2714TIP3    H132337   0.708   1.529  17.424 -0.1226  1.6270  1.2985
 2714TIP3    H232338   0.599   1.610  17.358 -0.2240  0.0493 -0.5482
 2715TIP3   OH232339   1.410   4.868  18.477  0.0364 -0.2863  0.1003
 2715TIP3    H132340   1.440   4.950  18.438  1.5178 -0.8283  0.0337
 2715TIP3    H232341   1.446   4.800  18.420 -0.6298 -0.9962  0.5153
 2716TIP3   OH232342   3.143   0.310  20.319  0.2131 -0.2444 -0.0209
 2716TIP3    H132343   3.055   0.282  20.295 -0.0727  0.2390  0.4460
 2716TIP3    H232344   3.192   0.229  20.332 -0.0440 -0.5138 -0.6987
 2717TIP3   OH232345   1.334   2.782  19.951 -0.0822  0.2337 -0.1371
 2717TIP3    H132346   1.257   2.806  19.900  1.1537  1.3998 -1.5521
 2717TIP3    H232347   1.379   2.717  19.897 -0.6200 -1.3486  1.2131
 2718TIP3   OH232348   2.304   3.473  18.870 -0.0655  0.0163  0.1853
 2718TIP3    H132349   2.257   3.422  18.935  0.5302 -0.1907  0.4690
 2718TIP3    H232350   2.375   3.515  18.920  1.1999 -1.1816 -0.5162
 2719TIP3   OH232351   6.615   3.444  20.172 -0.0990 -0.4561  0.3219
 2719TIP3    H132352   6.636   3.509  20.104 -0.7431  0.2590  0.7845
 2719TIP3    H232353   6.697   3.433  20.220 -0.3226  1.1063  1.1225
 2720TIP3   OH232354   0.211   0.986  20.245  0.0326 -0.1660  0.3579
 2720TIP3    H132355   0.155   0.990  20.168  0.6009 -0.3174 -0.0674
 2720TIP3    H232356   0.262   1.067  20.242  0.7268 -0.6061  0.0488
 2721TIP3   OH232357   4.759   0.208  17.665  0.1217 -0.3063 -0.3676
 2721TIP3    H132358   4.787   0.128  17.622  0.1487 -1.1531  1.1489
 2721TIP3    H232359   4.697   0.179  17.732  0.6094  0.8562  0.6240
 2722TIP3   OH232360   2.828   1.569  18.423  0.2132  0.0630  0.0646
 2722TIP3    H132361   2.796   1.629  18.356 -1.3485  0.9055  1.5105
 2722TIP3    H232362   2.774   1.491  18.413  1.8958 -0.9790 -1.4714
 2723TIP3   OH232363   0.333   4.532  18.166 -0.5723 -0.0908  0.1417
 2723TIP3    H132364   0.370   4.512  18.252 -1.5863 -1.1573  0.3631
 2723TIP3    H232365   0.281   4.611  18.180  1.2938  1.2439 -0.1042
 2724TIP3   OH232366   4.329   3.989  20.901 -0.1170  0.0142  0.4467
 2724TIP3    H132367   4.363   3.911  20.857  2.1526  0.9833  0.3637
 2724TIP3    H232368   4.407   4.037  20.929 -1.4679  1.5206  1.8421
 2725TIP3   OH232369   0.720   1.004  17.432 -0.1510 -0.0939 -0.1258
 2725TIP3    H132370   0.812   1.011  17.459 -0.4028 -1.2032  1.0915
 2725TIP3    H232371   0.724   0.965  17.345  0.5394  0.2033 -0.2391
 2726TIP3   OH232372   2.918   6.657  17.654  0.8121  0.3902  0.4467
 2726TIP3    H132373   2.880   6.569  17.654 -0.2955  0.7438 -2.2940
 2726TIP3    H232374   2.845   6.714  17.679  0.3458  0.7785 -1.5736
 2727TIP3   OH232375   0.620   5.602  18.351 -0.0528  0.8313 -0.5263
 2727TIP3    H132376   0.657   5.530  18.300  0.9180 -0.4418  1.8093
 2727TIP3    H232377   0.560   5.560  18.412 -0.7837  2.2276 -0.2360
 2728TIP3   OH232378   6.280   4.531  19.699  0.5957 -0.0857 -0.3222
 2728TIP3    H132379   6.294   4.603  19.761 -0.9199  1.9450 -2.1398
 2728TIP3    H232380   6.272   4.575  19.614  0.1945 -2.5051 -1.6143
 2729TIP3   OH232381   3.539   2.263  20.907 -0.2271  0.3988 -0.4255
 2729TIP3    H132382   3.481   2.326  20.864  0.4182  0.4551 -1.2297
 2729TIP3    H232383   3.599   2.317  20.959  0.4908  0.4882 -1.3159
 2730TIP3   OH232384   2.007   1.315  19.516 -0.0736  0.2178  0.1273
 2730TIP3    H132385   2.008   1.232  19.565  0.2682 -0.1490 -0.4931
 2730TIP3    H232386   1.993   1.289  19.425 -0.5099  0.8832 -0.0010
 2731TIP3   OH232387   1.640   6.018  18.664 -0.5925 -0.6646 -0.0932
 2731TIP3    H132388   1.593   6.077  18.723 -1.1226 -2.1466  1.0113
 2731TIP3    H232389   1.700   6.076  18.615 -1.5927  0.8646  0.4302
 2732TIP3   OH232390   2.158   0.756  18.521 -0.4464  0.4011  0.6976
 2732TIP3    H132391   2.099   0.749  18.446  1.6163 -1.7801 -0.8643
 2732TIP3    H232392   2.117   0.822  18.577 -2.1580  2.0526 -2.2311
 2733TIP3   OH232393   3.106   2.091  17.983 -0.1879  0.1435 -0.3259
 2733TIP3    H132394   3.030   2.045  17.946 -0.9724  0.5130  0.7747
 2733TIP3    H232395   3.135   2.149  17.913 -2.0273  1.2895 -0.2162
 2734TIP3   OH232396   3.948   4.367  20.815 -0.0230 -0.5362 -0.0349
 2734TIP3    H132397   4.013   4.306  20.848  0.6490 -0.3618 -1.0132
 2734TIP3    H232398   3.870   4.313  20.799  0.3520 -1.0133 -0.2711
 2735TIP3   OH232399   4.670   2.464  19.057 -0.0826 -0.5493  0.6192
 2735TIP3    H132400   4.696   2.521  18.984  0.0052  0.2619  1.2681
 2735TIP3    H232401   4.668   2.522  19.133 -0.4042 -1.3357  1.2236
 2736TIP3   OH232402   3.187   4.536  19.721  0.2219  0.4324 -0.2994
 2736TIP3    H132403   3.123   4.507  19.656  1.0704 -0.3656 -0.8089
 2736TIP3    H232404   3.146   4.516  19.805 -0.4541  0.5134 -0.6001
 2737TIP3   OH232405   2.248   4.460  18.949  0.5924  0.0547  0.6011
 2737TIP3    H132406   2.175   4.488  18.893 -0.8455 -2.1239  1.2312
 2737TIP3    H232407   2.268   4.537  19.002 -2.1799  0.4344  1.2863
 2738TIP3   OH232408   0.792   6.425  19.036  0.1732  0.6535  0.1860
 2738TIP3    H132409   0.720   6.488  19.045 -0.6569 -0.4933  2.1193
 2738TIP3    H232410   0.765   6.367  18.966  0.0952  1.3211 -0.3506
 2739TIP3   OH232411   6.497   0.732  19.137  0.1187 -0.4484 -0.4278
 2739TIP3    H132412   6.558   0.676  19.185  0.6754 -0.3431 -0.9981
 2739TIP3    H232413   6.536   0.820  19.142 -0.6135 -0.1470  0.2363
 2740TIP3   OH232414   2.513   4.257  17.488  0.1650 -0.0003 -0.5874
 2740TIP3    H132415   2.544   4.215  17.569  0.9212  1.4780 -0.0716
 2740TIP3    H232416   2.575   4.328  17.473 -0.6838  0.5086 -1.8031
 2741TIP3   OH232417   1.501   2.165  19.648  0.1072 -0.7448  0.0578
 2741TIP3    H132418   1.418   2.187  19.690  0.4440 -0.1865  0.4587
 2741TIP3    H232419   1.503   2.070  19.647 -0.2559 -0.7658  0.6243
 2742TIP3   OH232420   4.326   1.605  19.513  0.5098  0.1318 -0.5706
 2742TIP3    H132421   4.231   1.616  19.518  0.5085 -0.3301  0.8239
 2742TIP3    H232422   4.358   1.639  19.597  1.7645  1.8881 -1.6857
 2743TIP3   OH232423   1.096   1.003  17.528 -0.4363 -0.3091 -0.0676
 2743TIP3    H132424   1.172   0.968  17.575 -0.1943  0.7069  0.3113
 2743TIP3    H232425   1.122   1.092  17.503 -1.2547 -0.1940 -0.5283
 2744TIP3   OH232426   0.417   0.157  18.188 -0.4268 -0.4516  0.2033
 2744TIP3    H132427   0.337   0.131  18.233 -1.1123  1.6516  0.3275
 2744TIP3    H232428   0.421   0.099  18.111 -1.1764 -1.6584  1.0406
 2745TIP3   OH232429   5.640   6.658  19.941 -0.4788 -0.4241  0.1479
 2745TIP3    H132430   5.681   6.587  19.892  0.0356 -1.2942  1.7592
 2745TIP3    H232431   5.697   6.733  19.927 -1.1446 -0.2124 -1.7512
 2746TIP3   OH232432   5.664   2.851  19.195 -0.2144  0.1471 -0.1401
 2746TIP3    H132433   5.688   2.885  19.108 -0.0234 -1.3007 -0.6719
 2746TIP3    H232434   5.607   2.919  19.232  2.3167  2.4053  0.0146
 2747TIP3   OH232435   1.774   0.046  20.805 -0.2425 -0.0972  0.1936
 2747TIP3    H132436   1.806   0.136  20.815  2.2612 -0.8925  0.0167
 2747TIP3    H232437   1.799   0.021  20.716  1.7531 -1.8583  1.1488
 2748TIP3   OH232438   2.341   4.507  17.773 -0.5044  0.6573 -0.8260
 2748TIP3    H132439   2.360   4.443  17.704 -2.0242  0.9486 -1.5635
 2748TIP3    H232440   2.421   4.557  17.782  0.7136 -1.2803 -0.2740
 2749TIP3   OH232441   5.441   4.450  19.898  0.1268  1.0361  1.1874
 2749TIP3    H132442   5.401   4.503  19.967 -0.3218 -0.9800  2.5457
 2749TIP3    H232443   5.389   4.370  19.896  1.7388 -0.0314  0.3004
 2750TIP3   OH232444   3.486   3.452  20.573 -0.3391  0.2675  0.1527
 2750TIP3    H132445   3.507   3.372  20.524  0.2348  0.0013  0.8094
 2750TIP3    H232446   3.410   3.488  20.529 -0.3831 -0.4505 -0.3794
 2751TIP3   OH232447   2.611   4.499  20.365  0.0214 -0.6442  0.2433
 2751TIP3    H132448   2.609   4.404  20.372 -1.1394 -0.5703  1.3371
 2751TIP3    H232449   2.519   4.526  20.371  0.4898  0.7006  2.9363
 2752TIP3   OH232450   5.618   3.782  18.129  0.6089 -0.3081 -0.2915
 2752TIP3    H132451   5.547   3.759  18.069  0.5003  0.4223 -0.4513
 2752TIP3    H232452   5.575   3.828  18.201  1.1099  1.9585 -1.3660
 2753TIP3   OH232453   5.351   3.344  19.023  0.4544 -0.0373  0.5116
 2753TIP3    H132454   5.421   3.302  18.973  1.2779  0.6857  1.0209
 2753TIP3    H232455   5.326   3.279  19.088 -1.1052 -1.2523 -1.2016
 2754TIP3   OH232456   4.996   1.130  19.795 -0.2622  0.7312 -0.4262
 2754TIP3    H132457   4.947   1.112  19.715  0.9127  1.2189 -1.2870
 2754TIP3    H232458   5.082   1.091  19.781 -0.1038  0.6268  0.6961
 2755TIP3   OH232459   5.526   6.701  20.561  0.0003  0.0926  0.0497
 2755TIP3    H132460   5.479   6.723  20.642 -0.1044  0.5867 -0.1408
 2755TIP3    H232461   5.604   6.756  20.563 -0.6796  1.1109 -0.8328
 2756TIP3   OH232462   0.149   1.146  16.993  0.0806 -0.3278 -0.1687
 2756TIP3    H132463   0.208   1.195  16.935  0.4627 -0.5147  0.0583
 2756TIP3    H232464   0.168   1.054  16.975  1.3257 -0.3942  1.3667
 2757TIP3   OH232465   4.645   1.563  18.911  0.0393 -0.1505  0.1806
 2757TIP3    H132466   4.694   1.484  18.889  1.7929  0.5412  1.4284
 2757TIP3    H232467   4.571   1.563  18.850 -0.3392 -3.0340  0.5074
 2758TIP3   OH232468   0.530   0.408  19.385  0.0547 -0.4667  0.0687
 2758TIP3    H132469   0.436   0.426  19.391 -0.4917 -1.7389 -3.0165
 2758TIP3    H232470   0.550   0.415  19.292  3.0557 -0.2704  0.6391
 2759TIP3   OH232471   3.763   2.853  17.766  0.2531 -0.6119 -0.0220
 2759TIP3    H132472   3.751   2.869  17.672 -0.3577 -0.2866  0.1117
 2759TIP3    H232473   3.776   2.940  17.804 -1.1463 -0.5819  0.4295
 2760TIP3   OH232474   0.959   2.174  18.278 -0.5247  0.3230  0.4436
 2760TIP3    H132475   0.923   2.243  18.333  0.4536  0.5825  0.7810
 2760TIP3    H232476   0.983   2.218  18.196  0.2213  0.4194  0.7074
 2761TIP3   OH232477   5.415   0.243  17.470  0.1295 -0.0792  0.1049
 2761TIP3    H132478   5.446   0.160  17.435  0.2336 -0.6224  1.4238
 2761TIP3    H232479   5.386   0.292  17.393  1.9754 -0.4951 -0.9138
 2762TIP3   OH232480   4.196   0.312  17.760  0.1767  0.1449 -0.4435
 2762TIP3    H132481   4.170   0.240  17.702  0.4059 -1.7634  1.7204
 2762TIP3    H232482   4.284   0.335  17.732 -0.6230  1.0459 -2.4582
 2763TIP3   OH232483   5.129   6.497  17.068  0.7288  0.0959  0.1910
 2763TIP3    H132484   5.162   6.412  17.096  0.3775  0.2278  1.0336
 2763TIP3    H232485   5.188   6.523  16.997 -0.4333 -1.8088 -1.6145
 2764TIP3   OH232486   0.462   4.574  18.727  0.4453  0.1802 -0.9126
 2764TIP3    H132487   0.542   4.622  18.709  0.2099  0.6134 -0.8119
 2764TIP3    H232488   0.406   4.636  18.774  0.6624 -0.5976  0.4268
 2765TIP3   OH232489   5.723   2.659  19.524 -0.3731  0.6397 -0.8216
 2765TIP3    H132490   5.675   2.581  19.496 -1.3741  1.1738 -0.6238
 2765TIP3    H232491   5.785   2.675  19.453 -0.1626 -0.3230 -0.8743
 2766TIP3   OH232492   1.968   2.118  18.052 -0.7982 -0.1055 -0.3656
 2766TIP3    H132493   1.884   2.073  18.044 -2.7026  2.6844  1.8580
 2766TIP3    H232494   1.949   2.208  18.027  1.1259  0.9391  1.6261
 2767TIP3   OH232495   0.500   2.459  20.772  0.1218 -0.1969  0.1044
 2767TIP3    H132496   0.571   2.432  20.830 -0.5485  0.0244  1.0476
 2767TIP3    H232497   0.453   2.378  20.753  0.0144 -0.1807  0.3097
 2768TIP3   OH232498   4.841   3.607  20.770  0.2218 -0.2131 -0.0010
 2768TIP3    H132499   4.931   3.635  20.785  0.6208 -0.3599 -1.9463
 2768TIP3    H232500   4.788   3.684  20.793  0.8638  0.0757  0.5631
 2769TIP3   OH232501   3.614   2.756  18.177  0.2848 -0.0210 -0.7894
 2769TIP3    H132502   3.648   2.702  18.106  2.4433 -0.3953  0.4276
 2769TIP3    H232503   3.668   2.733  18.253 -0.5590  1.8375  0.4619
 2770TIP3   OH232504   4.698   5.462  18.375 -0.2554 -0.7931 -0.6418
 2770TIP3    H132505   4.767   5.502  18.323  1.4141  1.9916  3.2919
 2770TIP3    H232506   4.621   5.516  18.359  0.2239  0.0017 -0.3074
 2771TIP3   OH232507   4.875   2.272  18.476 -0.2901  0.1825  0.2377
 2771TIP3    H132508   4.815   2.209  18.516 -0.6729  0.8510  0.7375
 2771TIP3    H232509   4.844   2.357  18.507 -1.2506  0.8508 -2.2930
 2772TIP3   OH232510   1.314   5.393  19.974  0.1851 -0.3799  0.1597
 2772TIP3    H132511   1.396   5.442  19.980  0.6559 -0.9188 -1.1982
 2772TIP3    H232512   1.315   5.359  19.884 -0.7595 -1.7357  0.6448
 2773TIP3   OH232513   4.910   1.447  16.904 -0.1786 -0.3286  0.3321
 2773TIP3    H132514   4.998   1.427  16.871 -1.0681 -0.8487 -1.9496
 2773TIP3    H232515   4.879   1.365  16.940 -0.0741 -0.4047  0.2509
 2774TIP3   OH232516   1.090   1.216  18.425 -0.0414  0.0153  0.5890
 2774TIP3    H132517   1.072   1.269  18.347 -0.9638  0.8965  1.3762
 2774TIP3    H232518   1.022   1.148  18.423  0.7725 -0.8004 -0.0942
 2775TIP3   OH232519   5.910   0.052  17.840  0.4426 -0.3386  0.1805
 2775TIP3    H132520   5.943   0.140  17.823 -1.3211  0.2587 -0.3636
 2775TIP3    H232521   5.815   0.063  17.845 -0.1725 -2.7126 -3.2831
 2776TIP3   OH232522   2.146   5.464  18.896 -0.3204 -0.1616  0.2092
 2776TIP3    H132523   2.103   5.539  18.854  0.5225 -0.3344 -1.0204
 2776TIP3    H232524   2.096   5.449  18.976 -0.7720  1.4382  0.2574
 2777TIP3   OH232525   2.858   0.775  20.215  0.5208 -0.1102  0.4280
 2777TIP3    H132526   2.851   0.770  20.310  1.3843 -0.0965  0.4957
 2777TIP3    H232527   2.908   0.855  20.198 -0.5581  0.4822 -0.0908
 2778TIP3   OH232528   3.566   0.721  20.077  0.4041  0.3829  0.1010
 2778TIP3    H132529   3.618   0.784  20.028 -0.1927 -0.0176 -1.1163
 2778TIP3    H232530   3.512   0.678  20.010 -0.6697  0.0128  1.1581
 2779TIP3   OH232531   2.107   2.154  17.788  0.0369 -0.3491 -0.0444
 2779TIP3    H132532   2.090   2.119  17.875  0.6478  0.0865  0.2566
 2779TIP3    H232533   2.202   2.158  17.782 -0.0113  0.6347 -0.3116
 2780TIP3   OH232534   2.012   5.390  19.114  0.0444  0.0911 -0.2232
 2780TIP3    H132535   2.004   5.462  19.177 -0.0309 -0.1104 -0.0036
 2780TIP3    H232536   2.003   5.311  19.167 -0.4420 -0.0730 -0.5475
 2781TIP3   OH232537   3.635   0.132  18.854 -0.5525 -0.5710  0.1452
 2781TIP3    H132538   3.717   0.151  18.900 -0.7112  1.1651 -0.2007
 2781TIP3    H232539   3.609   0.046  18.885  1.4846 -1.2389  0.1365
 2782TIP3   OH232540   4.493   4.143  19.883 -0.4740 -0.0294 -0.3107
 2782TIP3    H132541   4.511   4.237  19.890  0.6280 -0.3602  1.8040
 2782TIP3    H232542   4.434   4.124  19.956 -0.0402 -1.1274 -0.2254
 2783TIP3   OH232543   1.266   5.587  17.335 -0.0026  0.0395 -0.4030
 2783TIP3    H132544   1.192   5.526  17.338 -0.7665  0.8865 -1.2253
 2783TIP3    H232545   1.343   5.533  17.354 -0.7113 -1.0766 -0.6178
 2784TIP3   OH232546   5.642   1.071  18.122  0.0931 -0.1945 -0.4658
 2784TIP3    H132547   5.697   1.145  18.147  0.5187 -0.9121  0.8195
 2784TIP3    H232548   5.553   1.098  18.146  0.1949  0.0655 -0.3805
 2785TIP3   OH232549   4.889   5.011  18.550 -0.0925 -0.5576 -0.5568
 2785TIP3    H132550   4.802   4.999  18.512 -0.8717  0.8589  0.6660
 2785TIP3    H232551   4.924   5.089  18.508 -0.3312  0.1360  0.5095
 2786TIP3   OH232552   2.186   1.482  20.094  0.5677 -0.1788 -0.5518
 2786TIP3    H132553   2.237   1.525  20.162 -1.3325  2.5182 -0.6855
 2786TIP3    H232554   2.237   1.405  20.071  2.2231 -0.1846  2.5581
 2787TIP3   OH232555   1.005   5.495  18.974  0.7385 -0.5273  0.4023
 2787TIP3    H132556   1.025   5.402  18.966  0.8579 -0.3952 -1.0677
 2787TIP3    H232557   0.968   5.519  18.889 -1.5855  0.2355  1.5540
 2788TIP3   OH232558   3.296   5.312  19.820 -0.2568  0.1623  0.1723
 2788TIP3    H132559   3.317   5.286  19.730  0.8018 -0.3598  0.5461
 2788TIP3    H232560   3.315   5.406  19.823  0.7004 -0.0152  0.1063
 2789TIP3   OH232561   0.361   2.029  19.683  0.0905 -0.0820 -0.1473
 2789TIP3    H132562   0.389   1.951  19.636 -2.1184 -0.7167 -0.5223
 2789TIP3    H232563   0.269   2.041  19.657  0.3139  2.5716 -0.0210
 2790TIP3   OH232564   4.395   2.698  18.226  0.0741  0.5453 -0.6926
 2790TIP3    H132565   4.486   2.706  18.198  0.3712  0.7037  0.2746
 2790TIP3    H232566   4.399   2.704  18.322 -1.0752  1.6791 -0.7003
 2791TIP3   OH232567   2.388   6.678  17.462 -0.3431  0.7672  0.1575
 2791TIP3    H132568   2.462   6.619  17.466 -0.6792  0.3731  0.6057
 2791TIP3    H232569   2.369   6.686  17.368 -0.9107 -0.6150  0.1304
 2792TIP3   OH232570   1.520   0.529  20.253  0.5666 -0.2397  0.1055
 2792TIP3    H132571   1.614   0.515  20.248  0.6788  0.5097  0.0593
 2792TIP3    H232572   1.510   0.606  20.310  0.0300  0.1553 -0.5067
 2793TIP3   OH232573   5.567   1.629  17.620 -0.3042 -0.1444  0.3355
 2793TIP3    H132574   5.529   1.683  17.551  2.7779  1.7966 -0.0322
 2793TIP3    H232575   5.565   1.685  17.698  1.7962  0.1206  0.2543
 2794TIP3   OH232576   2.057   1.236  19.832 -0.4982  0.6875  0.3342
 2794TIP3    H132577   2.148   1.242  19.860  0.1561 -0.3558 -1.3989
 2794TIP3    H232578   2.022   1.325  19.841  0.5929  1.0394  1.2555
 2795TIP3   OH232579   5.034   2.574  20.200 -0.5385  0.3139 -0.2818
 2795TIP3    H132580   4.985   2.655  20.216  0.4837  1.0085 -0.5324
 2795TIP3    H232581   5.071   2.585  20.113 -1.7784 -1.1875 -1.0332
 2796TIP3   OH232582   5.131   3.840  17.406  0.6270 -0.2147  0.1152
 2796TIP3    H132583   5.060   3.820  17.345  0.9045  0.3435 -0.4048
 2796TIP3    H232584   5.210   3.836  17.352  1.0628 -1.4158  0.8090
 2797TIP3   OH232585   3.822   2.251  18.674 -0.3862  0.5757 -0.0749
 2797TIP3    H132586   3.875   2.205  18.608 -1.1964  0.1832 -0.4603
 2797TIP3    H232587   3.882   2.265  18.747  0.5241  0.9878 -0.8728
 2798TIP3   OH232588   6.415   4.139  20.378  0.0129  0.1417  0.2098
 2798TIP3    H132589   6.415   4.101  20.467 -0.5661  1.0267  0.5984
 2798TIP3    H232590   6.378   4.070  20.323 -1.3913  0.2426  0.9738
 2799TIP3   OH232591   5.517   4.534  18.764  0.3134 -0.3560  0.1932
 2799TIP3    H132592   5.519   4.524  18.859 -1.2305 -0.7849  0.2109
 2799TIP3    H232593   5.425   4.552  18.744  0.7750  0.6808 -1.1393
 2800TIP3   OH232594   0.283   3.974  19.979 -0.2445  0.6052  0.1392
 2800TIP3    H132595   0.265   4.042  19.915  1.0592  0.3910 -0.4982
 2800TIP3    H232596   0.287   4.020  20.063  0.7926  1.3596 -0.3013
 2801TIP3   OH232597   1.357   1.319  18.771  0.5216 -0.6696  0.2317
 2801TIP3    H132598   1.391   1.254  18.833  0.2951 -1.2807 -0.2686
 2801TIP3    H232599   1.381   1.403  18.808 -0.1629 -1.0063  1.4691
 2802TIP3   OH232600   4.618   6.645  17.062  1.0686  0.1228 -0.7938
 2802TIP3    H132601   4.618   6.719  17.001  2.5663 -0.6266 -1.7487
 2802TIP3    H232602   4.535   6.601  17.045 -1.2648  3.0791  1.7909
 2803TIP3   OH232603   1.159   0.124  19.146 -0.3180  0.0573 -0.0505
 2803TIP3    H132604   1.186   0.210  19.178 -0.4074 -0.0137  0.2190
 2803TIP3    H232605   1.077   0.106  19.192 -0.0709 -0.3658  0.2408
 2804TIP3   OH232606   3.110   2.340  17.396  1.2799  0.2206 -0.2064
 2804TIP3    H132607   3.139   2.256  17.360  1.6131  1.2773 -2.6311
 2804TIP3    H232608   3.114   2.400  17.321 -0.0914  2.1309  1.1662
 2805TIP3   OH232609   4.137   4.766  18.699  0.6512 -0.0598  0.1761
 2805TIP3    H132610   4.109   4.848  18.657  0.1481 -0.2439  0.1586
 2805TIP3    H232611   4.059   4.712  18.702  0.6436 -0.0156  1.4538
 2806TIP3   OH232612   2.172   2.502  19.224  0.3647  0.3767 -0.2656
 2806TIP3    H132613   2.134   2.452  19.152 -1.3454  2.1989 -0.7210
 2806TIP3    H232614   2.202   2.583  19.184 -2.2540  2.2392  1.2303
 2807TIP3   OH232615   4.481   0.263  18.418 -0.5012 -0.0780  0.0910
 2807TIP3    H132616   4.405   0.213  18.388  0.2265 -1.0370 -0.2091
 2807TIP3    H232617   4.501   0.322  18.345 -1.0677  0.3283  0.2535
 2808TIP3   OH232618   4.610   3.752  17.880  0.4560 -0.2213 -0.2329
 2808TIP3    H132619   4.617   3.658  17.865  5.0554 -0.1865  0.0482
 2808TIP3    H232620   4.668   3.791  17.815 -0.0676  2.2898  0.6834
 2809TIP3   OH232621   4.125   5.343  18.711 -0.3993  0.0927 -0.0348
 2809TIP3    H132622   4.101   5.293  18.633 -1.7531 -0.2047  0.5437
 2809TIP3    H232623   4.218   5.324  18.724  0.4956  1.9231 -2.8355
 2810TIP3   OH232624   1.419   1.987  16.800 -0.3730  0.3209 -0.7179
 2810TIP3    H132625   1.446   1.934  16.725 -2.4170  0.9904 -1.9910
 2810TIP3    H232626   1.352   2.046  16.766 -0.0758  1.9050  1.2520
 2811TIP3   OH232627   2.188   4.055  17.789  0.0134  0.8212 -0.3014
 2811TIP3    H132628   2.186   4.142  17.748  1.3568  0.5169 -1.0712
 2811TIP3    H232629   2.213   3.996  17.718 -1.1867 -0.2576  0.1436
 2812TIP3   OH232630   5.917   4.107  17.203  0.2045  0.0484  0.5772
 2812TIP3    H132631   5.978   4.036  17.224  1.5646  0.4665 -1.6396
 2812TIP3    H232632   5.923   4.166  17.278  1.0546 -0.8701  1.2635
 2813TIP3   OH232633   1.223   1.642  19.379 -0.7581 -0.1372  0.0437
 2813TIP3    H132634   1.160   1.638  19.451  0.7278 -2.0302  1.3420
 2813TIP3    H232635   1.275   1.562  19.388  0.8343  0.5877 -1.9084
 2814TIP3   OH232636   6.108   1.533  18.388 -0.4357 -0.3009 -0.3894
 2814TIP3    H132637   6.083   1.589  18.461 -0.0371 -2.3162  1.3967
 2814TIP3    H232638   6.030   1.532  18.332 -0.6587  1.4866 -0.1743
 2815TIP3   OH232639   3.320   5.576  19.833 -0.2548 -0.2886  0.0234
 2815TIP3    H132640   3.246   5.605  19.779  1.2076  0.8269 -1.4579
 2815TIP3    H232641   3.369   5.656  19.852  1.1089 -1.1255  0.1587
 2816TIP3   OH232642   3.095   3.093  18.410  0.7808 -0.6839  0.0136
 2816TIP3    H132643   3.092   3.012  18.461  0.3063 -0.9995 -0.5017
 2816TIP3    H232644   3.004   3.118  18.397  0.8930 -0.5869 -0.6390
 2817TIP3   OH232645   4.082   4.063  19.777 -0.8504  0.1378  0.5052
 2817TIP3    H132646   3.992   4.079  19.747 -0.5672 -2.3842 -2.2045
 2817TIP3    H232647   4.134   4.066  19.696  1.1952 -0.4007  1.7469
 2818TIP3   OH232648   5.133   3.336  18.012  0.4424  0.6260 -0.3031
 2818TIP3    H132649   5.227   3.352  18.003  0.3479  0.9927 -0.6737
 2818TIP3    H232650   5.094   3.423  18.009  0.2620  0.6995  2.2767
 2819TIP3   OH232651   3.163   0.382  16.995  0.5754  0.1760 -0.3287
 2819TIP3    H132652   3.142   0.474  16.980 -0.5874 -0.0657 -0.2662
 2819TIP3    H232653   3.078   0.339  17.005  1.0975 -0.4467  2.4546
 2820TIP3   OH232654   6.088   1.004  19.605  0.0201  0.5252  0.5871
 2820TIP3    H132655   5.996   1.025  19.620 -0.3654 -0.4187 -0.3092
 2820TIP3    H232656   6.120   0.974  19.690 -0.2058  1.8203  1.1559
 2821TIP3   OH232657   6.122   1.967  20.043 -0.3563 -0.3096 -0.1511
 2821TIP3    H132658   6.051   1.932  20.097 -1.4326  0.0903 -1.2627
 2821TIP3    H232659   6.187   1.998  20.107 -1.0915 -0.8426  0.8889
 2822TIP3   OH232660   0.742   2.829  18.821 -0.0904 -0.4929  0.2019
 2822TIP3    H132661   0.658   2.818  18.776 -0.3247  1.4925  0.0423
 2822TIP3    H232662   0.806   2.828  18.750 -0.1729 -0.2343  0.1203
 2823TIP3   OH232663   2.047   5.676  18.772 -0.0187  0.0196 -0.2094
 2823TIP3    H132664   2.127   5.726  18.784 -0.0635  0.4127 -1.4304
 2823TIP3    H232665   1.977   5.734  18.801  0.1206 -0.3419  0.9036
 2824TIP3   OH232666   0.797   1.897  17.642  0.1295 -0.0684  0.0315
 2824TIP3    H132667   0.772   1.934  17.726  1.6784 -0.0331  0.5060
 2824TIP3    H232668   0.882   1.856  17.658 -0.7688 -2.4998 -0.8463
 2825TIP3   OH232669   1.342   3.545  20.149  0.4357  0.2753 -0.0941
 2825TIP3    H132670   1.291   3.609  20.100 -0.0529 -0.6250 -0.7994
 2825TIP3    H232671   1.279   3.508  20.211  0.5220 -0.0396 -0.1959
 2826TIP3   OH232672   2.005   3.497  18.030  0.0918  0.0462  0.4882
 2826TIP3    H132673   2.084   3.545  18.054 -0.0245  1.2955 -1.4361
 2826TIP3    H232674   2.034   3.405  18.027  1.0492  0.2937  1.3252
 2827TIP3   OH232675   3.570   3.818  20.133 -0.9080 -0.4915 -0.0052
 2827TIP3    H132676   3.509   3.820  20.207 -1.5731 -0.3904 -0.5527
 2827TIP3    H232677   3.516   3.835  20.056 -0.4044 -1.6415 -0.6430
 2828TIP3   OH232678   0.907   2.668  18.364  0.4469 -0.6018 -0.1846
 2828TIP3    H132679   0.908   2.745  18.421  1.0895  0.1743 -1.1949
 2828TIP3    H232680   0.895   2.594  18.423  1.1287  0.1666  0.9562
 2829TIP3   OH232681   1.079   6.359  19.725 -0.2284  0.6421  0.0093
 2829TIP3    H132682   0.989   6.340  19.697 -1.2263  0.1246  3.1832
 2829TIP3    H232683   1.076   6.354  19.820  3.5172 -0.7455  0.1936
 2830TIP3   OH232684   0.845   2.738  19.694 -0.6441  0.0768 -0.3667
 2830TIP3    H132685   0.828   2.686  19.773  1.2221 -2.2363 -1.3569
 2830TIP3    H232686   0.930   2.708  19.663  0.2130  3.2942 -1.5001
 2831TIP3   OH232687   2.816   3.959  20.793 -0.1059  0.3125  0.1608
 2831TIP3    H132688   2.785   4.048  20.777 -0.4540 -0.1096 -1.8080
 2831TIP3    H232689   2.869   3.938  20.716  0.6813 -0.8949  0.9940
 2832TIP3   OH232690   3.762   2.191  20.742 -0.2485  0.1360  0.4932
 2832TIP3    H132691   3.780   2.285  20.747  2.6616 -0.3685  1.2536
 2832TIP3    H232692   3.700   2.175  20.814 -0.6997  1.4291  0.4276
 2833TIP3   OH232693   4.204   4.033  19.511 -0.2294  0.2956  0.2863
 2833TIP3    H132694   4.284   3.988  19.538 -0.1530  0.9126  1.1391
 2833TIP3    H232695   4.221   4.061  19.421  1.2564  2.0061  1.0319
 2834TIP3   OH232696   0.995   0.395  20.420 -0.5353 -0.4266  0.1358
 2834TIP3    H132697   0.990   0.348  20.338 -1.1097  0.1549 -0.1743
 2834TIP3    H232698   0.981   0.329  20.487  0.4616 -0.9922 -0.2046
 2835TIP3   OH232699   0.157   3.722  18.781 -0.3216  0.1983 -0.1847
 2835TIP3    H132700   0.101   3.664  18.730 -1.1102 -0.9291  1.8662
 2835TIP3    H232701   0.102   3.799  18.798 -0.1321  0.4786 -0.7894
 2836TIP3   OH232702   0.865   6.501  20.490 -0.1429 -0.8709 -0.0010
 2836TIP3    H132703   0.884   6.453  20.409  1.7755 -2.0508  1.0886
 2836TIP3    H232704   0.950   6.512  20.533 -1.0340  0.2221  1.6092
 2837TIP3   OH232705   1.514   3.174  20.528  0.4993  0.1911 -0.2163
 2837TIP3    H132706   1.469   3.124  20.596  1.7570 -0.5581  0.0951
 2837TIP3    H232707   1.468   3.258  20.526 -0.1547 -0.1177  0.9024
 2838TIP3   OH232708   6.392   0.410  18.834  0.0491 -0.2937 -0.1060
 2838TIP3    H132709   6.365   0.490  18.880 -0.3043 -0.7938  0.5623
 2838TIP3    H232710   6.488   0.414  18.835  0.0557 -0.4608  0.9823
 2839TIP3   OH232711   3.876   2.744  19.813 -0.1100  0.5058 -0.0228
 2839TIP3    H132712   3.854   2.688  19.738 -0.1059  1.4579 -0.7525
 2839TIP3    H232713   3.899   2.683  19.882 -2.6041 -0.5093  0.0249
 2840TIP3   OH232714   0.044   4.260  18.736  0.0185 -0.1581  0.6071
 2840TIP3    H132715   0.073   4.345  18.701 -0.2308 -0.5407 -0.5749
 2840TIP3    H232716  -0.043   4.278  18.772 -0.9412 -0.3042 -1.4952
 2841TIP3   OH232717   5.449   3.662  19.596 -0.1626 -0.1317 -0.1859
 2841TIP3    H132718   5.354   3.652  19.607 -0.0551 -0.5713  0.3946
 2841TIP3    H232719   5.463   3.757  19.595 -0.6379 -0.0588 -0.5995
 2842TIP3   OH232720   3.157   0.282  18.141 -0.2162  0.2059  0.2253
 2842TIP3    H132721   3.150   0.302  18.048  0.6295  1.2773  0.3736
 2842TIP3    H232722   3.221   0.345  18.175 -1.3350  0.5804  1.7567
 2843TIP3   OH232723   1.899   0.357  18.891  0.0209 -0.3014 -0.1506
 2843TIP3    H132724   1.871   0.375  18.981  1.8836 -1.1582  0.6570
 2843TIP3    H232725   1.888   0.262  18.881  0.7241 -0.3554 -0.4751
 2844TIP3   OH232726   2.636   4.219  20.321  0.9747  0.2082  0.2652
 2844TIP3    H132727   2.696   4.252  20.254  0.5433  1.4992  0.4729
 2844TIP3    H232728   2.602   4.137  20.286  2.0557 -0.0102 -0.3199
 2845TIP3   OH232729   3.901   5.740  20.261 -0.4747  0.0948 -0.3353
 2845TIP3    H132730   3.910   5.677  20.189 -1.0250  1.8061 -1.9671
 2845TIP3    H232731   3.988   5.776  20.272 -0.3028 -0.4638  0.1365
 2846TIP3   OH232732   1.213   2.478  19.799 -0.0982  0.2235  0.3719
 2846TIP3    H132733   1.294   2.520  19.828  0.2531 -0.0601 -0.1794
 2846TIP3    H232734   1.149   2.549  19.795  0.7898  0.9735 -1.7083
 2847TIP3   OH232735   0.422   3.535  17.952 -0.0148 -0.1507  0.1388
 2847TIP3    H132736   0.498   3.502  17.905 -0.8298 -0.3342 -1.1022
 2847TIP3    H232737   0.350   3.480  17.922 -0.3591 -1.2648  2.7273
 2848TIP3   OH232738   5.479   5.861  18.058 -0.4834 -0.1767  0.4199
 2848TIP3    H132739   5.545   5.844  18.125 -2.8324  0.5711  3.0854
 2848TIP3    H232740   5.466   5.776  18.016  0.0229 -1.0347  1.9123
 2849TIP3   OH232741   5.892   2.878  19.632 -0.1199 -0.2938  0.4098
 2849TIP3    H132742   5.953   2.885  19.558 -1.7045 -0.1601 -0.9406
 2849TIP3    H232743   5.825   2.817  19.601 -0.1203 -1.2941  2.2729
 2850TIP3   OH232744   2.741   0.069  17.942 -0.2693 -0.3661 -0.3633
 2850TIP3    H132745   2.786   0.135  17.995  1.0874 -0.5158 -1.2688
 2850TIP3    H232746   2.650   0.073  17.971  0.3664 -0.2978  1.8020
 2851TIP3   OH232747   4.474   1.295  17.835  0.2082  0.7836  0.6920
 2851TIP3    H132748   4.541   1.363  17.848 -0.2816  1.0501  2.0412
 2851TIP3    H232749   4.479   1.274  17.742  1.8611  1.1180  0.6710
 2852TIP3   OH232750   4.541   2.433  17.214 -0.4675 -1.0337 -0.1383
 2852TIP3    H132751   4.604   2.361  17.210 -0.1169 -0.7535  0.2104
 2852TIP3    H232752   4.525   2.446  17.308 -0.2372 -0.4158 -0.1784
 2853TIP3   OH232753   5.513   1.660  20.200 -0.7752  0.7100  0.7469
 2853TIP3    H132754   5.457   1.587  20.226 -1.0207  0.3482 -0.7015
 2853TIP3    H232755   5.600   1.637  20.232 -1.0492  0.2759  1.1904
 2854TIP3   OH232756   3.920   1.430  20.225 -0.0380 -0.7404 -0.0573
 2854TIP3    H132757   3.853   1.415  20.159 -0.6193  3.0064 -0.5154
 2854TIP3    H232758   3.984   1.486  20.182  1.0347 -0.5034  1.7636
 2855TIP3   OH232759   6.096   5.697  19.247  0.2561 -0.2689 -0.3508
 2855TIP3    H132760   6.037   5.660  19.181 -0.5120 -2.3518  1.3779
 2855TIP3    H232761   6.070   5.789  19.254 -0.6182 -0.3674 -1.8835
 2856TIP3   OH232762   0.486   6.171  19.848  0.1589 -0.5220  0.2447
 2856TIP3    H132763   0.469   6.085  19.811 -0.0806 -0.0988 -0.6558
 2856TIP3    H232764   0.512   6.224  19.773  0.4207  0.1614  0.8091
 2857TIP3   OH232765   1.227   2.055  19.294  0.4499 -0.2677  0.5712
 2857TIP3    H132766   1.172   2.036  19.370  0.5698 -0.7139  0.5514
 2857TIP3    H232767   1.188   2.003  19.224  1.1667 -0.9578  0.6690
 2858TIP3   OH232768   5.823   2.091  20.259 -0.1531 -0.5968  0.8794
 2858TIP3    H132769   5.874   2.164  20.294  0.3242 -0.5317  0.0628
 2858TIP3    H232770   5.834   2.097  20.164 -1.2877 -0.8752  0.7192
 2859TIP3   OH232771   6.134   4.434  18.737  0.4876  0.5632 -0.5142
 2859TIP3    H132772   6.068   4.503  18.732  0.2056  0.2805 -0.7334
 2859TIP3    H232773   6.213   4.473  18.699  0.1094  0.5115 -1.3599
 2860TIP3   OH232774   6.677   1.839  17.280  0.2425 -0.6506 -0.2601
 2860TIP3    H132775   6.754   1.811  17.231 -0.7189 -0.3879 -2.0241
 2860TIP3    H232776   6.616   1.869  17.213 -0.3690  1.7490  1.2424
 2861TIP3   OH232777   0.415   2.071  18.844  0.1918 -0.4421 -0.3004
 2861TIP3    H132778   0.345   2.005  18.845  0.4235 -0.7288 -1.5374
 2861TIP3    H232779   0.431   2.088  18.752  0.9525  0.5020 -0.0159
 2862TIP3   OH232780   6.226   6.271  20.166  0.3025  0.6374 -0.2951
 2862TIP3    H132781   6.295   6.256  20.232 -0.3784  0.5759  0.4191
 2862TIP3    H232782   6.155   6.313  20.215 -0.8429 -0.8309 -0.6322
 2863TIP3   OH232783   2.413   2.364  16.870  0.6070 -0.5351  0.3350
 2863TIP3    H132784   2.388   2.401  16.786 -0.1768 -1.2588  0.2443
 2863TIP3    H232785   2.482   2.301  16.850  1.7655  0.6463  0.4614
 2864TIP3   OH232786   4.547   1.545  20.340  0.0063 -0.1430 -0.3089
 2864TIP3    H132787   4.597   1.582  20.267  0.7989 -0.7153 -0.0657
 2864TIP3    H232788   4.462   1.524  20.302  0.1921  0.1548 -0.9115
 2865TIP3   OH232789   2.489   6.080  19.631  0.1820  0.1429 -0.3100
 2865TIP3    H132790   2.446   6.153  19.676  0.8130  0.7870 -0.7248
 2865TIP3    H232791   2.562   6.121  19.583  1.6755 -0.9897  0.8918
 2866TIP3   OH232792   1.083   2.684  19.556 -0.0363 -0.4862  0.2701
 2866TIP3    H132793   1.167   2.638  19.554  1.3824  1.9659  0.0913
 2866TIP3    H232794   1.072   2.720  19.468 -0.9043 -0.1072  0.5180
 2867TIP3   OH232795   4.630   1.859  18.695 -0.3015 -0.4798  0.4090
 2867TIP3    H132796   4.725   1.875  18.700 -0.4133  0.3090  0.2206
 2867TIP3    H232797   4.623   1.771  18.658  0.3595 -0.4792  0.2555
 2868TIP3   OH232798   5.314   1.036  17.827 -0.0025 -0.3884 -0.0102
 2868TIP3    H132799   5.302   1.076  17.741  0.2381 -0.0070  0.1275
 2868TIP3    H232800   5.250   0.966  17.831  0.3072 -0.7170 -0.6855
 2869TIP3   OH232801   6.178   4.427  19.290  0.6866  0.6297 -0.1562
 2869TIP3    H132802   6.257   4.377  19.311  0.6446  0.6702  0.1017
 2869TIP3    H232803   6.197   4.515  19.322  1.4952  1.2713 -2.2108
 2870TIP3   OH232804   2.402   5.849  19.696 -0.3030  0.3234  0.5540
 2870TIP3    H132805   2.349   5.814  19.624 -0.1160  0.0147  0.5634
 2870TIP3    H232806   2.424   5.938  19.669 -0.2996  0.2356  0.2648
 2871TIP3   OH232807   4.361   2.424  17.721 -0.0144  0.5303  0.2789
 2871TIP3    H132808   4.339   2.396  17.810 -1.2596 -1.0915 -0.4808
 2871TIP3    H232809   4.413   2.504  17.733  0.1895  0.1389  2.4561
 2872TIP3   OH232810   6.301   6.357  18.304  0.6078  0.9553 -0.3692
 2872TIP3    H132811   6.228   6.308  18.268  0.1193  1.0409  0.5002
 2872TIP3    H232812   6.348   6.295  18.359  0.4226  1.2558  0.1324
 2873TIP3   OH232813   3.126   3.541  19.048 -0.1733 -0.0059 -0.2035
 2873TIP3    H132814   3.137   3.511  19.139  0.1882 -0.6370 -0.4485
 2873TIP3    H232815   3.214   3.539  19.011 -0.1379  1.3644 -0.2448
 2874TIP3   OH232816   3.165   2.324  19.836  0.1450  0.0234 -0.1137
 2874TIP3    H132817   3.206   2.239  19.821 -2.2621 -0.7682 -3.4996
 2874TIP3    H232818   3.220   2.386  19.789  1.2420  0.2295  1.3611
 2875TIP3   OH232819   1.800   3.638  20.683  0.3168  0.1501 -0.2637
 2875TIP3    H132820   1.774   3.546  20.682 -0.3919  0.3015 -2.4778
 2875TIP3    H232821   1.727   3.682  20.726  0.6153 -0.2968  0.7224
 2876TIP3   OH232822   5.326   0.817  18.314 -0.4262  0.2548 -0.0500
 2876TIP3    H132823   5.335   0.804  18.220  1.8748  1.5277 -0.0733
 2876TIP3    H232824   5.282   0.902  18.322 -3.3830 -1.1557  0.1138
 2877TIP3   OH232825   3.761   4.120  19.341  0.3375 -0.0042  0.0718
 2877TIP3    H132826   3.709   4.050  19.301 -0.3664  0.1986  0.5989
 2877TIP3    H232827   3.708   4.149  19.416  0.6282  1.0606 -0.1133
 2878TIP3   OH232828   2.659   4.193  19.755  0.0501  0.2430  0.4425
 2878TIP3    H132829   2.658   4.282  19.720  1.6182  0.0502 -0.1616
 2878TIP3    H232830   2.568   4.165  19.750 -0.1615  1.0716 -1.3267
 2879TIP3   OH232831   2.248   2.337  18.099  0.2141  0.1884 -0.7455
 2879TIP3    H132832   2.184   2.405  18.120  0.9602  0.6588  0.0699
 2879TIP3    H232833   2.332   2.382  18.100  0.8050 -0.8782  0.5222
 2880TIP3   OH232834   1.698   0.131  20.096  0.0248  0.1263  0.2617
 2880TIP3    H132835   1.665   0.210  20.055 -1.8386 -0.1580  1.1036
 2880TIP3    H232836   1.783   0.156  20.133  0.0651  1.3467 -0.6098
 2881TIP3   OH232837   3.593   0.177  18.593 -0.3795  0.7726 -0.1754
 2881TIP3    H132838   3.637   0.174  18.678  0.2876 -0.0137 -0.5313
 2881TIP3    H232839   3.522   0.113  18.600 -2.1312  2.6881  0.7144
 2882TIP3   OH232840   5.146   6.579  18.508 -0.4023  0.0512  0.3121
 2882TIP3    H132841   5.136   6.661  18.556 -1.0732  0.0908  0.1116
 2882TIP3    H232842   5.223   6.538  18.548 -0.9891  0.0420  1.4962
 2883TIP3   OH232843   2.835   0.785  20.561  0.2192 -0.4224  0.6072
 2883TIP3    H132844   2.788   0.736  20.627 -1.1282  0.1883  0.1284
 2883TIP3    H232845   2.927   0.781  20.589 -0.0383 -1.9597  1.3425
 2884TIP3   OH232846   0.490   4.244  18.370 -0.0386 -0.0424  0.4285
 2884TIP3    H132847   0.469   4.172  18.429  0.9869  1.0733  2.2192
 2884TIP3    H232848   0.535   4.308  18.424 -1.9296  2.5067 -0.8103
 2885TIP3   OH232849   0.728   4.898  20.890  0.6415  0.1830  0.2702
 2885TIP3    H132850   0.699   4.818  20.936  1.8911  0.0333  0.8406
 2885TIP3    H232851   0.675   4.900  20.811  0.8551 -1.4421  0.0454
 2886TIP3   OH232852   0.982   2.931  20.094 -0.3858  0.1373  0.4927
 2886TIP3    H132853   0.981   3.025  20.082 -0.1831 -0.1961 -3.5651
 2886TIP3    H232854   1.047   2.916  20.163  2.3353  2.8290 -1.2480
 2887TIP3   OH232855   0.557   4.613  19.284  0.0920  0.5500  0.2994
 2887TIP3    H132856   0.588   4.657  19.205  2.5505 -2.0532 -0.3583
 2887TIP3    H232857   0.533   4.525  19.254 -3.8496  0.9463  1.6655
 2888TIP3   OH232858   0.527   5.644  20.440  0.3003  0.2196 -0.0895
 2888TIP3    H132859   0.496   5.694  20.516 -0.5785 -1.3563  0.6288
 2888TIP3    H232860   0.542   5.556  20.474  1.1970 -0.1916 -1.4700
 2889TIP3   OH232861   1.063   4.164  17.690 -0.3667 -0.1221  0.1800
 2889TIP3    H132862   1.140   4.222  17.684  0.2729 -0.9504  0.1437
 2889TIP3    H232863   1.017   4.194  17.769  1.0803 -0.8509  1.3660
 2890TIP3   OH232864   3.746   6.622  19.292 -0.8432  0.4347  0.4114
 2890TIP3    H132865   3.788   6.687  19.348  1.1941 -0.0026 -0.5176
 2890TIP3    H232866   3.796   6.624  19.210 -3.2491  0.4960 -1.1309
 2891TIP3   OH232867   2.492   6.227  18.543 -0.7720  0.0793 -0.1935
 2891TIP3    H132868   2.433   6.214  18.617  0.7939  0.4136  1.1472
 2891TIP3    H232869   2.441   6.281  18.482 -1.7658  0.6171  1.0558
 2892TIP3   OH232870   1.192   4.784  20.430  0.8551 -0.1051  0.7240
 2892TIP3    H132871   1.102   4.751  20.430  0.3557  1.0876  2.3634
 2892TIP3    H232872   1.235   4.738  20.358 -1.5036  0.4706 -1.1997
 2893TIP3   OH232873   2.799   3.940  19.518  0.1364 -0.1688  0.4063
 2893TIP3    H132874   2.798   3.849  19.489 -0.8285 -0.4107  1.1627
 2893TIP3    H232875   2.749   3.987  19.450  2.1433  0.1434 -0.9490
 2894TIP3   OH232876   0.927   3.916  17.445  0.3359 -0.0692  0.5875
 2894TIP3    H132877   1.013   3.920  17.403 -0.1807 -0.5516 -0.5679
 2894TIP3    H232878   0.875   3.982  17.398  0.0889  0.2476  1.3029
 2895TIP3   OH232879   2.343   1.315  18.103  0.2918  0.1675  0.4559
 2895TIP3    H132880   2.365   1.301  18.195  0.3870 -0.3405  0.3568
 2895TIP3    H232881   2.335   1.410  18.095 -0.6547  0.1750  1.2061
 2896TIP3   OH232882   0.094   5.918  19.160  0.4098  0.5594  0.6820
 2896TIP3    H132883   0.100   5.998  19.108 -1.9553 -0.0789 -0.7278
 2896TIP3    H232884   0.103   5.847  19.096  0.7555 -0.3068  1.6570
 2897TIP3   OH232885   5.550   2.067  17.985  0.2690  0.1411  0.1598
 2897TIP3    H132886   5.616   2.048  17.919 -0.4323 -0.6143 -0.3437
 2897TIP3    H232887   5.538   2.162  17.981  0.9173  0.2137 -0.1246
 2898TIP3   OH232888   5.138   4.457  20.330  0.0986 -0.7561  0.1554
 2898TIP3    H132889   5.165   4.383  20.275  1.8789  1.1072 -1.6726
 2898TIP3    H232890   5.218   4.484  20.375 -0.6862 -0.3954  1.3810
 2899TIP3   OH232891   0.819   4.117  20.034  0.3235  0.3879 -0.1296
 2899TIP3    H132892   0.758   4.099  19.963 -0.0576  1.1351  0.0034
 2899TIP3    H232893   0.765   4.116  20.113  0.8088 -0.8596  0.2262
 2900TIP3   OH232894   2.624   0.441  20.075 -0.2203 -0.0010 -0.0159
 2900TIP3    H132895   2.556   0.383  20.041  1.0189  0.2058 -3.0782
 2900TIP3    H232896   2.614   0.522  20.026  2.0045  0.1401 -0.3494
 2901TIP3   OH232897   1.844   2.976  17.984  0.1324 -0.2991 -0.7045
 2901TIP3    H132898   1.829   3.059  18.030  0.6380 -0.4531 -0.2511
 2901TIP3    H232899   1.932   2.985  17.948  0.2717 -0.7212 -0.4724
 2902TIP3   OH232900   1.647   0.979  18.741  0.0463  0.1180 -0.0475
 2902TIP3    H132901   1.592   0.900  18.734  0.2235 -0.1158  1.1010
 2902TIP3    H232902   1.717   0.954  18.801  0.7606  0.7916 -0.5884
 2903TIP3   OH232903   3.576   0.822  17.445 -0.3353  0.1728 -0.1534
 2903TIP3    H132904   3.661   0.779  17.442 -0.7144 -0.6088 -2.4912
 2903TIP3    H232905   3.540   0.799  17.530  0.5633 -2.0675 -0.3153
 2904TIP3   OH232906   6.017   6.386  18.775 -0.0809  0.0199  0.1421
 2904TIP3    H132907   6.044   6.411  18.686 -2.5278  1.8608 -0.2084
 2904TIP3    H232908   6.028   6.291  18.778 -0.2340 -0.1358 -2.2550
 2905TIP3   OH232909   5.757   3.952  20.405 -0.5884 -0.1577 -0.1809
 2905TIP3    H132910   5.674   3.960  20.359  0.6288 -1.0316 -2.7356
 2905TIP3    H232911   5.753   3.866  20.447 -0.7276 -0.4925 -0.8661
 2906TIP3   OH232912   3.379   0.311  19.292 -0.0620  0.2395 -0.2610
 2906TIP3    H132913   3.327   0.234  19.314  1.0082  0.0149  1.7252
 2906TIP3    H232914   3.462   0.275  19.261  0.0587  0.5842 -0.3341
 2907TIP3   OH232915   6.572   5.703  18.957  0.1102 -0.0280 -0.0515
 2907TIP3    H132916   6.509   5.636  18.982  0.2667 -0.5725 -1.0397
 2907TIP3    H232917   6.639   5.700  19.025 -0.9702  0.6620  1.0949
 2908TIP3   OH232918   5.273   5.604  18.812 -0.2879 -0.2173  0.5294
 2908TIP3    H132919   5.336   5.545  18.853  1.1676  0.7633 -0.1865
 2908TIP3    H232920   5.195   5.598  18.867  0.0475 -2.2502  0.8612
 2909TIP3   OH232921   4.611   1.684  20.083  0.6206 -0.3171 -0.2886
 2909TIP3    H132922   4.670   1.630  20.031  0.4589 -0.7985  0.0122
 2909TIP3    H232923   4.577   1.750  20.022  0.2905 -0.9821 -0.8331
 2910TIP3   OH232924   2.553   1.934  17.766 -0.6932 -0.0845 -0.1348
 2910TIP3    H132925   2.618   1.980  17.819 -0.9357  1.5668 -1.2061
 2910TIP3    H232926   2.595   1.923  17.681 -1.4700  0.1915 -0.5668
 2911TIP3   OH232927   0.808   5.505  17.573 -0.0913  0.0763  0.1976
 2911TIP3    H132928   0.815   5.577  17.636  0.7952 -0.7868  1.1276
 2911TIP3    H232929   0.747   5.444  17.614 -1.6218  0.7052 -1.0366
 2912TIP3   OH232930   0.060   6.561  18.517 -0.1822 -0.3582  0.4900
 2912TIP3    H132931  -0.019   6.597  18.476  1.4465  1.4520 -1.2921
 2912TIP3    H232932   0.102   6.636  18.558  1.9601 -0.6845 -0.9517
 2913TIP3   OH232933   0.070   5.270  17.733  0.6568 -0.1543 -0.4367
 2913TIP3    H132934   0.109   5.283  17.646 -1.7329  1.6369 -1.3491
 2913TIP3    H232935  -0.008   5.326  17.733  1.0513  0.6479  3.2202
 2914TIP3   OH232936   2.534   0.751  18.540  0.4363  0.3514  0.3124
 2914TIP3    H132937   2.552   0.795  18.623  0.0249 -0.1326  0.6667
 2914TIP3    H232938   2.615   0.705  18.519 -0.2739 -1.7998  1.8838
 2915TIP3   OH232939   2.216   1.636  19.768  0.1583  0.9597  0.2133
 2915TIP3    H132940   2.270   1.561  19.745  1.7811  1.9823  0.5030
 2915TIP3    H232941   2.126   1.603  19.768  0.7319 -0.6862 -0.7472
 2916TIP3   OH232942   0.145   1.487  20.132 -0.6823  0.0870 -0.0448
 2916TIP3    H132943   0.236   1.494  20.162 -1.1441 -1.8180  2.0672
 2916TIP3    H232944   0.099   1.559  20.176 -0.6139 -0.3477  0.7484
 2917TIP3   OH232945   2.526   5.532  20.532  0.2637  0.4649  0.0331
 2917TIP3    H132946   2.556   5.447  20.564 -0.6064  1.0584  2.6384
 2917TIP3    H232947   2.606   5.575  20.500  0.5689 -1.6294 -2.2707
 2918TIP3   OH232948   4.246   1.051  17.436 -0.2007 -0.3879 -0.1582
 2918TIP3    H132949   4.335   1.060  17.470 -1.1052 -0.2261  2.3082
 2918TIP3    H232950   4.238   0.958  17.414  0.3841 -0.5195  0.1680
 2919TIP3   OH232951   5.700   0.030  18.109 -0.2631  0.2199  0.4769
 2919TIP3    H132952   5.720   0.115  18.149 -0.5768  1.0888 -1.1226
 2919TIP3    H232953   5.644   0.051  18.035  0.1949 -1.3206 -0.3562
 2920TIP3   OH232954   4.206   6.048  19.021  0.0515  0.5370 -0.0552
 2920TIP3    H132955   4.261   5.995  18.964  0.0763  0.0870  0.3733
 2920TIP3    H232956   4.252   6.131  19.030 -0.1694  0.7787 -1.0335
 2921TIP3   OH232957   3.570   6.494  18.065 -0.2681  0.0614  0.0899
 2921TIP3    H132958   3.493   6.439  18.078 -0.9310  0.8614 -0.3685
 2921TIP3    H232959   3.551   6.545  17.986  1.3076 -0.6732 -0.8051
 2922TIP3   OH232960   3.227   5.987  18.810 -0.1579 -0.3415  0.1570
 2922TIP3    H132961   3.313   6.008  18.774 -0.2403 -1.0850 -0.4921
 2922TIP3    H232962   3.166   6.037  18.756 -0.1527  0.0961  0.5443
 2923TIP3   OH232963   0.391   1.137  19.462  0.0537  0.3473 -0.0843
 2923TIP3    H132964   0.391   1.052  19.506  1.2164  0.4600  0.1732
 2923TIP3    H232965   0.383   1.115  19.369 -1.9119  0.0856  0.1060
 2924TIP3   OH232966   0.652   1.256  18.719  0.2789 -0.2148 -0.2462
 2924TIP3    H132967   0.655   1.325  18.653  0.4920  0.0067 -0.0076
 2924TIP3    H232968   0.576   1.203  18.695  0.1813  0.0364 -0.4966
 2925TIP3   OH232969   3.505   0.746  19.623 -0.0002  0.5177 -0.5208
 2925TIP3    H132970   3.479   0.655  19.612 -0.4647  0.7092 -1.0618
 2925TIP3    H232971   3.537   0.772  19.537  1.5245  0.4439 -0.0103
 2926TIP3   OH232972   2.364   3.677  18.601 -0.1647  0.3670  0.4063
 2926TIP3    H132973   2.311   3.749  18.566 -1.0824 -0.3136  0.3690
 2926TIP3    H232974   2.350   3.606  18.539  0.2177 -0.0517  0.7979
 2927TIP3   OH232975   2.417   0.719  17.766 -0.0085  0.0625  0.1172
 2927TIP3    H132976   2.408   0.720  17.861  0.0457  1.9399  0.1393
 2927TIP3    H232977   2.379   0.802  17.738  1.2501  0.1773 -1.3739
 2928TIP3   OH232978   6.208   1.340  19.703 -0.5530  0.1120  0.0383
 2928TIP3    H132979   6.119   1.331  19.738 -1.1224  0.3819 -1.2821
 2928TIP3    H232980   6.246   1.413  19.752 -0.3165 -1.2614  2.0195
 2929TIP3   OH232981   5.797   3.068  18.243  0.5918 -0.0726  0.0478
 2929TIP3    H132982   5.776   2.980  18.272  1.5808 -0.2355  0.2906
 2929TIP3    H232983   5.743   3.125  18.297  1.0597 -0.4616  0.9460
 2930TIP3   OH232984   3.509   1.177  17.728  0.3266 -0.2421 -0.1784
 2930TIP3    H132985   3.550   1.213  17.806  2.3789  0.1421 -1.3532
 2930TIP3    H232986   3.459   1.250  17.692  1.1053  0.2368 -0.3275
 2931TIP3   OH232987   2.208   1.367  20.637  0.4109  0.4738  0.4035
 2931TIP3    H132988   2.302   1.384  20.632  0.1515  1.5445 -3.5787
 2931TIP3    H232989   2.166   1.447  20.606 -1.7129 -0.7855 -0.2525
 2932TIP3   OH232990   2.172   0.812  19.386  0.1872  0.3373  0.1780
 2932TIP3    H132991   2.228   0.886  19.362  1.1945 -0.1196  1.0185
 2932TIP3    H232992   2.154   0.767  19.303  1.1935  0.4205 -0.1057
 2933TIP3   OH232993   6.531   2.798  18.577  0.2362 -0.3627  0.3560
 2933TIP3    H132994   6.585   2.830  18.504 -2.0237  1.8672 -0.4908
 2933TIP3    H232995   6.525   2.873  18.636 -0.9051 -0.9606  1.0276
 2934TIP3   OH232996   3.690   2.452  19.032  0.2808  0.2394 -0.0110
 2934TIP3    H132997   3.600   2.477  19.008  0.8137  1.0949 -1.2193
 2934TIP3    H232998   3.708   2.374  18.980 -0.5050 -1.2846  1.8972
 2935TIP3   OH232999   3.191   5.699  20.766 -0.1957 -0.0439  0.2302
 2935TIP3    H133000   3.285   5.711  20.765 -0.0302 -1.1699  0.5701
 2935TIP3    H233001   3.179   5.604  20.762 -1.2895  0.0400  1.1352
 2936TIP3   OH233002   3.071   6.577  18.641  0.7417 -0.0453  0.5077
 2936TIP3    H133003   3.034   6.527  18.713  1.2857  0.3698  1.0831
 2936TIP3    H233004   3.088   6.512  18.573  1.3234 -0.6247  1.1954
 2937TIP3   OH233005   0.086   6.741  18.750 -0.2804 -0.0260 -0.0173
 2937TIP3    H133006   0.049   6.674  18.809 -0.4081 -1.2053 -1.3795
 2937TIP3    H233007   0.017   6.757  18.686  0.4857 -0.0714 -0.8678
 2938TIP3   OH233008   3.823   1.732  18.726  0.0291 -0.0092  0.0653
 2938TIP3    H133009   3.773   1.651  18.730  0.9489 -0.6325 -0.6459
 2938TIP3    H233010   3.832   1.759  18.817 -0.4932 -0.5741  0.2920
 2939TIP3   OH233011   5.567   0.339  20.637 -0.0637  0.8055 -0.4199
 2939TIP3    H133012   5.645   0.355  20.582 -0.2189  0.4991 -0.7326
 2939TIP3    H233013   5.582   0.253  20.675 -1.4281 -0.4990 -2.5711
 2940TIP3   OH233014   1.290   1.524  20.222  0.0634  0.0860  0.4095
 2940TIP3    H133015   1.203   1.520  20.262 -0.4296  0.4256 -0.5911
 2940TIP3    H233016   1.334   1.445  20.254 -0.3870  0.2190  1.4120
 2941TIP3   OH233017   4.155   6.280  20.093 -0.5432 -0.5530  0.0901
 2941TIP3    H133018   4.139   6.329  20.012  0.4132 -1.4781 -0.6827
 2941TIP3    H233019   4.106   6.198  20.081  1.6546 -1.8290 -0.7289
 2942TIP3   OH233020   3.701   5.891  20.479  0.3880  0.1339  0.2271
 2942TIP3    H133021   3.732   5.819  20.425  0.7441 -0.7388  1.5393
 2942TIP3    H233022   3.630   5.853  20.531  0.1122  0.9232  0.4418
 2943TIP3   OH233023   2.767   1.542  18.707  0.0169  0.0675  0.5355
 2943TIP3    H133024   2.797   1.545  18.616 -0.9304 -0.9829  0.1620
 2943TIP3    H233025   2.833   1.488  18.752 -0.3378 -0.7384  0.1134
 2944TIP3   OH233026   0.021   5.106  18.504 -0.6503  0.2055  0.2338
 2944TIP3    H133027   0.102   5.089  18.553 -0.5531 -1.4260 -0.4218
 2944TIP3    H233028  -0.015   5.186  18.543  2.3664  2.2721 -0.8312
 2945TIP3   OH233029   0.129   4.342  19.845  0.1757  0.6167  0.7408
 2945TIP3    H133030   0.076   4.279  19.795 -0.4672  1.7403 -0.0478
 2945TIP3    H233031   0.089   4.342  19.932 -0.0203  0.1623  0.6540
 2946TIP3   OH233032   6.454   3.424  18.304  0.1310 -0.0832  0.1571
 2946TIP3    H133033   6.403   3.495  18.342 -1.1094  0.0895 -1.6868
 2946TIP3    H233034   6.389   3.359  18.276  0.8903 -0.0986 -1.7884
 2947TIP3   OH233035   3.350   2.110  19.809 -0.2172  0.3593  0.5309
 2947TIP3    H133036   3.395   2.055  19.873  0.3382  1.4536  1.1124
 2947TIP3    H233037   3.416   2.131  19.743 -0.6649 -0.3859 -0.1619
 2948TIP3   OH233038   5.702   6.350  19.219 -0.4528  0.8819  0.5179
 2948TIP3    H133039   5.689   6.443  19.200 -3.2745  0.1800 -1.8112
 2948TIP3    H233040   5.619   6.322  19.259 -1.1812 -1.2767 -2.1935
 2949TIP3   OH233041   0.317   5.941  20.600  0.6286 -0.7554 -0.5163
 2949TIP3    H133042   0.382   5.995  20.555 -0.8618  1.9323  0.3374
 2949TIP3    H233043   0.233   5.977  20.573 -0.4869 -3.0545 -0.2928
 2950TIP3   OH233044   0.704   3.858  17.923  0.3544  0.0397  0.2526
 2950TIP3    H133045   0.765   3.784  17.920 -0.3915 -0.5588 -0.6929
 2950TIP3    H233046   0.735   3.917  17.854  0.2477  0.0559  0.2199
 2951TIP3   OH233047   5.303   4.521  17.631 -0.3302  0.4202  0.4615
 2951TIP3    H133048   5.359   4.449  17.662 -0.1256 -0.5748 -1.9871
 2951TIP3    H233049   5.362   4.596  17.624  1.5601 -1.1125 -4.1543
 2952TIP3   OH233050   0.634   2.415  20.169  1.0595 -0.4526 -0.1724
 2952TIP3    H133051   0.688   2.489  20.195  0.0551  0.4830 -0.6392
 2952TIP3    H233052   0.603   2.438  20.081  0.4151 -1.2363 -0.1610
 2953TIP3   OH233053   0.534   2.140  19.416  0.0496  0.4048  0.4936
 2953TIP3    H133054   0.562   2.139  19.324  0.5285  2.3902  0.5888
 2953TIP3    H233055   0.456   2.085  19.417  0.4234 -0.2177 -0.9591
 2954TIP3   OH233056   3.371   4.585  18.263 -0.0187 -0.1772 -0.2810
 2954TIP3    H133057   3.369   4.644  18.338  0.2592 -1.0845  0.4650
 2954TIP3    H233058   3.460   4.550  18.262 -0.2088 -0.6707 -0.6296
 2955TIP3   OH233059   1.501   1.858  16.580 -0.0454 -0.0182 -0.3250
 2955TIP3    H133060   1.591   1.888  16.578 -0.3946  1.1274  0.5036
 2955TIP3    H233061   1.505   1.768  16.546  1.6236 -0.5467  1.1199
 2956TIP3   OH233062   2.427   3.325  19.437 -0.0419  0.0536 -0.2396
 2956TIP3    H133063   2.343   3.324  19.391 -0.1781 -1.0711  0.0093
 2956TIP3    H233064   2.477   3.253  19.400  2.2640  2.7561 -2.8784
 2957TIP3   OH233065   0.674   2.980  19.184 -0.2537  0.5555  0.2253
 2957TIP3    H133066   0.702   2.948  19.270 -0.1485  1.4387  0.5302
 2957TIP3    H233067   0.756   2.995  19.137 -0.1656  2.5291  0.8934
 2958TIP3   OH233068   5.672   5.735  19.260 -0.3100  0.6369 -0.5888
 2958TIP3    H133069   5.699   5.645  19.276 -1.1857  0.5428  0.4705
 2958TIP3    H233070   5.644   5.768  19.346  0.1536  1.9762 -0.9198
 2959TIP3   OH233071   6.699   3.036  19.713 -0.2798 -0.3792 -0.1216
 2959TIP3    H133072   6.715   2.968  19.648 -1.0987 -1.5939  0.9136
 2959TIP3    H233073   6.638   2.997  19.775 -0.4767  1.1733  0.7145
 2960TIP3   OH233074   4.201   6.499  19.107 -0.5846  0.2366 -0.1490
 2960TIP3    H133075   4.260   6.465  19.175 -1.0231 -0.2056  0.0144
 2960TIP3    H233076   4.153   6.422  19.077 -0.3291  0.4126 -1.0321
 2961TIP3   OH233077   1.333   3.333  17.511  0.9823 -0.2472  0.0355
 2961TIP3    H133078   1.409   3.300  17.559  0.3317 -0.4420  0.9593
 2961TIP3    H233079   1.276   3.257  17.500  0.3819  0.1355  0.4104
 2962TIP3   OH233080   3.893   6.711  19.621  0.1789 -0.3254 -0.0728
 2962TIP3    H133081   3.869   6.733  19.531 -0.2230 -0.1265  0.0760
 2962TIP3    H233082   3.983   6.681  19.616  0.2838  0.0497 -0.4863
 2963TIP3   OH233083   5.195   2.530  18.329 -0.3546  0.2398 -0.1664
 2963TIP3    H133084   5.169   2.615  18.292  0.8790 -0.1462 -2.0618
 2963TIP3    H233085   5.257   2.552  18.398  0.6952  0.9032 -1.2726
 2964TIP3   OH233086   4.305   1.040  16.898  0.0754 -0.5611 -0.0825
 2964TIP3    H133087   4.237   1.048  16.965  0.1142 -1.4933  0.0758
 2964TIP3    H233088   4.271   0.975  16.837 -0.9817  1.8675 -2.2488
 2965TIP3   OH233089   0.838   4.275  18.357  0.7919 -0.0786 -0.4922
 2965TIP3    H133090   0.815   4.305  18.269 -2.1053  0.2772  0.2767
 2965TIP3    H233091   0.753   4.258  18.399  2.0519  0.3320  2.4241
 2966TIP3   OH233092   2.054   1.792  17.402 -0.2960  0.1223 -0.0713
 2966TIP3    H133093   2.066   1.764  17.493 -0.5790  1.7511  0.5104
 2966TIP3    H233094   1.965   1.830  17.400  0.8423  3.0606 -0.1392
 2967TIP3   OH233095   1.394   6.373  17.599 -0.0796  0.2354  0.4827
 2967TIP3    H133096   1.343   6.443  17.639 -2.9529 -1.2714 -0.2246
 2967TIP3    H233097   1.333   6.330  17.539  2.4465 -0.9671 -1.4364
 2968TIP3   OH233098   4.873   2.259  20.912  0.3379  0.4145 -0.5676
 2968TIP3    H133099   4.953   2.289  20.868  1.2063 -0.3066  0.4607
 2968TIP3    H233100   4.887   2.281  21.004 -0.2321 -0.5656 -0.2299
 2969TIP3   OH233101   1.770   1.125  18.281  0.4027  0.0750  0.0574
 2969TIP3    H133102   1.706   1.092  18.343  1.4082 -1.0769  0.5140
 2969TIP3    H233103   1.735   1.210  18.253  0.4134  1.1414  2.9448
 2970TIP3   OH233104   5.885   2.521  17.892  0.2256 -0.2249  0.0116
 2970TIP3    H133105   5.868   2.439  17.845 -0.1971  1.9279 -4.0813
 2970TIP3    H233106   5.967   2.552  17.855  0.5518  1.0909  1.7316
 2971TIP3   OH233107   0.968   4.286  19.571 -0.4831  0.1527 -0.8713
 2971TIP3    H133108   0.969   4.381  19.553  1.3462  0.2807 -0.3072
 2971TIP3    H233109   0.938   4.247  19.489  0.2927  1.1526 -1.6732
 2972TIP3   OH233110   5.772   2.672  20.493  0.2179  0.2714  0.5115
 2972TIP3    H133111   5.773   2.734  20.566  1.1340  2.1340 -0.9913
 2972TIP3    H233112   5.700   2.702  20.437 -2.4251 -2.8489  1.8945
 2973TIP3   OH233113   5.620   3.600  20.391  0.1323 -0.3617  0.7853
 2973TIP3    H133114   5.689   3.580  20.327 -1.8820 -0.6998 -1.4401
 2973TIP3    H233115   5.602   3.693  20.377  0.2812 -0.2172  1.5308
 2974TIP3   OH233116   3.566   2.843  20.220 -0.1718 -0.6336  0.1956
 2974TIP3    H133117   3.501   2.786  20.179 -1.1526  0.7279 -0.2153
 2974TIP3    H233118   3.612   2.884  20.146  0.4001 -0.7688  0.4762
 2975TIP3   OH233119   5.936   0.556  17.440  0.0561 -0.1033 -0.6618
 2975TIP3    H133120   5.854   0.507  17.429 -0.3332  0.3861  0.0001
 2975TIP3    H233121   5.955   0.550  17.533  1.1743 -0.8283 -0.9164
 2976TIP3   OH233122   4.358   0.207  19.416 -0.3926  0.5047 -0.1512
 2976TIP3    H133123   4.377   0.255  19.497 -0.4872  1.0415 -0.4429
 2976TIP3    H233124   4.269   0.173  19.428  0.1181 -0.6629  0.5627
 2977TIP3   OH233125   1.811   0.799  18.579 -0.0199  0.0819 -0.1098
 2977TIP3    H133126   1.735   0.741  18.589  0.2789 -0.2810  0.0980
 2977TIP3    H233127   1.821   0.809  18.485  0.5299 -1.0305 -0.1884
 2978TIP3   OH233128   1.134   3.186  20.643  0.0124  0.0625 -0.2146
 2978TIP3    H133129   1.096   3.274  20.654 -0.2875 -0.1429  0.4098
 2978TIP3    H233130   1.103   3.158  20.557 -3.0746 -0.9684  1.1100
 2979TIP3   OH233131   5.329   2.564  17.432 -0.4342  0.1188  0.3708
 2979TIP3    H133132   5.382   2.565  17.512 -0.1829 -0.1761  0.2127
 2979TIP3    H233133   5.255   2.622  17.451 -0.2546  0.2317  0.7329
 2980TIP3   OH233134   5.017   3.650  19.260  0.0879  0.2760  0.2040
 2980TIP3    H133135   5.101   3.636  19.215  0.2325 -0.4466  0.6767
 2980TIP3    H233136   4.971   3.566  19.251  0.5575 -0.2487  2.2708
 2981TIP3   OH233137   0.740   0.415  19.546 -0.0935  0.0279 -0.3959
 2981TIP3    H133138   0.660   0.434  19.496 -0.4237  0.1554  0.1746
 2981TIP3    H233139   0.756   0.495  19.597 -1.1451 -0.9315  1.5603
 2982TIP3   OH233140   1.182   3.892  19.528  0.2287 -0.5566 -0.3153
 2982TIP3    H133141   1.226   3.970  19.494  0.6586 -1.1611 -1.1664
 2982TIP3    H233142   1.107   3.927  19.578  1.1890  0.4403  0.4754
 2983TIP3   OH233143   1.229   5.764  20.084 -0.6745  0.5142  0.0614
 2983TIP3    H133144   1.177   5.817  20.024 -0.4858  1.2352  0.5275
 2983TIP3    H233145   1.169   5.742  20.156 -0.3191  1.4446  0.6574
 2984TIP3   OH233146   4.769   5.680  19.501 -0.4717  0.3372 -0.0104
 2984TIP3    H133147   4.719   5.654  19.579 -0.0753 -0.0288  0.1257
 2984TIP3    H233148   4.735   5.767  19.479 -1.7430 -0.2300 -0.4035
 2985TIP3   OH233149   0.652   0.903  19.166  0.2505 -0.4068  0.5972
 2985TIP3    H133150   0.674   0.989  19.130 -1.0143 -0.2784  0.0440
 2985TIP3    H233151   0.607   0.922  19.249 -0.5402 -0.4841  0.1998
 2986TIP3   OH233152   6.436   1.398  20.259  0.1711 -0.5001  0.1473
 2986TIP3    H133153   6.485   1.442  20.329 -1.2431  1.6085 -0.1162
 2986TIP3    H233154   6.365   1.353  20.305 -0.4576  0.4642  0.1490
 2987TIP3   OH233155   2.039   2.795  17.835 -0.1486  0.4049  0.2548
 2987TIP3    H133156   2.045   2.889  17.817 -1.3858  0.4780  0.1093
 2987TIP3    H233157   1.972   2.763  17.774  1.2019 -0.8424 -0.6343
 2988TIP3   OH233158   0.495   2.145  19.108 -0.1542  0.0932  0.1166
 2988TIP3    H133159   0.482   2.162  19.015 -1.0531  1.4038  0.4560
 2988TIP3    H233160   0.474   2.052  19.119  0.6749 -0.2594 -1.0906
 2989TIP3   OH233161   2.663   1.312  17.837  0.0930 -0.3725  0.0310
 2989TIP3    H133162   2.632   1.354  17.917 -1.8415 -0.2148 -0.7517
 2989TIP3    H233163   2.713   1.236  17.867  1.4009  0.9662  1.4043
 2990TIP3   OH233164   4.734   1.527  17.383  0.1666 -0.6768 -0.2693
 2990TIP3    H133165   4.823   1.507  17.413 -0.3456  0.4377  2.2477
 2990TIP3    H233166   4.745   1.560  17.294  2.4722  0.9093  0.5185
 2991TIP3   OH233167   6.423   2.935  18.026  0.4290 -0.5626  0.3748
 2991TIP3    H133168   6.422   2.887  18.108  0.8270 -0.4970  0.4205
 2991TIP3    H233169   6.486   2.888  17.971  2.6302  1.1966  1.2210
 2992TIP3   OH233170   5.448   3.547  18.777  0.1401 -1.0146 -0.8914
 2992TIP3    H133171   5.473   3.459  18.806  0.8272 -0.1045  1.5802
 2992TIP3    H233172   5.360   3.559  18.812  0.3504 -0.4500 -0.5467
 2993TIP3   OH233173   2.836   6.386  17.615  0.5727 -0.1187  0.9061
 2993TIP3    H133174   2.880   6.358  17.695 -1.5922 -2.3151  1.4135
 2993TIP3    H233175   2.875   6.331  17.546  0.1456 -0.5398  0.9993
 2994TIP3   OH233176   1.428   3.028  19.726  0.1784 -0.2842  0.9395
 2994TIP3    H133177   1.449   3.110  19.771  2.5396  0.2720 -1.0219
 2994TIP3    H233178   1.334   3.036  19.706  0.6203  2.6648 -0.4976
 2995TIP3   OH233179   2.134   1.718  17.696 -0.2078 -0.0986 -0.0816
 2995TIP3    H133180   2.187   1.639  17.714  0.3815  0.3198  0.0660
 2995TIP3    H233181   2.193   1.791  17.717 -0.3814  0.3927 -1.2598
 2996TIP3   OH233182   5.014   3.582  18.032 -0.3106  0.5140 -0.1751
 2996TIP3    H133183   5.042   3.587  18.123 -0.3075 -0.6458 -0.0917
 2996TIP3    H233184   5.028   3.670  17.997  0.4415  0.7654  0.7224
 2997TIP3   OH233185   3.482   1.319  20.712 -0.7422 -0.3362  1.0742
 2997TIP3    H133186   3.424   1.374  20.659  0.2010 -1.9312 -1.8711
 2997TIP3    H233187   3.432   1.238  20.724 -0.4940 -0.4073  1.6196
 2998TIP3   OH233188   6.449   2.450  19.771 -0.0376  0.0015  0.4622
 2998TIP3    H133189   6.506   2.381  19.739  1.2289  1.2560 -0.0702
 2998TIP3    H233190   6.498   2.531  19.757 -0.1285  0.8330  3.9254
 2999TIP3   OH233191   5.465   2.314  19.245 -0.2203 -0.3713 -0.7313
 2999TIP3    H133192   5.454   2.221  19.263  2.9586 -0.9246 -1.0562
 2999TIP3    H233193   5.501   2.317  19.157  1.7814  0.9387  0.0530
 3000TIP3   OH233194   5.308   0.732  19.772  0.1910 -0.2487  0.0900
 3000TIP3    H133195   5.389   0.714  19.725  1.3416  1.7976  1.1548
 3000TIP3    H233196   5.242   0.744  19.704  1.5072  1.2870 -0.9694
 3001TIP3   OH233197   1.934   2.241  16.874 -0.2424 -0.4887 -0.5262
 3001TIP3    H133198   1.866   2.212  16.814 -1.4111  0.9749  0.0485
 3001TIP3    H233199   2.004   2.274  16.817 -1.0466  0.2440 -1.1174
 3002TIP3   OH233200   2.645   3.737  19.133  0.1193 -0.1236  0.1642
 3002TIP3    H133201   2.584   3.687  19.187  0.8990 -0.8100  0.4392
 3002TIP3    H233202   2.611   3.729  19.044 -1.0200  0.7739  0.4946
 3003TIP3   OH233203   2.113   2.178  18.319  0.3164 -0.0508  0.0871
 3003TIP3    H133204   2.126   2.205  18.228  1.1681  1.3660  0.5926
 3003TIP3    H233205   2.022   2.150  18.323  0.4218 -0.6877 -1.3220
 3004TIP3   OH233206   6.480   4.317  20.167 -0.0009  0.4661  0.3396
 3004TIP3    H133207   6.471   4.261  20.244 -0.6266  0.0111 -0.0614
 3004TIP3    H233208   6.410   4.289  20.108  1.3723 -0.2289 -1.0440
 3005TIP3   OH233209   1.366   6.088  17.494  0.4620 -0.0111  0.2820
 3005TIP3    H133210   1.309   6.011  17.487  2.3603 -1.5784  0.9240
 3005TIP3    H233211   1.318   6.158  17.452 -2.4210 -0.9365  1.7626
 3006TIP3   OH233212   1.985   0.662  18.309 -0.3641 -0.0678 -0.1298
 3006TIP3    H133213   1.904   0.704  18.279 -0.4500 -1.0524 -1.3588
 3006TIP3    H233214   1.968   0.569  18.299  0.4795 -0.3384  0.8341
 3007TIP3   OH233215   2.094   6.647  19.349  0.5798 -0.6325 -0.1293
 3007TIP3    H133216   2.180   6.667  19.385  0.4142 -1.3396  0.6705
 3007TIP3    H233217   2.079   6.555  19.371  0.0432 -0.7989 -1.1361
 3008TIP3   OH233218   2.744   3.456  20.636  0.7816 -0.4134  0.2983
 3008TIP3    H133219   2.814   3.521  20.644  0.0627  0.4357 -0.2448
 3008TIP3    H233220   2.673   3.489  20.690 -0.1085 -0.0255 -1.0756
 3009TIP3   OH233221   5.353   3.413  18.455 -0.4340  0.7561  0.6748
 3009TIP3    H133222   5.291   3.413  18.382 -0.8159 -0.3969  0.9716
 3009TIP3    H233223   5.343   3.326  18.494  0.7401  0.8757  1.2735
 3010TIP3   OH233224   4.233   5.210  20.908 -0.0393 -0.1033 -0.0692
 3010TIP3    H133225   4.317   5.212  20.862  0.0962  4.6130 -0.0803
 3010TIP3    H233226   4.252   5.163  20.989  2.1404 -0.6176 -0.7904
 3011TIP3   OH233227   5.314   4.344  18.058 -0.1561 -0.1534 -0.1712
 3011TIP3    H133228   5.343   4.427  18.022 -0.3160 -0.1891 -0.3869
 3011TIP3    H233229   5.363   4.334  18.139  0.6691 -0.3695 -0.6876
 3012TIP3   OH233230   5.498   1.029  20.465 -0.5089  0.0087  0.1381
 3012TIP3    H133231   5.495   1.006  20.372  0.9777 -1.1494  0.3453
 3012TIP3    H233232   5.414   0.997  20.500  0.6261 -3.6255  0.0149
 3013TIP3   OH233233   2.424   2.870  19.553  0.3944 -0.3342  0.4731
 3013TIP3    H133234   2.520   2.872  19.544  0.3812 -0.6195  0.2404
 3013TIP3    H233235   2.409   2.819  19.632  0.5436  3.1249  2.9510
 3014TIP3   OH233236   4.176   1.210  19.471  0.4461  0.1840 -0.3000
 3014TIP3    H133237   4.166   1.115  19.479  1.9315 -0.0179 -0.6293
 3014TIP3    H233238   4.239   1.233  19.539  1.3327  0.6764 -1.2567
 3015TIP3   OH233239   4.627   1.972  20.221  0.4628 -0.5643  0.3651
 3015TIP3    H133240   4.621   1.887  20.176  2.0182 -0.0966 -0.7956
 3015TIP3    H233241   4.538   1.987  20.254 -1.1909 -0.4042 -3.5778
 3016TIP3   OH233242   6.463   6.104  18.335 -0.6633 -0.2356 -0.3588
 3016TIP3    H133243   6.478   6.060  18.419 -2.2527 -0.3490 -0.0947
 3016TIP3    H233244   6.377   6.071  18.307  0.1428 -0.7405 -2.3840
 3017TIP3   OH233245   0.089   1.540  18.650 -0.3230 -0.0885  0.3125
 3017TIP3    H133246   0.181   1.515  18.638  0.1069  0.2704  2.4523
 3017TIP3    H233247   0.046   1.458  18.677 -0.0960  0.2422  1.7325
 3018TIP3   OH233248   1.045   6.666  20.210 -0.2900  0.0898  0.1219
 3018TIP3    H133249   1.120   6.606  20.212 -1.1159 -0.9510  0.4116
 3018TIP3    H233250   1.016   6.665  20.118  0.0094  0.4582  0.0189
 3019TIP3   OH233251   0.694   1.314  18.323 -0.1757 -0.1883  0.0267
 3019TIP3    H133252   0.757   1.383  18.345 -0.3795  0.0023  0.0246
 3019TIP3    H233253   0.731   1.234  18.359  0.7721 -0.3300 -1.2051
 3020TIP3   OH233254   2.227   4.976  19.272 -0.4826  0.0354  0.9897
 3020TIP3    H133255   2.247   4.924  19.350  0.3039  0.5859  1.1708
 3020TIP3    H233256   2.167   5.043  19.303 -1.1628 -0.4975  0.8467
 3021TIP3   OH233257   4.433   5.362  19.508  0.1771 -0.4799  0.1873
 3021TIP3    H133258   4.410   5.447  19.547  2.2924 -0.0843  0.7122
 3021TIP3    H233259   4.485   5.385  19.430  3.0979 -1.1781  1.7800
 3022TIP3   OH233260   3.030   5.930  19.628  0.1872  0.1520 -0.4336
 3022TIP3    H133261   3.048   5.927  19.722  0.4216  2.0971 -0.3579
 3022TIP3    H233262   3.091   5.996  19.595 -1.0812  0.7652 -1.6369
 3023TIP3   OH233263   5.771   0.142  20.612  0.1435  0.1264  0.1913
 3023TIP3    H133264   5.830   0.106  20.545  1.1658 -2.2897  2.2262
 3023TIP3    H233265   5.818   0.130  20.694 -2.6940 -0.9016  1.8104
 3024TIP3   OH233266   5.912   1.467  19.159  0.2125  0.1728 -0.0081
 3024TIP3    H133267   5.954   1.407  19.222  1.3901 -0.9539 -1.7510
 3024TIP3    H233268   5.818   1.455  19.173  0.4450 -0.3483  1.2546
 3025TIP3   OH233269   5.578   1.966  20.340 -0.1948 -0.2763  0.3730
 3025TIP3    H133270   5.607   1.907  20.410 -0.1379 -0.8492 -0.1206
 3025TIP3    H233271   5.647   2.032  20.334  0.0680 -0.5378  0.4877
 3026TIP3   OH233272   1.873   6.261  19.102  0.2104 -0.1259 -0.6474
 3026TIP3    H133273   1.961   6.293  19.122  1.4807 -2.8089 -1.4703
 3026TIP3    H233274   1.880   6.226  19.014 -1.6323 -0.6400 -0.6297
 3027TIP3   OH233275   0.095   2.812  20.867 -0.2694  0.3984  0.8490
 3027TIP3    H133276   0.051   2.821  20.951 -0.4180  0.6503  0.7471
 3027TIP3    H233277   0.049   2.740  20.823 -2.3570  2.3470 -0.3422
 3028TIP3   OH233278   1.733   5.281  18.778 -0.3954 -0.0751  0.5792
 3028TIP3    H133279   1.640   5.282  18.798 -0.9868  0.8772 -1.8309
 3028TIP3    H233280   1.739   5.235  18.694  0.9473  2.0569 -0.5897
 3029TIP3   OH233281   3.347   0.829  19.228 -0.2865 -0.5030  0.4332
 3029TIP3    H133282   3.380   0.871  19.308  1.3326 -0.7241 -0.0808
 3029TIP3    H233283   3.425   0.816  19.174 -1.4409  0.3181 -1.5196
 3030TIP3   OH233284   6.618   3.223  18.143  0.4344 -0.3135 -0.0317
 3030TIP3    H133285   6.574   3.151  18.097 -1.8053  1.5437 -0.9823
 3030TIP3    H233286   6.708   3.219  18.110 -0.1320 -1.4671 -1.6083
 3031TIP3   OH233287   5.833   1.257  20.204 -0.7667 -0.0130 -0.1206
 3031TIP3    H133288   5.904   1.304  20.161  0.0550 -0.1426  1.0404
 3031TIP3    H233289   5.802   1.195  20.138  0.2984 -0.0512 -0.6157
 3032TIP3   OH233290   1.229   3.361  19.047  0.2258 -0.4734 -0.3909
 3032TIP3    H133291   1.272   3.316  19.120  0.1972 -0.1185 -0.1525
 3032TIP3    H233292   1.234   3.454  19.070  2.0240 -0.1730 -1.8016
 3033TIP3   OH233293   0.395   5.686  20.675  0.4080 -0.2303  0.2040
 3033TIP3    H133294   0.376   5.780  20.668  1.4874  0.1060  1.3918
 3033TIP3    H233295   0.314   5.648  20.710  0.8118  0.7104  2.3564
 3034TIP3   OH233296   6.526   3.785  20.288 -0.1231  0.1065 -0.2179
 3034TIP3    H133297   6.492   3.721  20.225  0.0957  0.0553 -0.2858
 3034TIP3    H233298   6.536   3.737  20.369  0.7339 -0.1365 -0.4562
 3035TIP3   OH233299   4.648   6.608  18.218 -0.3673  0.1308  0.0216
 3035TIP3    H133300   4.730   6.614  18.267  0.3772 -1.2367 -0.9742
 3035TIP3    H233301   4.594   6.548  18.269 -0.9598  1.4106  0.9295
 3036TIP3   OH233302   2.841   1.297  17.549  0.8226 -0.4090 -0.1702
 3036TIP3    H133303   2.836   1.235  17.476 -0.8269 -0.4558 -0.0512
 3036TIP3    H233304   2.840   1.383  17.507  1.2728 -0.4406 -0.2516
 3037TIP3   OH233305   4.202   0.142  18.716 -0.2941  0.2176  0.0389
 3037TIP3    H133306   4.223   0.192  18.638 -0.2178  1.5076  0.8583
 3037TIP3    H233307   4.168   0.207  18.778 -1.0019 -0.8808  0.8360
 3038TIP3   OH233308   0.368   5.040  17.462 -0.3416  0.7101  0.3393
 3038TIP3    H133309   0.420   4.966  17.492 -0.5143  0.8999  1.1185
 3038TIP3    H233310   0.285   5.001  17.434  0.3417  0.3559 -1.2989
 3039TIP3   OH233311   0.587   4.665  20.836 -0.5120 -0.5915  0.1806
 3039TIP3    H133312   0.512   4.718  20.810  0.1551  0.0318 -0.5209
 3039TIP3    H233313   0.588   4.592  20.775 -0.1888 -0.2645 -0.2110
 3040TIP3   OH233314   1.024   5.244  18.907 -0.5192  0.2157 -0.5306
 3040TIP3    H133315   1.096   5.211  18.853  2.1387 -0.3272  2.9563
 3040TIP3    H233316   1.011   5.176  18.973 -1.5374  2.0409  1.2506
 3041TIP3   OH233317   1.306   1.140  20.622  0.1501 -0.0692 -0.2253
 3041TIP3    H133318   1.255   1.059  20.614  1.2475 -0.6754 -1.1925
 3041TIP3    H233319   1.239   1.208  20.632 -0.8619 -0.8561 -1.3178
 3042TIP3   OH233320   3.684   2.576  19.267 -0.0610 -0.0944  0.4931
 3042TIP3    H133321   3.739   2.537  19.335 -0.9154 -0.5906  0.9154
 3042TIP3    H233322   3.697   2.521  19.190 -0.5621 -0.6795  0.8215
 3043TIP3   OH233323   3.878   2.575  20.044 -0.1421  0.0935 -0.3078
 3043TIP3    H133324   3.787   2.559  20.068 -0.4535  0.2576 -1.3191
 3043TIP3    H233325   3.927   2.507  20.090 -0.6702  0.4919  0.8902
 3044TIP3   OH233326   4.486   5.427  20.656 -0.0233  0.4061 -0.4515
 3044TIP3    H133327   4.459   5.427  20.564  0.2340 -1.7317 -0.5736
 3044TIP3    H233328   4.559   5.489  20.660  1.0870 -0.7380 -2.0691
 3045TIP3   OH233329   0.535   2.728  18.105  0.1955 -0.2356  0.0291
 3045TIP3    H133330   0.561   2.820  18.109 -0.4380 -0.0177 -0.6336
 3045TIP3    H233331   0.614   2.681  18.078  0.6095  0.0669  0.7085
 3046TIP3   OH233332   0.579   1.153  20.038  0.3525 -0.3407 -0.2595
 3046TIP3    H133333   0.616   1.240  20.028 -1.5593  0.3786 -1.7398
 3046TIP3    H233334   0.636   1.096  19.987  1.0764  0.2173 -0.0764
 3047TIP3   OH233335   0.252   3.479  19.172  0.1637 -0.3493 -0.0795
 3047TIP3    H133336   0.260   3.530  19.092 -0.0729  1.2967  0.8821
 3047TIP3    H233337   0.168   3.434  19.164 -0.1577  0.3182 -0.4895
 3048TIP3   OH233338   2.164   1.634  20.594  0.4583  0.0941  0.3151
 3048TIP3    H133339   2.100   1.706  20.602  0.0007 -0.3530  0.7306
 3048TIP3    H233340   2.245   1.677  20.566 -0.0879  0.6403 -0.4831
 3049TIP3   OH233341   1.730   5.163  18.522 -0.4314  0.4354 -0.2951
 3049TIP3    H133342   1.653   5.123  18.481 -1.7145  1.2707  1.2006
 3049TIP3    H233343   1.722   5.256  18.504 -0.0973  0.6053  0.3973
 3050TIP3   OH233344   4.889   5.381  17.854 -0.2426  0.1747 -0.2772
 3050TIP3    H133345   4.961   5.338  17.808 -1.0349  1.1159 -2.5294
 3050TIP3    H233346   4.917   5.472  17.861  0.8972 -0.2845  3.3781
 3051TIP3   OH233347   1.793   2.369  17.995  0.2872  0.9884  0.5006
 3051TIP3    H133348   1.738   2.292  18.007  0.0098  0.8017 -1.5907
 3051TIP3    H233349   1.812   2.370  17.901  4.2313  0.7688  1.1328
 3052TIP3   OH233350   0.008   4.929  18.972 -0.0123  0.2067  0.0214
 3052TIP3    H133351   0.016   4.849  19.024  0.7960 -0.5798 -1.2606
 3052TIP3    H233352  -0.062   4.911  18.910  0.9975 -0.0008 -1.0875
 3053TIP3   OH233353   3.793   1.073  19.346 -0.0958  0.1115  0.7873
 3053TIP3    H133354   3.864   1.117  19.299 -0.9159 -1.6876 -2.4185
 3053TIP3    H233355   3.838   1.011  19.404  0.9933 -0.2199 -0.3630
 3054TIP3   OH233356   1.060   0.986  19.019 -0.4358  0.4744 -0.3329
 3054TIP3    H133357   1.138   0.949  18.977 -1.2257 -3.4844  1.1828
 3054TIP3    H233358   1.013   1.031  18.949  2.5745  1.9851 -1.5205
 3055TIP3   OH233359   5.413   2.467  18.516  0.1997  0.1748  0.4014
 3055TIP3    H133360   5.464   2.546  18.500  0.6140 -0.6803 -3.3785
 3055TIP3    H233361   5.464   2.417  18.580  1.0240  1.9384  1.1789
 3056TIP3   OH233362   5.643   0.075  19.627  0.0641 -0.5270  0.2280
 3056TIP3    H133363   5.661   0.058  19.535  0.0767 -0.6333  0.2501
 3056TIP3    H233364   5.602  -0.005  19.659  0.9813 -0.8843  0.5607
 3057TIP3   OH233365   2.058   3.876  19.067  0.0754  0.1296  0.1282
 3057TIP3    H133366   1.971   3.884  19.105  0.4089 -0.7332  1.1202
 3057TIP3    H233367   2.093   3.965  19.069 -1.0677  0.6449 -1.0550
 3058TIP3   OH233368   2.384   3.320  18.638 -0.1470  0.0879  0.1190
 3058TIP3    H133369   2.333   3.239  18.632  0.5175 -0.2529 -1.7572
 3058TIP3    H233370   2.344   3.368  18.710 -1.9948 -0.9309 -0.1529
 3059TIP3   OH233371   5.503   2.973  18.792 -0.5482 -0.2647 -0.4352
 3059TIP3    H133372   5.428   2.927  18.752  0.2420 -0.3693 -1.8753
 3059TIP3    H233373   5.542   2.908  18.851  0.3225 -1.3987 -2.1533
 3060TIP3   OH233374   0.743   2.342  18.376 -0.2589 -0.2428 -0.2428
 3060TIP3    H133375   0.714   2.254  18.399 -1.5488  0.4907  1.0901
 3060TIP3    H233376   0.738   2.392  18.457 -0.4207  1.2947 -1.1470
 3061TIP3   OH233377   1.863   6.627  18.638 -0.1896  0.3933 -0.2642
 3061TIP3    H133378   1.929   6.690  18.609 -0.0378  0.6531  0.6120
 3061TIP3    H233379   1.780   6.662  18.603  0.0933  0.2045 -1.1424
 3062TIP3   OH233380   3.882   5.649  17.751 -0.2069 -0.1349  0.2751
 3062TIP3    H133381   3.908   5.629  17.661 -2.9618 -1.2008 -0.3741
 3062TIP3    H233382   3.838   5.733  17.744 -0.6627 -0.3497  0.5805
 3063TIP3   OH233383   1.628   0.485  17.706 -0.4576 -0.2613  0.0166
 3063TIP3    H133384   1.700   0.423  17.698 -0.8893 -1.0054  1.5768
 3063TIP3    H233385   1.553   0.440  17.666 -0.4185 -0.1102 -0.2298
 3064TIP3   OH233386   1.318   3.220  19.262 -0.3815 -0.0707 -0.5826
 3064TIP3    H133387   1.223   3.210  19.274 -0.5948  2.5211  0.4989
 3064TIP3    H233388   1.356   3.180  19.340 -0.6462 -0.2938 -0.5650
 3065TIP3   OH233389   0.073   6.650  19.482  0.2297 -0.1839 -0.3860
 3065TIP3    H133390   0.057   6.572  19.536 -1.4039 -0.1779 -0.8086
 3065TIP3    H233391   0.160   6.636  19.445  0.8019 -0.8503  1.1182
 3066TIP3   OH233392   1.134   1.910  19.077  0.3629 -0.1668  0.0676
 3066TIP3    H133393   1.043   1.915  19.048  0.7747 -1.2026 -1.5519
 3066TIP3    H233394   1.155   1.817  19.072  1.5390  0.0742  0.3189
 3067TIP3   OH233395   3.979   1.936  18.243 -0.1464  0.3320 -0.5013
 3067TIP3    H133396   4.039   1.990  18.295  0.5560 -0.4946 -0.4377
 3067TIP3    H233397   3.939   1.877  18.306 -1.3825  1.1692 -0.4721
 3068TIP3   OH233398   1.126   3.018  19.676  0.3723 -0.1959 -0.3340
 3068TIP3    H133399   1.065   3.061  19.615  0.0351  2.6844  1.8391
 3068TIP3    H233400   1.076   2.945  19.712 -0.4152 -0.2166 -1.4017
 3069TIP3   OH233401   2.392   5.276  19.957 -0.0956  0.2423 -0.4455
 3069TIP3    H133402   2.486   5.286  19.942  0.4173 -1.9489  0.7594
 3069TIP3    H233403   2.383   5.283  20.052 -0.8012 -1.5677 -0.3434
 3070TIP3   OH233404   4.502   3.345  20.178  0.0259  0.5448 -0.0019
 3070TIP3    H133405   4.451   3.264  20.170 -0.5229  0.5658  2.5053
 3070TIP3    H233406   4.587   3.318  20.210  0.1479  0.8984 -0.0173
 3071TIP3   OH233407   1.812   2.465  20.235  0.0508 -0.6016 -0.1290
 3071TIP3    H133408   1.831   2.373  20.216  3.9534  0.1659 -0.7871
 3071TIP3    H233409   1.813   2.509  20.150  1.6696  0.4965  0.4045
 3072TIP3   OH233410   4.628   6.221  20.715 -0.3800  0.3944  0.6735
 3072TIP3    H133411   4.702   6.179  20.758  0.3804  1.1986  0.1853
 3072TIP3    H233412   4.662   6.248  20.629 -1.1156  1.1422  0.6041
 3073TIP3   OH233413   4.070   4.651  19.294 -0.2803 -0.1619  0.2373
 3073TIP3    H133414   4.046   4.612  19.210 -1.9371 -0.1902  0.6848
 3073TIP3    H233415   4.052   4.745  19.283 -2.3510 -0.3907  1.0930
 3074TIP3   OH233416   2.756   1.022  19.567  0.0616  0.0736 -0.5183
 3074TIP3    H133417   2.729   1.033  19.658 -0.5834  3.5277 -1.0036
 3074TIP3    H233418   2.692   0.962  19.530 -1.9495  1.5548  0.4194
 3075TIP3   OH233419   3.785   4.821  19.488  0.1686 -0.1508  0.4053
 3075TIP3    H133420   3.823   4.908  19.500 -0.1181 -0.0649  0.7320
 3075TIP3    H233421   3.840   4.764  19.541  1.4943 -0.5008 -1.2632
 3076TIP3   OH233422   2.747   2.598  19.470 -0.1839 -0.0670 -0.3716
 3076TIP3    H133423   2.809   2.583  19.541  0.0337  1.5423 -0.1849
 3076TIP3    H233424   2.797   2.647  19.405 -0.4570 -1.2858 -1.5485
 3077TIP3   OH233425   3.629   0.664  18.836  0.1685  0.8281 -0.2763
 3077TIP3    H133426   3.697   0.731  18.847 -0.7030  1.6742  0.1040
 3077TIP3    H233427   3.548   0.708  18.863 -0.7858  0.3271 -2.1621
 3078TIP3   OH233428   2.526   4.254  17.779  0.3996  0.1253  0.0654
 3078TIP3    H133429   2.593   4.310  17.818  1.0311 -0.2513 -0.4592
 3078TIP3    H233430   2.446   4.275  17.828  1.2182 -0.5806  1.8018
 3079TIP3   OH233431   2.617   5.418  18.183  0.4238  0.3022 -0.1313
 3079TIP3    H133432   2.611   5.512  18.162 -0.6752  0.4103  0.5818
 3079TIP3    H233433   2.581   5.412  18.272  0.6174 -0.7795 -0.1227
 3080TIP3   OH233434   0.047   5.961  19.556 -0.0280  0.1044  0.1539
 3080TIP3    H133435   0.108   6.000  19.494 -0.5246  0.5044 -0.0937
 3080TIP3    H233436  -0.024   5.927  19.501  0.6540 -1.6803  0.2985
 3081TIP3   OH233437   6.066   1.922  18.416 -0.4485 -0.4968 -0.6003
 3081TIP3    H133438   6.061   2.015  18.396  1.2185 -0.2391  0.0377
 3081TIP3    H233439   6.085   1.880  18.332 -1.2027 -0.2779 -0.8885
 3082TIP3   OH233440   0.310   4.926  18.034  0.7257 -0.3147 -0.2567
 3082TIP3    H133441   0.239   4.974  17.991  1.7084  0.3534 -1.1650
 3082TIP3    H233442   0.299   4.947  18.127  0.0521  0.2093 -0.4428
 3083TIP3   OH233443   2.790   3.207  20.934 -0.4545 -0.5551  0.1036
 3083TIP3    H133444   2.766   3.298  20.947  1.0168 -0.1596  0.3079
 3083TIP3    H233445   2.733   3.157  20.992 -0.4543  0.3418  0.8858
 3084TIP3   OH233446   4.336   1.471  16.944 -0.2472  0.0961 -0.0153
 3084TIP3    H133447   4.245   1.472  16.916 -0.4705 -0.7361  0.6835
 3084TIP3    H233448   4.339   1.527  17.021 -0.2619 -0.2667  0.2504
 3085TIP3   OH233449   3.328   4.479  17.066  0.3085  0.2142 -0.2732
 3085TIP3    H133450   3.345   4.423  17.143  3.1358  2.0547  0.6356
 3085TIP3    H233451   3.349   4.423  16.991 -1.8207 -1.4025  0.2271
 3086TIP3   OH233452   2.280   6.102  20.312  0.0602  0.0796 -0.1110
 3086TIP3    H133453   2.186   6.108  20.302  0.0970  0.1519 -0.4137
 3086TIP3    H233454   2.293   6.029  20.373 -0.1062 -1.2756 -1.6458
 3087TIP3   OH233455   4.747   4.165  18.228 -0.2385 -0.5343  0.3761
 3087TIP3    H133456   4.733   4.259  18.240  0.9992 -0.5215  2.1559
 3087TIP3    H233457   4.787   4.158  18.142 -1.0929  0.4690 -0.1327
 3088TIP3   OH233458   2.992   6.193  18.996 -0.7335 -0.1449  0.1751
 3088TIP3    H133459   2.982   6.099  18.978 -1.1440 -0.0435 -0.1612
 3088TIP3    H233460   2.909   6.218  19.035 -0.6081  0.0706  0.3012
 3089TIP3   OH233461   1.362   0.787  17.919 -0.1243  0.6395  0.0192
 3089TIP3    H133462   1.271   0.767  17.941 -0.1128 -0.3953 -0.8043
 3089TIP3    H233463   1.357   0.868  17.869 -0.4051  1.5550  1.4880
 3090TIP3   OH233464   1.426   1.814  19.101 -0.4813  0.0948 -0.3693
 3090TIP3    H133465   1.419   1.867  19.022  2.0467 -0.9967 -1.4204
 3090TIP3    H233466   1.348   1.758  19.100 -1.3534  1.2722 -1.1160
 3091TIP3   OH233467   1.740   6.033  19.620 -0.3594 -0.1715 -0.0123
 3091TIP3    H133468   1.646   6.033  19.638 -0.9164 -1.6418 -2.4778
 3091TIP3    H233469   1.752   6.103  19.555  0.6300  1.2945  1.6591
 3092TIP3   OH233470   1.662   4.873  19.570 -0.2508  0.3476  0.1686
 3092TIP3    H133471   1.742   4.926  19.567 -0.2110  0.3257  0.8356
 3092TIP3    H233472   1.691   4.788  19.602 -0.6224  0.4860  0.8764
 3093TIP3   OH233473   6.606   2.479  18.236  0.8051  0.5288 -0.1551
 3093TIP3    H133474   6.604   2.385  18.218  0.8013  0.2493  1.2101
 3093TIP3    H233475   6.524   2.512  18.197 -0.5409 -0.5026  1.6477
 3094TIP3   OH233476   4.192   3.788  18.260  0.1917 -0.2980 -0.2761
 3094TIP3    H133477   4.232   3.778  18.174  0.7011 -1.5568  0.0904
 3094TIP3    H233478   4.150   3.704  18.278  0.6319 -0.2784  0.9706
 3095TIP3   OH233479   5.988   1.660  19.886 -0.2558 -0.6480 -0.2250
 3095TIP3    H133480   5.908   1.706  19.910 -0.5902 -1.1346 -0.3928
 3095TIP3    H233481   6.042   1.664  19.965  0.0991  0.8074 -0.5199
 3096TIP3   OH233482   3.182   2.622  17.252 -0.2388 -0.0746 -0.3819
 3096TIP3    H133483   3.216   2.699  17.299  0.1973 -1.7991  2.3431
 3096TIP3    H233484   3.097   2.650  17.220  0.3928  1.9018 -0.4610
 3097TIP3   OH233485   5.747   0.232  17.374  0.2043  0.0352  0.4223
 3097TIP3    H133486   5.720   0.143  17.353 -1.4451  0.3956  0.8439
 3097TIP3    H233487   5.810   0.255  17.306  1.2469 -1.6988  0.7589
 3098TIP3   OH233488   6.285   4.271  19.986 -0.1861  0.0680 -0.3965
 3098TIP3    H133489   6.216   4.282  20.051  0.5292 -0.4618  0.4724
 3098TIP3    H233490   6.242   4.226  19.913 -1.2415  1.5618 -0.7477
 3099TIP3   OH233491   4.901   3.595  19.548 -0.1007 -0.0279  0.1274
 3099TIP3    H133492   4.894   3.554  19.461 -0.5470  1.2899 -0.4909
 3099TIP3    H233493   4.810   3.608  19.574  0.0214 -1.0835  1.1496
 3100TIP3   OH233494   6.540   0.763  18.361 -0.1641  0.8645  0.0485
 3100TIP3    H133495   6.596   0.832  18.328  0.5345  0.9528  1.3422
 3100TIP3    H233496   6.502   0.799  18.441 -1.0765  0.3406 -0.1310
 3101TIP3   OH233497   5.997   0.070  19.218 -0.8566  0.5018  0.1374
 3101TIP3    H133498   6.052   0.102  19.289  0.6386  1.7580 -1.4725
 3101TIP3    H233499   6.025  -0.020  19.205 -0.5590  0.5212  0.6232
 3102TIP3   OH233500   0.315   4.349  18.662 -0.2429 -0.2048  0.5094
 3102TIP3    H133501   0.350   4.431  18.696 -1.3277  1.3620 -1.8880
 3102TIP3    H233502   0.336   4.350  18.568 -3.6263 -0.7507 -0.3873
 3103TIP3   OH233503   2.314   1.302  19.273  0.1143 -0.6976 -0.4083
 3103TIP3    H133504   2.247   1.367  19.299 -0.6813 -1.5731 -0.1995
 3103TIP3    H233505   2.369   1.293  19.351  0.4796  0.0325 -0.5800
 3104TIP3   OH233506   3.593   0.326  17.400 -0.3921  0.4561  0.5724
 3104TIP3    H133507   3.674   0.376  17.401  1.1870 -1.9615  1.4121
 3104TIP3    H233508   3.590   0.287  17.313 -1.1856  1.2680  0.2139
 3105TIP3   OH233509   6.736   0.370  20.589  0.0220  0.1153  0.2323
 3105TIP3    H133510   6.760   0.462  20.598 -0.8791  0.4238 -0.3700
 3105TIP3    H233511   6.800   0.323  20.642  0.2041  1.1309  0.9402
 3106TIP3   OH233512   4.508   6.554  18.577 -0.1967  0.6682  0.0267
 3106TIP3    H133513   4.535   6.499  18.650 -2.7081 -1.6730 -0.6504
 3106TIP3    H233514   4.545   6.511  18.499 -0.7859  0.8932 -0.3868
 3107TIP3   OH233515   0.608   5.990  20.542  0.1601  0.1005 -0.3012
 3107TIP3    H133516   0.689   5.943  20.524 -0.5150 -1.3194  0.1475
 3107TIP3    H233517   0.611   6.007  20.636 -1.0328 -2.0224  0.1888
 3108TIP3   OH233518   1.103   0.188  17.507 -0.1275  0.7618 -0.2192
 3108TIP3    H133519   1.143   0.116  17.458 -1.3265  0.6688 -1.1270
 3108TIP3    H233520   1.009   0.178  17.490 -0.3637  2.1245  0.2096
 3109TIP3   OH233521   1.689   5.050  20.575  0.6263  0.7864  0.2627
 3109TIP3    H133522   1.688   5.007  20.490  0.5188  0.3824  0.4663
 3109TIP3    H233523   1.597   5.067  20.596  0.6534  0.9032  0.2886
 3110TIP3   OH233524   4.647   3.360  19.185 -0.1712 -0.6791  0.2494
 3110TIP3    H133525   4.625   3.424  19.118  0.3054 -1.7222 -0.9507
 3110TIP3    H233526   4.567   3.309  19.197 -0.1331 -0.7644  0.1463
 3111TIP3   OH233527   6.152   2.701  18.002  0.1709  0.1003  0.3223
 3111TIP3    H133528   6.165   2.794  17.982 -0.7712 -0.3630 -3.3028
 3111TIP3    H233529   6.066   2.697  18.044 -1.0712  0.7423 -1.9836
 3112TIP3   OH233530   1.515   5.993  20.028  0.0970 -0.3910 -0.2970
 3112TIP3    H133531   1.443   6.056  20.016 -0.6459 -1.1559  0.0617
 3112TIP3    H233532   1.475   5.908  20.011  1.2390 -0.7352 -1.3973
 3113TIP3   OH233533   1.409   2.537  19.292 -0.2735  0.0279 -0.1753
 3113TIP3    H133534   1.422   2.490  19.210  0.6215 -0.0495 -0.0008
 3113TIP3    H233535   1.328   2.500  19.328  0.3611 -1.3360 -0.0831
 3114TIP3   OH233536   0.321   3.301  18.122  0.5659  0.4823 -0.0576
 3114TIP3    H133537   0.387   3.265  18.062 -0.1209 -0.4783 -0.2450
 3114TIP3    H233538   0.372   3.327  18.199  1.1733 -0.2773 -0.1821
 3115TIP3   OH233539   2.844   4.220  18.365 -0.2970  0.1903 -0.1541
 3115TIP3    H133540   2.830   4.314  18.367  0.2440  0.2716  1.7932
 3115TIP3    H233541   2.759   4.183  18.390 -1.9150 -0.1557 -5.1141
 3116TIP3   OH233542   6.508   3.544  20.447  0.0739  0.0154 -0.2017
 3116TIP3    H133543   6.464   3.500  20.375 -0.4415  3.4205 -2.1640
 3116TIP3    H233544   6.453   3.524  20.524  0.2045 -3.0247 -0.7660
 3117TIP3   OH233545   5.731   1.802  19.205 -0.1306  1.0587 -0.1811
 3117TIP3    H133546   5.763   1.752  19.280  0.0047  1.6867  0.1934
 3117TIP3    H233547   5.641   1.771  19.191  0.8687 -1.4117 -1.8438
 3118TIP3   OH233548   1.687   3.303  19.852  0.2558 -0.2583  0.3615
 3118TIP3    H133549   1.673   3.398  19.861  0.2138 -0.1357 -0.8151
 3118TIP3    H233550   1.746   3.281  19.924  0.3235  0.6753  0.6095
 3119TIP3   OH233551   4.041   5.058  19.645 -0.1821 -0.2343  0.4479
 3119TIP3    H133552   4.092   5.103  19.712 -1.1362 -0.3823  1.2955
 3119TIP3    H233553   4.044   4.966  19.670 -0.9746 -0.2296  0.6048
 3120TIP3   OH233554   4.700   1.727  18.393  0.3949  0.1409  0.3376
 3120TIP3    H133555   4.791   1.731  18.423  0.0552  0.2825  1.3758
 3120TIP3    H233556   4.673   1.636  18.410  0.6232 -0.1819 -0.8746
 3121TIP3   OH233557   5.303   2.705  19.594 -0.2204 -0.4799 -0.4292
 3121TIP3    H133558   5.221   2.742  19.630  0.4674  0.2446  0.4473
 3121TIP3    H233559   5.292   2.610  19.603 -1.7077 -0.5193 -2.0079
 3122TIP3   OH233560   1.863   0.401  18.287 -0.5294 -0.2072 -0.2634
 3122TIP3    H133561   1.858   0.330  18.223 -0.8756 -0.1943 -0.2558
 3122TIP3    H233562   1.778   0.400  18.330 -1.4136  1.6303 -1.7814
 3123TIP3   OH233563   0.226   0.256  19.003 -0.2496 -0.0293  0.3848
 3123TIP3    H133564   0.242   0.309  18.925  2.6843 -2.3310 -0.7609
 3123TIP3    H233565   0.257   0.311  19.076 -0.3016  1.0173 -0.3612
 3124TIP3   OH233566   3.778   6.567  18.247 -0.0546  0.1765 -0.0494
 3124TIP3    H133567   3.746   6.650  18.282 -0.1197  1.1509 -2.2458
 3124TIP3    H233568   3.709   6.538  18.188  1.2459  0.1462 -1.6276
 3125TIP3   OH233569   0.932   0.975  20.450 -0.1830 -0.1824 -0.1529
 3125TIP3    H133570   0.883   0.917  20.392 -0.2549  0.7547 -1.0623
 3125TIP3    H233571   0.872   1.048  20.468 -0.4262 -0.7904  1.7058
 3126TIP3   OH233572   4.140   3.959  20.025 -0.2097 -0.2625  0.4327
 3126TIP3    H133573   4.224   3.995  19.998 -1.1235  1.4871 -0.2618
 3126TIP3    H233574   4.089   3.954  19.943 -0.8926 -0.9905  0.8851
 3127TIP3   OH233575   2.485   0.330  19.290  0.3007 -0.3078 -0.6884
 3127TIP3    H133576   2.566   0.325  19.341 -0.4072  1.5464  0.7361
 3127TIP3    H233577   2.514   0.338  19.199  1.6236 -2.5791 -0.5481
 3128TIP3   OH233578   6.424   6.133  20.366 -0.5834 -0.9108  0.2030
 3128TIP3    H133579   6.491   6.065  20.357  0.1016 -0.4604  1.5811
 3128TIP3    H233580   6.345   6.086  20.391 -0.0004 -1.2142  1.6122
 3129TIP3   OH233581   5.620   6.362  18.684  0.6192 -0.5428 -0.0925
 3129TIP3    H133582   5.601   6.294  18.748  0.7577 -0.8185 -0.3374
 3129TIP3    H233583   5.680   6.422  18.728 -0.2883 -0.0253  0.4600
 3130TIP3   OH233584   1.762   0.801  17.926  0.0328 -0.0865  0.3493
 3130TIP3    H133585   1.722   0.717  17.950  0.8738 -0.4327  0.5599
 3130TIP3    H233586   1.757   0.853  18.006 -2.6261  0.9667 -0.3731
 3131TIP3   OH233587   3.244   1.977  19.251  0.1774 -0.2740 -0.7967
 3131TIP3    H133588   3.189   2.031  19.308 -1.2619 -0.1625 -2.2013
 3131TIP3    H233589   3.262   1.898  19.302 -0.4684  0.1318  0.0786
 3132TIP3   OH233590   6.107   1.607  20.172 -0.0358 -0.2584 -0.1260
 3132TIP3    H133591   6.149   1.598  20.257 -1.2436 -1.4176  0.3843
 3132TIP3    H233592   6.058   1.689  20.178 -2.1092 -1.4873  1.2697
 3133TIP3   OH233593   5.992   3.517  18.648 -0.2573  0.5384 -0.2596
 3133TIP3    H133594   6.021   3.608  18.655 -1.2814  0.8328  0.3791
 3133TIP3    H233595   5.896   3.523  18.647 -0.3519 -0.3743 -2.5680
 3134TIP3   OH233596   2.115   3.354  18.482  0.1745 -0.3342 -0.3340
 3134TIP3    H133597   2.062   3.304  18.421 -0.7163  0.1295  0.0335
 3134TIP3    H233598   2.060   3.361  18.561  0.6396  0.4466 -0.0699
 3135TIP3   OH233599   0.285   1.810  20.674 -0.7636  0.3301 -0.4553
 3135TIP3    H133600   0.365   1.823  20.624  0.1406  0.4864  0.9724
 3135TIP3    H233601   0.315   1.791  20.763 -2.2979  2.3279  0.5890
 3136TIP3   OH233602   0.142   0.534  20.141 -0.1195 -0.4616 -0.3983
 3136TIP3    H133603   0.195   0.458  20.117  2.3912  1.2314 -0.5351
 3136TIP3    H233604   0.146   0.592  20.065 -3.0268 -0.6035 -0.7937
 3137TIP3   OH233605   2.574   3.636  20.385 -0.0254 -0.1654 -0.3922
 3137TIP3    H133606   2.496   3.598  20.344  1.1756 -1.9472 -1.1463
 3137TIP3    H233607   2.587   3.585  20.465  0.5132 -0.0554 -0.4011
 3138TIP3   OH233608   1.604   0.379  20.530 -0.0554 -0.4120 -0.4170
 3138TIP3    H133609   1.528   0.340  20.486  1.4646 -2.5119 -1.3731
 3138TIP3    H233610   1.676   0.367  20.468  1.3603  0.1339  1.0698
 3139TIP3   OH233611   3.483   6.059  20.329 -0.1873 -0.2056  0.4747
 3139TIP3    H133612   3.492   5.982  20.273  0.2154 -0.3294  0.6989
 3139TIP3    H233613   3.478   6.023  20.418 -0.7527 -0.0094  0.5223
 3140TIP3   OH233614   2.046   2.168  20.639  0.8373 -0.6194 -0.5427
 3140TIP3    H133615   2.078   2.258  20.632  1.1749 -0.7197 -0.3213
 3140TIP3    H233616   1.955   2.172  20.611  0.2829  0.1360  1.2826
 3141TIP3   OH233617   4.313   4.447  19.266  0.1337  0.2805  0.2317
 3141TIP3    H133618   4.402   4.459  19.297 -0.7600 -0.2194  3.2567
 3141TIP3    H233619   4.296   4.525  19.212  1.9694  1.0018  0.6236
 3142TIP3   OH233620   0.378   5.235  20.811 -0.4174  0.6259  0.0097
 3142TIP3    H133621   0.415   5.319  20.785  0.0243  0.3182 -0.3797
 3142TIP3    H233622   0.342   5.250  20.898  2.2323  0.4773  1.2231
 3143TIP3   OH233623   4.326   1.120  19.183 -0.1064  0.2000 -0.7380
 3143TIP3    H133624   4.348   1.203  19.140 -1.3293  0.5376 -0.7409
 3143TIP3    H233625   4.315   1.058  19.111  1.1535 -0.0822 -0.7222
 3144TIP3   OH233626   2.667   4.150  19.019 -0.2384  0.0681  0.1129
 3144TIP3    H133627   2.694   4.097  18.945 -0.2110  0.7218 -0.3548
 3144TIP3    H233628   2.703   4.237  19.001 -0.4114  0.2873  0.7817
 3145TIP3   OH233629   5.219   5.294  20.812  0.2341  0.0400 -0.2774
 3145TIP3    H133630   5.148   5.330  20.760 -0.6288  1.3173  1.6909
 3145TIP3    H233631   5.177   5.226  20.866  0.6389  0.3134  0.3918
 3146TIP3   OH233632   0.996   5.773  19.015  0.3723 -0.2264 -0.2647
 3146TIP3    H133633   0.976   5.774  18.922  1.8676 -1.4247 -0.6552
 3146TIP3    H233634   0.996   5.680  19.038 -1.2653  0.1060  1.2606
 3147TIP3   OH233635   0.436   4.964  19.424 -0.3956 -0.4347  0.2059
 3147TIP3    H133636   0.464   5.049  19.390  1.4648 -0.9694  0.3256
 3147TIP3    H233637   0.398   4.919  19.349 -1.5616  0.5425  0.1796
 3148TIP3   OH233638   4.510   1.767  19.215 -0.3870  0.4697 -0.4598
 3148TIP3    H133639   4.455   1.833  19.257  1.3038  1.8522 -0.2675
 3148TIP3    H233640   4.536   1.808  19.132 -0.0005 -0.3121 -0.7341
 3149TIP3   OH233641   5.869   6.106  19.935  0.4069 -0.1811 -0.4451
 3149TIP3    H133642   5.874   6.044  19.862 -0.3372  0.6105 -1.1863
 3149TIP3    H233643   5.811   6.175  19.904  0.2176  0.2588  0.8435
 3150TIP3   OH233644   4.242   3.493  19.190  0.4968  0.2477  0.3794
 3150TIP3    H133645   4.243   3.485  19.285  0.4695 -1.6408  0.2543
 3150TIP3    H233646   4.259   3.405  19.158  2.1234  1.1238 -1.3811
 3151TIP3   OH233647   1.359   4.388  20.720 -0.5775 -0.1141  0.2126
 3151TIP3    H133648   1.358   4.426  20.632  0.4740  1.4324  0.8441
 3151TIP3    H233649   1.283   4.329  20.720  0.0085 -0.9905 -2.0647
 3152TIP3   OH233650   1.772   5.471  18.996  0.0211  0.2411 -0.0176
 3152TIP3    H133651   1.765   5.410  18.923 -1.1425 -1.5989  1.5038
 3152TIP3    H233652   1.859   5.454  19.033 -0.0825 -0.1479  0.0635
 3153TIP3   OH233653   0.195   2.148  16.922 -0.7176  0.3841 -0.2467
 3153TIP3    H133654   0.288   2.138  16.945 -0.6745 -0.5435 -0.7894
 3153TIP3    H233655   0.183   2.243  16.913  0.9571  0.4640 -3.1882
 3154TIP3   OH233656   4.315   0.918  17.919  0.2928  0.2257 -0.8051
 3154TIP3    H133657   4.292   0.893  17.829 -0.8106  1.1340 -0.7998
 3154TIP3    H233658   4.281   1.007  17.929 -1.5134 -0.6068  1.1803
 3155TIP3   OH233659   4.068   0.613  18.679  0.1808 -0.7222  0.1705
 3155TIP3    H133660   3.993   0.673  18.681  0.0531 -0.8937  0.5276
 3155TIP3    H233661   4.112   0.626  18.763  0.8224 -0.2871 -0.2242
 3156TIP3   OH233662   2.903   0.169  18.175  0.0983  0.1273  0.2290
 3156TIP3    H133663   2.990   0.180  18.215 -0.2530  0.7979  0.8404
 3156TIP3    H233664   2.858   0.109  18.233  0.0950 -0.0861  0.0051
 3157TIP3   OH233665   2.787   6.683  18.371  0.6355 -0.5059  0.7124
 3157TIP3    H133666   2.729   6.740  18.422  2.2511 -0.7622  2.9823
 3157TIP3    H233667   2.875   6.709  18.398  1.6009 -0.9690 -1.7003
 3158TIP3   OH233668   4.761   1.308  20.709 -0.1321  0.0288  0.7314
 3158TIP3    H133669   4.845   1.329  20.750 -0.2066 -0.4763  1.1569
 3158TIP3    H233670   4.708   1.387  20.722 -0.1071 -0.0725  1.5017
 3159TIP3   OH233671   0.826   0.961  16.485  0.1777  1.2464 -0.0851
 3159TIP3    H133672   0.791   1.035  16.534 -1.8444 -0.2981  0.9257
 3159TIP3    H233673   0.750   0.908  16.463  1.5240 -0.3929 -1.0700
 3160TIP3   OH233674   2.210   1.864  19.552 -0.1303 -0.4807 -0.3698
 3160TIP3    H133675   2.270   1.805  19.505 -1.2277 -1.1196 -1.0258
 3160TIP3    H233676   2.126   1.817  19.551 -0.8004  0.6892 -0.0713
 3161TIP3   OH233677   3.485   5.690  19.032  0.5819 -0.3289 -0.0295
 3161TIP3    H133678   3.450   5.703  19.120  1.8236 -1.2622  0.6402
 3161TIP3    H233679   3.537   5.769  19.016  1.8583 -0.9476  0.8685
 3162TIP3   OH233680   5.706   2.914  18.515 -0.3429  0.3067 -0.2348
 3162TIP3    H133681   5.696   2.990  18.572 -2.4075 -0.2606  0.2569
 3162TIP3    H233682   5.719   2.841  18.576  0.1832  0.0494 -0.6419
 3163TIP3   OH233683   1.314   4.637  20.200 -0.1967  0.3786  0.0012
 3163TIP3    H133684   1.366   4.561  20.175  0.7086  1.2000 -0.7293
 3163TIP3    H233685   1.235   4.630  20.146 -1.2027 -1.2153  1.5768
 3164TIP3   OH233686   1.323   0.868  18.941 -0.2578  0.1589 -0.4763
 3164TIP3    H133687   1.333   0.783  18.898  3.0595  0.8805 -1.4295
 3164TIP3    H233688   1.341   0.851  19.033  0.0064 -0.2226 -0.5976
 3165TIP3   OH233689   1.216   5.661  18.853  0.1337  0.1524 -0.1162
 3165TIP3    H133690   1.159   5.641  18.927  0.1427  0.3029 -0.0678
 3165TIP3    H233691   1.272   5.732  18.884  2.6045 -2.1076  0.9824
 3166TIP3   OH233692   4.806   5.536  18.916  0.5007  0.1977 -0.1572
 3166TIP3    H133693   4.892   5.517  18.954  0.4854 -0.8504 -0.6373
 3166TIP3    H233694   4.819   5.526  18.822 -0.0613  0.4221 -0.2610
 3167TIP3   OH233695   1.127   6.650  19.698 -0.2551 -0.3937 -0.2133
 3167TIP3    H133696   1.128   6.561  19.664 -0.8283 -0.6404  0.3883
 3167TIP3    H233697   1.149   6.705  19.623  2.4591 -1.1666 -0.1027
 3168TIP3   OH233698   3.413   1.973  20.773 -0.8912 -0.1457 -0.7033
 3168TIP3    H133699   3.464   1.915  20.717 -0.5932 -0.1302 -0.4547
 3168TIP3    H233700   3.408   1.927  20.857 -0.0404  0.5017 -0.2881
 3169TIP3   OH233701   5.840   5.010  18.474 -0.0093 -0.2592 -0.6705
 3169TIP3    H133702   5.902   5.032  18.405 -1.6153 -0.8009 -2.3418
 3169TIP3    H233703   5.758   4.994  18.429 -1.4262  0.5260  1.4916
 3170TIP3   OH233704   0.076   1.971  18.400 -0.2617  0.2240  0.0135
 3170TIP3    H133705   0.033   1.907  18.457 -3.1350  1.6165 -0.3808
 3170TIP3    H233706   0.052   1.944  18.311  0.4957  0.5404 -0.2983
 3171TIP3   OH233707   6.579   6.183  19.000 -0.4438  0.1221 -0.4624
 3171TIP3    H133708   6.585   6.265  19.049  0.5676 -0.3754  0.2735
 3171TIP3    H233709   6.669   6.151  18.996 -0.9491 -1.4595  0.1521
 3172TIP3   OH233710   0.762   6.701  19.752 -0.5359  0.4725  0.1211
 3172TIP3    H133711   0.703   6.715  19.827  0.5683  0.5812  0.9919
 3172TIP3    H233712   0.793   6.789  19.730 -0.4215  0.3744 -0.1053
 3173TIP3   OH233713   3.502   3.234  17.772  0.1805  0.5503 -0.1908
 3173TIP3    H133714   3.422   3.204  17.729 -0.4441 -0.1998  1.4275
 3173TIP3    H233715   3.512   3.324  17.742 -1.0456  0.5295 -0.7432
 3174TIP3   OH233716   6.401   4.409  20.443 -0.1406 -0.0683  0.0433
 3174TIP3    H133717   6.468   4.343  20.424 -0.2157 -0.1422  0.0349
 3174TIP3    H233718   6.366   4.432  20.357  0.6166  0.7558 -0.0525
 3175TIP3   OH233719   1.288   6.443  19.051 -0.0816 -0.2030  0.3220
 3175TIP3    H133720   1.348   6.417  19.121  1.6632 -0.4968 -1.2103
 3175TIP3    H233721   1.316   6.531  19.026 -1.4356  0.3665  0.7492
 3176TIP3   OH233722   6.150   2.365  17.772  0.1289  0.0724  0.2751
 3176TIP3    H133723   6.189   2.343  17.688  1.5099  1.4235  0.5246
 3176TIP3    H233724   6.057   2.343  17.762  0.3837 -0.3511 -1.3809
 3177TIP3   OH233725   4.458   5.883  20.102  0.4209  0.6761 -0.0552
 3177TIP3    H133726   4.508   5.853  20.178  0.4613 -0.1081 -0.3838
 3177TIP3    H233727   4.410   5.806  20.073  0.6292  0.8873 -1.0009
 3178TIP3   OH233728   1.867   2.014  17.707 -0.3274  0.5013 -0.3134
 3178TIP3    H133729   1.955   2.048  17.727 -0.2798  0.5824 -0.6486
 3178TIP3    H233730   1.809   2.060  17.768  0.1975 -1.6940  1.9949
 3179TIP3   OH233731   1.250   1.567  17.684  0.7864 -0.1925 -0.4658
 3179TIP3    H133732   1.248   1.494  17.746  0.6852 -1.2211 -1.6456
 3179TIP3    H233733   1.286   1.529  17.603  0.3264  0.9556 -1.2388
 3180TIP3   OH233734   6.574   2.145  17.025 -0.2011 -0.0647  0.5957
 3180TIP3    H133735   6.513   2.206  16.984  2.3824  1.6803 -0.9343
 3180TIP3    H233736   6.549   2.145  17.118 -2.6291  0.3229  0.0226
 3181TIP3   OH233737   5.288   4.345  18.575 -0.2799  0.1524  0.2549
 3181TIP3    H133738   5.326   4.424  18.536  0.3593 -1.0593 -1.7683
 3181TIP3    H233739   5.274   4.287  18.500 -2.6279 -0.9102  1.4189
 3182TIP3   OH233740   4.695   0.063  19.493 -0.2326  0.1697 -0.3512
 3182TIP3    H133741   4.688   0.111  19.411  1.0925  0.8651 -0.0819
 3182TIP3    H233742   4.730   0.127  19.555  1.7045 -1.1480 -0.0162
 3183TIP3   OH233743   1.840   5.419  18.470 -0.3309  0.3273 -0.1139
 3183TIP3    H133744   1.869   5.448  18.383  0.3783 -0.6431 -0.2210
 3183TIP3    H233745   1.811   5.499  18.514  2.3842  1.3721 -0.0546
 3184TIP3   OH233746   4.308   0.818  17.661 -0.2857 -0.4731  0.0011
 3184TIP3    H133747   4.384   0.761  17.674 -0.7240 -0.9459  0.5768
 3184TIP3    H233748   4.287   0.809  17.568  1.1018  0.6353 -0.4517
 3185TIP3   OH233749   5.802   0.626  18.327  0.3182  0.2814 -1.1184
 3185TIP3    H133750   5.747   0.691  18.371 -0.7080 -2.2181  1.5948
 3185TIP3    H233751   5.783   0.638  18.234 -1.1274  2.6539 -0.6099
 3186TIP3   OH233752   6.078   1.352  20.112  0.1372  0.0474 -0.1291
 3186TIP3    H133753   6.133   1.306  20.176 -0.5105 -0.2307  0.2466
 3186TIP3    H233754   6.081   1.444  20.139 -0.6569 -0.1551  0.7244
 3187TIP3   OH233755   3.987   3.372  19.337 -0.5137  0.0685  0.4694
 3187TIP3    H133756   3.946   3.340  19.417  1.5197  0.1635  1.6339
 3187TIP3    H233757   3.972   3.302  19.273  0.4464 -1.4902  1.8477
 3188TIP3   OH233758   1.196   1.423  16.745 -0.9136 -0.0421  0.3052
 3188TIP3    H133759   1.229   1.361  16.680  0.3095  1.1466 -0.2544
 3188TIP3    H233760   1.101   1.411  16.744 -0.8850 -0.3147 -1.4378
 3189TIP3   OH233761   1.365   3.790  18.281 -0.2395  0.2844 -0.7749
 3189TIP3    H133762   1.394   3.766  18.193  0.2513 -1.3442 -0.2009
 3189TIP3    H233763   1.371   3.886  18.283  0.9954  0.2649 -2.0899
 3190TIP3   OH233764   5.264   1.663  19.374  0.0589  0.2145 -0.0090
 3190TIP3    H133765   5.234   1.581  19.333  0.9202  0.4856 -1.2251
 3190TIP3    H233766   5.186   1.719  19.373 -0.1418 -0.0630 -0.5490
 3191TIP3   OH233767   2.609   3.689  18.819  0.1639  0.5626  0.3959
 3191TIP3    H133768   2.564   3.772  18.804  1.1704  0.8499 -1.5224
 3191TIP3    H233769   2.557   3.624  18.771  1.1774  0.7363 -1.0264
 3192TIP3   OH233770   4.062   0.064  19.858  0.4182  0.1395  0.5427
 3192TIP3    H133771   4.042   0.157  19.846  0.9369  0.1412 -0.3759
 3192TIP3    H233772   3.995   0.018  19.808 -0.0301 -0.0077  1.2521
 3193TIP3   OH233773   6.552   5.619  18.599 -0.2211  0.1688 -0.3368
 3193TIP3    H133774   6.456   5.615  18.597 -0.2446  0.7094 -2.4299
 3193TIP3    H233775   6.573   5.648  18.688 -1.9036 -1.4515  0.6636
 3194TIP3   OH233776   0.271   2.408  19.703  0.2847  0.3503  0.1287
 3194TIP3    H133777   0.256   2.503  19.700  0.9227  0.4391 -2.2596
 3194TIP3    H233778   0.197   2.371  19.656 -1.7028 -0.7324  3.6745
 3195TIP3   OH233779   3.745   2.824  19.410  0.1288  0.5005  0.0716
 3195TIP3    H133780   3.669   2.822  19.468  0.5358  0.7883  0.6257
 3195TIP3    H233781   3.720   2.770  19.335 -0.3268 -0.0581  0.6207
 3196TIP3   OH233782   1.255   1.052  19.573  0.0609 -0.0331 -0.1221
 3196TIP3    H133783   1.309   1.090  19.642 -1.2320  1.0943  0.3083
 3196TIP3    H233784   1.171   1.033  19.616 -0.9994  1.2997 -1.4959
 3197TIP3   OH233785   6.111   4.416  17.734  0.1649  0.8098 -0.1841
 3197TIP3    H133786   6.082   4.490  17.787 -0.4911  0.2356  0.2686
 3197TIP3    H233787   6.098   4.445  17.644 -1.5718  0.6987 -0.0062
 3198TIP3   OH233788   3.542   5.680  18.592  0.0658 -0.1230  0.3073
 3198TIP3    H133789   3.584   5.617  18.533 -1.7972  0.2471 -1.5594
 3198TIP3    H233790   3.490   5.627  18.652  0.1041 -0.4547  0.0499
 3199TIP3   OH233791   1.778   2.012  19.420  0.6770 -0.1667 -0.6066
 3199TIP3    H133792   1.775   1.918  19.403 -0.4253 -0.2424 -0.1269
 3199TIP3    H233793   1.694   2.044  19.389  0.8235  0.5653 -0.2621
 3200TIP3   OH233794   0.247   0.999  19.960 -0.8150 -0.0812  0.4563
 3200TIP3    H133795   0.331   1.027  19.995 -1.1455  1.3726  0.1308
 3200TIP3    H233796   0.196   1.080  19.950 -1.8815 -0.8163 -0.3301
 3201TIP3   OH233797   5.432   1.424  19.223  0.5615 -0.3166 -0.1360
 3201TIP3    H133798   5.344   1.428  19.187  0.1859  1.2015  0.8353
 3201TIP3    H233799   5.430   1.352  19.286  0.2144 -0.6829 -0.5593
 3202TIP3   OH233800   5.900   0.539  19.346 -0.3209  0.6675  0.5178
 3202TIP3    H133801   5.962   0.605  19.314  0.7658 -0.1485  0.8603
 3202TIP3    H233802   5.893   0.475  19.275 -1.1295  0.9703  0.3100
 3203TIP3   OH233803   6.470   0.402  19.379  0.0005 -0.0284 -0.0643
 3203TIP3    H133804   6.539   0.397  19.312  0.2603  0.9404  0.1103
 3203TIP3    H233805   6.504   0.464  19.443 -0.4492 -0.6056  0.7419
 3204TIP3   OH233806   1.213   6.506  17.733 -0.1379 -0.0547  0.3209
 3204TIP3    H133807   1.194   6.600  17.743 -0.3150 -0.0862  0.2775
 3204TIP3    H233808   1.138   6.471  17.686 -0.2358 -0.2861  0.6433
 3205TIP3   OH233809   3.721   0.025  20.282 -0.8192  0.0068 -0.3487
 3205TIP3    H133810   3.794   0.038  20.223  0.8476  1.1132  1.8093
 3205TIP3    H233811   3.741  -0.056  20.329  0.5794  1.6637  2.1661
 3206TIP3   OH233812   6.243   4.036  20.773 -0.2942 -0.1442 -0.2547
 3206TIP3    H133813   6.192   4.006  20.698  0.0920 -1.0885 -0.1439
 3206TIP3    H233814   6.178   4.050  20.842 -0.6045  0.3488 -0.6380
 3207TIP3   OH233815   1.436   3.690  19.895  0.3668  0.4726 -0.2889
 3207TIP3    H133816   1.381   3.615  19.873  2.9107 -1.4182 -0.6646
 3207TIP3    H233817   1.526   3.658  19.884  1.8020  1.8642  4.7238
 3208TIP3   OH233818   5.192   4.219  20.236  0.5557  0.0483 -0.3318
 3208TIP3    H133819   5.206   4.141  20.291 -1.2376 -1.0289 -1.2851
 3208TIP3    H233820   5.150   4.184  20.158  0.1593  1.9552 -1.0000
 3209TIP3   OH233821   3.896   1.242  18.770 -0.0745  0.1437  0.1200
 3209TIP3    H133822   3.973   1.261  18.717  0.3604 -1.3391  0.1820
 3209TIP3    H233823   3.884   1.320  18.824  0.9113  0.7002 -0.4308
 3210TIP3   OH233824   2.996   5.063  19.051 -0.0797 -0.3394 -0.2880
 3210TIP3    H133825   2.905   5.068  19.020  0.3074  0.7609 -1.3397
 3210TIP3    H233826   3.003   4.977  19.093 -0.8470 -1.6826 -2.7111
 3211TIP3   OH233827   1.014   6.461  18.630  0.0579  0.0825  0.1194
 3211TIP3    H133828   1.067   6.387  18.602  0.6896  0.7150 -0.4220
 3211TIP3    H233829   0.939   6.461  18.570  0.3143  0.1725 -0.2044
 3212TIP3   OH233830   3.388   0.379  17.809  0.6413 -0.4693  0.2336
 3212TIP3    H133831   3.440   0.336  17.741  0.9992  0.3537 -0.0211
 3212TIP3    H233832   3.420   0.343  17.891  0.1086 -1.5822 -0.0279
 3213TIP3   OH233833   4.835   2.588  20.685 -0.5952  0.0343 -0.3570
 3213TIP3    H133834   4.916   2.612  20.730 -0.6367 -0.3983 -0.0376
 3213TIP3    H233835   4.863   2.538  20.609 -0.5791 -1.2583  0.4549
 3214TIP3   OH233836   0.134   1.256  17.262  0.4865 -0.2332  0.1402
 3214TIP3    H133837   0.098   1.344  17.275 -0.9532 -0.8726  0.7266
 3214TIP3    H233838   0.126   1.240  17.168  0.6396  0.2133  0.0496
 3215TIP3   OH233839   1.901   2.009  19.651 -0.1687 -0.1851  0.3013
 3215TIP3    H133840   1.884   1.921  19.685  1.3382 -0.6582 -0.0367
 3215TIP3    H233841   1.829   2.026  19.591 -0.2537 -1.4137  0.0184
 3216TIP3   OH233842   3.004   0.419  18.351  0.5012  0.5524  0.1966
 3216TIP3    H133843   3.062   0.377  18.287 -0.0070 -0.1742  0.1900
 3216TIP3    H233844   3.050   0.498  18.377  0.6612  0.9466 -1.1839
 3217TIP3   OH233845   2.755   3.662  19.494  0.1870  0.5884 -0.1361
 3217TIP3    H133846   2.742   3.599  19.423  0.1282  1.1420 -0.6258
 3217TIP3    H233847   2.671   3.663  19.540  0.5118 -0.4455  0.5096
 3218TIP3   OH233848   0.390   2.167  18.107  0.2286 -0.4191 -0.0298
 3218TIP3    H133849   0.483   2.188  18.117  0.9395 -3.2583  0.0546
 3218TIP3    H233850   0.383   2.125  18.021 -1.0408 -0.0437 -0.1412
 3219TIP3   OH233851   2.859   3.315  18.229  0.2402  0.0977 -0.1911
 3219TIP3    H133852   2.854   3.251  18.300 -0.3412 -0.6775 -0.9088
 3219TIP3    H233853   2.792   3.380  18.249  0.1616 -0.0503  0.0229
 3220TIP3   OH233854   4.843   0.826  20.559  0.1228 -0.8112 -0.3711
 3220TIP3    H133855   4.924   0.775  20.555 -0.6433 -2.3361  1.5405
 3220TIP3    H233856   4.812   0.813  20.649 -0.8481  1.9879 -0.2029
 3221TIP3   OH233857   6.378   0.483  18.166 -0.0169 -0.2858  0.5188
 3221TIP3    H133858   6.320   0.532  18.107 -1.3382  2.3463  3.6655
 3221TIP3    H233859   6.320   0.418  18.207  0.3602 -0.6331  0.5068
 3222TIP3   OH233860   1.022   1.593  20.648  0.2375 -0.3524 -0.2488
 3222TIP3    H133861   1.090   1.620  20.587 -0.2647 -2.2087 -1.7068
 3222TIP3    H233862   1.054   1.511  20.685 -0.6724 -0.6136 -0.0290
 3223TIP3   OH233863   5.746   1.736  19.485 -0.5240 -0.3515  0.0853
 3223TIP3    H133864   5.743   1.824  19.523  3.1410 -0.3179  0.6547
 3223TIP3    H233865   5.779   1.680  19.555  0.1473 -1.5589 -1.1381
 3224TIP3   OH233866   1.721   2.132  20.385 -0.2960  0.3964 -0.4266
 3224TIP3    H133867   1.813   2.141  20.362 -0.6834  0.5071 -2.0474
 3224TIP3    H233868   1.711   2.183  20.466  1.5059 -1.4800  1.0717
 3225TIP3   OH233869   3.113   6.207  20.741  0.1962 -0.2946 -0.0460
 3225TIP3    H133870   3.198   6.243  20.766 -0.2643  0.4858  0.4110
 3225TIP3    H233871   3.134   6.140  20.676  1.1151  0.3380 -0.4214
 3226TIP3   OH233872   1.186   3.113  17.485 -0.1096  0.5056  0.2364
 3226TIP3    H133873   1.161   3.025  17.515  0.3185  0.0545 -0.6769
 3226TIP3    H233874   1.103   3.158  17.471 -0.3227  0.5272  1.4916
 3227TIP3   OH233875   2.058   6.724  20.383 -0.1728  0.2205  0.7452
 3227TIP3    H133876   1.986   6.754  20.438 -0.1518  0.1731  0.7996
 3227TIP3    H233877   2.096   6.650  20.431  0.7418  1.0532  1.3603
 3228TIP3   OH233878   3.256   5.435  18.932  0.6460  0.1039  0.0039
 3228TIP3    H133879   3.255   5.525  18.900  1.3843  0.2670  0.4277
 3228TIP3    H233880   3.311   5.387  18.870  3.6964  0.8094  1.9367
 3229TIP3   OH233881   6.257   4.585  18.294 -0.5372  0.2069 -0.6161
 3229TIP3    H133882   6.164   4.561  18.296 -0.2806 -0.8912  1.3526
 3229TIP3    H233883   6.260   4.674  18.328 -0.9091  0.4202 -1.1391
 3230TIP3   OH233884   6.743   3.368  18.552  0.6940 -0.2414 -0.6736
 3230TIP3    H133885   6.729   3.308  18.625  1.0597 -1.8086 -1.8170
 3230TIP3    H233886   6.827   3.410  18.571  1.7554 -2.0686 -1.0726
 3231TIP3   OH233887   6.435   0.843  20.019 -0.1355 -0.2435 -0.2619
 3231TIP3    H133888   6.418   0.764  20.071 -0.7868 -0.1306 -0.2839
 3231TIP3    H233889   6.506   0.818  19.960 -0.8087 -1.0585 -0.7594
 3232TIP3   OH233890   5.872   6.638  19.584  0.3559  0.2387 -0.5063
 3232TIP3    H133891   5.835   6.716  19.545  0.2810  0.0355 -0.8513
 3232TIP3    H233892   5.798   6.593  19.624  0.3373  0.1704 -0.6145
 3233TIP3   OH233893   2.813   5.619  18.072  0.1053 -0.5475 -0.6338
 3233TIP3    H133894   2.762   5.575  18.004 -1.9511 -0.4011  0.7239
 3233TIP3    H233895   2.777   5.708  18.075  2.7613  0.6939 -1.8858
 3234TIP3   OH233896   4.211   1.869  20.001 -0.1957  0.1327 -0.2714
 3234TIP3    H133897   4.162   1.948  20.024 -0.3445  0.1706 -0.6969
 3234TIP3    H233898   4.297   1.901  19.974  1.6837 -0.1774  4.4602
 3235TIP3   OH233899   2.657   2.091  18.923 -0.3792  0.6798  0.0890
 3235TIP3    H133900   2.623   2.119  19.008  0.7125  1.6139  0.2430
 3235TIP3    H233901   2.596   2.023  18.894 -0.3936 -0.1268  1.9177
 3236TIP3   OH233902   4.915   2.408  19.818 -0.2201 -0.6650  0.2598
 3236TIP3    H133903   4.996   2.391  19.866  0.4066 -0.3350 -0.6578
 3236TIP3    H233904   4.905   2.333  19.760  0.1528 -0.0907 -0.5719
 3237TIP3   OH233905   5.369   0.181  18.334 -0.3340 -0.0335 -0.2845
 3237TIP3    H133906   5.388   0.095  18.297 -0.2595 -0.5497  0.9150
 3237TIP3    H233907   5.421   0.242  18.280  0.8921 -0.9122 -0.1258
 3238TIP3   OH233908   0.846   4.185  20.738  0.6819 -0.3003 -0.0574
 3238TIP3    H133909   0.871   4.244  20.810  0.2894  1.7216 -1.4881
 3238TIP3    H233910   0.870   4.233  20.659 -0.9007 -1.5058 -1.3261
 3239TIP3   OH233911   3.641   1.174  18.868  0.2741 -0.4708 -0.1915
 3239TIP3    H133912   3.673   1.145  18.953  0.7750 -0.1524 -0.2666
 3239TIP3    H233913   3.718   1.209  18.823 -0.3807  1.6549  0.1828
 3240TIP3   OH233914   2.860   5.981  20.208 -0.3812  0.4679 -0.4386
 3240TIP3    H133915   2.946   5.941  20.201 -0.0889  0.9913  0.0520
 3240TIP3    H233916   2.806   5.933  20.145  0.2448  0.0875 -0.6981
 3241TIP3   OH233917   3.100   6.420  19.535  0.5572  0.1653 -0.2099
 3241TIP3    H133918   3.039   6.352  19.562  1.6946 -1.2716 -1.1109
 3241TIP3    H233919   3.181   6.373  19.515  2.1274  2.0496  1.3588
 3242TIP3   OH233920   5.396   0.617  17.552  0.6911 -0.2454 -0.3663
 3242TIP3    H133921   5.477   0.664  17.570  0.4649  0.6491 -1.5605
 3242TIP3    H233922   5.419   0.554  17.483  0.4343 -0.1697 -0.5250
 3243TIP3   OH233923   5.496   6.385  17.687 -0.0744 -0.0946 -0.2238
 3243TIP3    H133924   5.547   6.442  17.630 -0.2606 -1.0432 -1.3977
 3243TIP3    H233925   5.508   6.297  17.650  1.0268 -1.0312  2.0955
 3244TIP3   OH233926   2.706   4.094  20.550  0.4651 -0.1381 -0.0774
 3244TIP3    H133927   2.659   4.014  20.572 -0.3982  0.5490  0.6773
 3244TIP3    H233928   2.657   4.130  20.476  1.0945 -0.5082 -0.6784
 3245TIP3   OH233929   4.570   1.581  19.390  0.6637 -0.4589  0.5609
 3245TIP3    H133930   4.492   1.581  19.446  0.6759 -1.1827  0.5781
 3245TIP3    H233931   4.546   1.636  19.315  0.0004 -1.0082  0.3707
 3246TIP3   OH233932   5.751   0.938  20.501  0.3711  0.6339  0.5173
 3246TIP3    H133933   5.661   0.970  20.495 -0.1310 -0.9676 -2.3579
 3246TIP3    H233934   5.742   0.845  20.524  1.1788  0.1487 -1.0050
 3247TIP3   OH233935   0.752   4.497  19.476 -0.2826 -0.0418 -0.6479
 3247TIP3    H133936   0.811   4.570  19.492 -0.8564  0.6775 -1.7098
 3247TIP3    H233937   0.688   4.530  19.413 -1.1171 -1.1686 -0.4380
 3248TIP3   OH233938   2.405   4.849  18.270  0.8453  0.2165 -0.2818
 3248TIP3    H133939   2.326   4.811  18.230  1.7368 -3.7708  1.2954
 3248TIP3    H233940   2.456   4.882  18.196 -1.3610  1.0880 -1.4977
 3249TIP3   OH233941   4.464   0.730  20.409 -0.1175 -0.3025 -0.1925
 3249TIP3    H133942   4.396   0.670  20.381 -1.4065  0.5125  1.0173
 3249TIP3    H233943   4.419   0.814  20.419  0.9843  0.1919  0.9195
 3250TIP3   OH233944   5.207   4.236  20.723 -0.3898  0.1659  0.0605
 3250TIP3    H133945   5.115   4.253  20.702 -0.5622 -1.9750 -1.1992
 3250TIP3    H233946   5.209   4.144  20.748  1.3457  0.3276  0.6319
 3251TIP3   OH233947   5.190   5.801  19.942 -0.5672  0.9072  0.2827
 3251TIP3    H133948   5.151   5.881  19.908 -1.1726  1.4039  2.0852
 3251TIP3    H233949   5.136   5.731  19.906 -0.5260  1.3374 -0.6399
 3252TIP3   OH233950   5.060   5.046  20.939 -0.1589 -0.1646 -0.0302
 3252TIP3    H133951   5.018   5.038  20.854 -0.1215  0.9784 -0.1618
 3252TIP3    H233952   5.152   5.024  20.922  0.2260  1.7528 -0.6654
 3253TIP3   OH233953   6.085   6.738  18.069  0.2226 -0.1650 -0.1170
 3253TIP3    H133954   6.171   6.759  18.032  0.4011 -0.8724 -0.1219
 3253TIP3    H233955   6.022   6.766  18.003  0.4051  0.9675  0.1672
 3254TIP3   OH233956   5.650   0.708  17.605 -0.1962 -0.1464 -0.2886
 3254TIP3    H133957   5.689   0.654  17.536  0.8161 -0.2396  0.3288
 3254TIP3    H233958   5.724   0.734  17.660 -0.9652 -0.0305  0.7315
 3255TIP3   OH233959   1.504   3.295  20.139 -0.2977 -0.3613  0.6806
 3255TIP3    H133960   1.593   3.316  20.113 -0.2765 -0.4827  0.6565
 3255TIP3    H233961   1.470   3.376  20.178 -0.1945 -0.3007  0.6443
 3256TIP3   OH233962   0.215   1.333  17.851 -0.3213 -0.1914  0.4557
 3256TIP3    H133963   0.286   1.269  17.859 -0.7825 -0.8274 -0.3426
 3256TIP3    H233964   0.259   1.414  17.825  0.4490  0.2595  2.9129
 3257TIP3   OH233965   0.189   5.567  19.733  0.0975  0.5020  0.2420
 3257TIP3    H133966   0.249   5.514  19.785 -0.2592  0.5884  0.7446
 3257TIP3    H233967   0.233   5.578  19.649  0.9691  0.9180  0.7486
 3258TIP3   OH233968   1.550   6.233  18.881  0.2608  1.1109  0.1260
 3258TIP3    H133969   1.561   6.263  18.971  0.5470  0.4728  0.3059
 3258TIP3    H233970   1.455   6.227  18.869  0.2153 -0.9890  1.1312
 3259TIP3   OH233971   2.032   2.711  19.503  0.6483 -0.3814 -0.1442
 3259TIP3    H133972   1.940   2.730  19.522  0.1277 -0.8597 -2.0720
 3259TIP3    H233973   2.079   2.756  19.573 -0.9417  1.5177 -0.1978
 3260TIP3   OH233974   4.879   3.958  19.489 -0.4955 -0.3317  0.5409
 3260TIP3    H133975   4.880   3.896  19.416 -1.6042 -0.1943  0.3894
 3260TIP3    H233976   4.826   4.031  19.457 -5.0788 -2.1808  2.9164
 3261TIP3   OH233977   1.493   4.708  20.582  0.7766 -0.3693  0.0168
 3261TIP3    H133978   1.402   4.686  20.602  1.1709 -0.3467  2.0055
 3261TIP3    H233979   1.487   4.772  20.511 -0.6816 -1.2878 -0.7499
 3262TIP3   OH233980   4.013   1.614  19.195  0.4446 -0.3948  0.2365
 3262TIP3    H133981   3.962   1.566  19.130  0.4773  0.6163 -0.5640
 3262TIP3    H233982   4.085   1.555  19.217  0.6109 -0.6336 -0.8975
 3263TIP3   OH233983   6.392   1.200  19.540 -0.4298  0.5173  0.6873
 3263TIP3    H133984   6.354   1.246  19.615  1.5566  2.1693  0.7773
 3263TIP3    H233985   6.409   1.112  19.573 -1.1763  0.6937  1.6200
 3264TIP3   OH233986   4.130   3.046  17.736 -0.4631 -0.2053 -0.9559
 3264TIP3    H133987   4.188   2.972  17.719 -2.0023 -1.2716 -1.8842
 3264TIP3    H233988   4.155   3.112  17.671 -0.1390 -0.5682 -1.2041
 3265TIP3   OH233989   2.976   1.117  18.119  0.6135 -0.3146 -0.2261
 3265TIP3    H133990   2.886   1.111  18.152  0.7739 -2.6486 -0.0531
 3265TIP3    H233991   3.004   1.206  18.140 -0.9405 -0.2003  1.5682
 3266TIP3   OH233992   3.036   4.025  18.247 -0.5180 -0.0917 -0.1328
 3266TIP3    H133993   3.098   4.083  18.204 -0.7138  0.0396 -0.2378
 3266TIP3    H233994   2.987   4.082  18.306  0.2713 -0.4006  0.8462
 3267TIP3   OH233995   3.286   4.284  18.566  0.8179 -0.0477 -0.1775
 3267TIP3    H133996   3.295   4.376  18.590  1.5814 -0.1980  0.1606
 3267TIP3    H233997   3.234   4.284  18.486  1.7236  0.7578 -0.7836
 3268TIP3   OH233998   2.082   3.489  19.701  0.4251  0.5797  0.2890
 3268TIP3    H133999   2.075   3.474  19.796 -0.4979  0.0590  0.1458
 3268TIP3    H234000   2.023   3.562  19.684  0.0902  0.2571  0.0279
 3269TIP3   OH234001   0.804   4.906  19.519  0.0977  0.1860 -0.0869
 3269TIP3    H134002   0.799   4.979  19.581 -1.1296  0.4019 -0.4145
 3269TIP3    H234003   0.770   4.831  19.567  0.1688  0.1066 -0.1584
 3270TIP3   OH234004   6.712   2.563  19.402 -0.0066  0.4501 -0.2997
 3270TIP3    H134005   6.758   2.508  19.466  1.7616  0.9587 -1.0859
 3270TIP3    H234006   6.707   2.510  19.323 -0.3198  0.5925 -0.3788
 3271TIP3   OH234007   4.796   0.579  17.428  0.6115  0.5160  0.0367
 3271TIP3    H134008   4.867   0.618  17.377 -0.1388  1.8642 -0.0034
 3271TIP3    H234009   4.719   0.632  17.407 -0.0339  0.1735  1.4467
 3272TIP3   OH234010   4.665   6.585  20.544  0.3026 -0.1075 -0.6891
 3272TIP3    H134011   4.680   6.655  20.480  0.0918 -0.7415 -1.4349
 3272TIP3    H234012   4.573   6.563  20.534  0.3146 -0.3439 -0.2963
 3273TIP3   OH234013   2.406   6.653  19.835  0.1443 -0.5951 -0.2089
 3273TIP3    H134014   2.386   6.732  19.885 -1.8549  0.5964 -2.5959
 3273TIP3    H234015   2.501   6.647  19.835  0.3081  1.3628  0.7158
 3274TIP3   OH234016   3.993   2.746  19.395 -0.5713 -0.1984 -0.5799
 3274TIP3    H134017   3.994   2.775  19.303  3.1542  3.0980  0.2296
 3274TIP3    H234018   3.934   2.807  19.439  0.6968  0.8205 -0.2334
 3275TIP3   OH234019   3.009   4.252  20.327  0.2931 -0.0329 -0.3374
 3275TIP3    H134020   3.028   4.161  20.353 -2.6393 -0.5315  0.3785
 3275TIP3    H234021   2.935   4.277  20.381 -0.9250  1.7248 -2.6795
 3276TIP3   OH234022   6.397   1.663  18.046  0.0565 -0.8377  0.0114
 3276TIP3    H134023   6.387   1.627  18.134  0.5133 -1.1542 -0.0623
 3276TIP3    H234024   6.399   1.586  17.989 -1.3929 -0.6054 -0.4098
 3277TIP3   OH234025   1.670   5.579  19.583  0.5810 -0.3821  0.2956
 3277TIP3    H134026   1.673   5.593  19.678  0.2445  3.1685 -0.0938
 3277TIP3    H234027   1.605   5.509  19.572 -0.3972  0.0456  2.6192
 3278TIP3   OH234028   0.170   5.876  18.528  0.3956 -0.1271 -0.7438
 3278TIP3    H134029   0.108   5.820  18.483  0.6428 -0.2830 -0.8937
 3278TIP3    H234030   0.149   5.964  18.498  1.7312 -0.3875 -2.6070
 3279TIP3   OH234031   2.335   5.632  18.056 -0.1953 -0.7359  0.2093
 3279TIP3    H134032   2.371   5.637  17.968  0.8553 -0.7349  0.6243
 3279TIP3    H234033   2.409   5.652  18.113 -1.0557  0.1177  1.0666
 3280TIP3   OH234034   0.490   4.224  20.506  0.4637  0.1583  0.1186
 3280TIP3    H134035   0.481   4.129  20.511  1.6500  0.0848  2.3927
 3280TIP3    H234036   0.400   4.257  20.498  0.1004 -1.1421 -1.5772
 3281TIP3   OH234037   0.575   5.893  17.954  0.0013  0.4840 -0.4431
 3281TIP3    H134038   0.566   5.900  17.859  0.8159 -2.4330 -0.8112
 3281TIP3    H234039   0.486   5.906  17.988 -0.2458  1.8775 -1.5101
 3282TIP3   OH234040   1.561   2.413  17.780 -0.4304 -0.0682  1.0051
 3282TIP3    H134041   1.471   2.427  17.752 -0.7332 -0.8802  1.5646
 3282TIP3    H234042   1.595   2.348  17.718 -0.6915 -0.8626  1.6748
 3283TIP3   OH234043   6.146   6.698  18.797  0.0117 -0.2525  0.1182
 3283TIP3    H134044   6.121   6.677  18.707 -2.8380  0.0097  0.7273
 3283TIP3    H234045   6.083   6.650  18.851  1.1514  0.2113  1.9557
 3284TIP3   OH234046   3.421   0.741  20.717 -0.7480 -0.1739  0.1840
 3284TIP3    H134047   3.476   0.775  20.788 -2.5044 -0.4309  1.7326
 3284TIP3    H234048   3.404   0.651  20.742 -2.9374  0.2728  0.4673
 3285TIP3   OH234049   4.261   3.276  19.032  0.1379 -0.6702 -0.4260
 3285TIP3    H134050   4.292   3.252  18.945  0.7473 -0.8547 -0.1635
 3285TIP3    H234051   4.280   3.199  19.086  0.0182 -0.4510 -0.0664
 3286TIP3   OH234052   0.180   2.604  17.593  0.1879 -0.2596 -0.2035
 3286TIP3    H134053   0.174   2.510  17.612  1.2425 -0.0160  1.5476
 3286TIP3    H234054   0.154   2.647  17.674  1.3530  0.9391 -0.4263
 3287TIP3   OH234055   0.267   1.026  17.370  0.0437  0.4438  0.3065
 3287TIP3    H134056   0.243   1.109  17.329 -0.7369  0.3110  0.4808
 3287TIP3    H234057   0.309   0.976  17.300  0.3603  0.9135  0.1561
 3288TIP3   OH234058   0.225   2.140  20.026  0.1073 -0.8492 -0.0556
 3288TIP3    H134059   0.135   2.172  20.027 -0.4865 -2.4209  0.8097
 3288TIP3    H234060   0.227   2.076  19.955  0.3558 -1.3079  0.3604
 3289TIP3   OH234061   5.156   0.117  19.397  0.2759  0.2646  0.2161
 3289TIP3    H134062   5.244   0.147  19.420  1.1921 -2.3414  0.3654
 3289TIP3    H234063   5.169   0.054  19.327 -1.8106  2.0355 -1.9354
 3290TIP3   OH234064   4.897   6.503  17.966  0.5323 -0.2719  0.3287
 3290TIP3    H134065   4.813   6.487  18.008 -0.1375  1.1259 -0.4108
 3290TIP3    H234066   4.937   6.416  17.958 -0.1345 -0.7868  2.0879
 3291TIP3   OH234067   6.351   1.040  18.219  0.3460 -0.2419 -0.3994
 3291TIP3    H134068   6.310   1.110  18.271 -0.5214 -1.1088  0.1156
 3291TIP3    H234069   6.435   1.025  18.261 -0.2804 -0.8246  0.6992
 3292TIP3   OH234070   0.875   5.380  18.731  0.2853  1.1991  0.3391
 3292TIP3    H134071   0.831   5.349  18.652  0.7671  1.4281 -0.0176
 3292TIP3    H234072   0.904   5.300  18.775 -0.9953  1.0008  0.8909
 3293TIP3   OH234073   6.350   0.903  18.516  0.5442 -0.9710  0.3229
 3293TIP3    H134074   6.311   0.838  18.457  0.2769 -1.5089  1.0651
 3293TIP3    H234075   6.307   0.985  18.494 -0.1013 -1.3144  0.2628
 3294TIP3   OH234076   3.598   6.598  18.922  0.5070  0.1781  0.3534
 3294TIP3    H134077   3.670   6.568  18.867  0.2992 -1.1900  0.7877
 3294TIP3    H234078   3.601   6.541  18.999 -0.6547  0.5187  0.6696
 3295TIP3   OH234079   2.367   5.152  20.505  0.8900 -0.1388  0.2869
 3295TIP3    H134080   2.300   5.130  20.569  0.5753  0.0580  0.0309
 3295TIP3    H234081   2.450   5.141  20.551  0.7978 -2.4492  0.0030
 3296TIP3   OH234082   1.336   1.008  16.501 -0.7240  0.0614 -0.2697
 3296TIP3    H134083   1.255   1.058  16.487 -0.2497  0.4995 -1.5677
 3296TIP3    H234084   1.314   0.919  16.473 -0.7811  0.1678 -0.5701
 3297TIP3   OH234085   0.373   6.308  20.634  0.0174  0.5717  0.4480
 3297TIP3    H134086   0.462   6.336  20.656  0.1017  2.3656 -1.7561
 3297TIP3    H234087   0.383   6.260  20.552 -1.0803  1.2139 -0.0763
 3298TIP3   OH234088   1.954   2.689  19.004  0.5977 -0.0959  0.2223
 3298TIP3    H134089   1.956   2.713  19.096  1.6630  0.8272 -0.0160
 3298TIP3    H234090   2.028   2.629  18.993 -0.1385 -1.0212  0.1573
 3299TIP3   OH234091   0.159   6.163  18.127  0.1069  0.4203  0.0797
 3299TIP3    H134092   0.150   6.182  18.220  1.2768  0.8667  0.1214
 3299TIP3    H234093   0.122   6.239  18.082 -0.0445  0.4110  0.1909
 3300TIP3   OH234094   3.339   2.139  20.345 -0.2948 -0.0478  0.1726
 3300TIP3    H134095   3.310   2.188  20.422  1.0501  1.9825 -0.5265
 3300TIP3    H234096   3.284   2.173  20.273 -1.0245 -1.3843  0.0686
 3301TIP3   OH234097   2.759   5.343  18.834  0.5526 -0.5386  0.0610
 3301TIP3    H134098   2.784   5.375  18.748 -0.3131  1.4986  0.5088
 3301TIP3    H234099   2.776   5.417  18.893 -2.6204 -0.4098  0.9913
 3302TIP3   OH234100   2.108   5.265  18.516 -0.3725  0.2285  0.7674
 3302TIP3    H134101   2.135   5.244  18.605  1.5607  1.3259  0.4965
 3302TIP3    H234102   2.015   5.289  18.524  0.1340  1.7864  2.7510
 3303TIP3   OH234103   4.200   3.198  17.534 -0.1171  0.0826 -0.2802
 3303TIP3    H134104   4.295   3.206  17.529  0.0034 -0.8946  0.2186
 3303TIP3    H234105   4.167   3.257  17.466  0.8069  1.1381  0.1683
 3304TIP3   OH234106   3.675   1.082  19.681 -0.4859  0.3585 -0.0762
 3304TIP3    H134107   3.736   1.155  19.670  0.5206 -0.2437  1.2830
 3304TIP3    H234108   3.594   1.123  19.712 -0.4668  1.0555 -0.9178
 3305TIP3   OH234109   2.199   2.134  19.538 -0.9041 -0.3794  0.0457
 3305TIP3    H134110   2.207   2.039  19.544 -1.9351 -0.4467  0.6343
 3305TIP3    H234111   2.129   2.148  19.474 -1.9908 -0.0928  1.2480
 3306TIP3   OH234112   1.594   4.954  18.154 -0.3063  0.5657 -0.0812
 3306TIP3    H134113   1.548   4.870  18.160 -0.3323  0.5965  0.1544
 3306TIP3    H234114   1.639   4.950  18.069  1.6032 -0.6835  0.8971
 3307TIP3   OH234115   6.216   0.269  18.348  0.6315  0.4341 -0.7249
 3307TIP3    H134116   6.250   0.251  18.435 -1.2998 -1.0134 -0.1884
 3307TIP3    H234117   6.133   0.221  18.344  0.8708  0.0523 -3.5205
 3308TIP3   OH234118   4.916   1.280  20.421 -0.0998 -0.3112  0.2998
 3308TIP3    H134119   4.857   1.226  20.474 -0.2897  1.0423  1.5184
 3308TIP3    H234120   4.917   1.237  20.336  1.3684 -3.4257  1.7263
 3309TIP3   OH234121   5.662   1.475  19.680 -0.0181  0.4011  0.2624
 3309TIP3    H134122   5.645   1.460  19.773 -0.5917  0.8538  0.2398
 3309TIP3    H234123   5.578   1.505  19.645  0.0025 -0.4409 -0.5497
 3310TIP3   OH234124   5.908   2.831  19.924  0.2226 -0.2608  0.4953
 3310TIP3    H134125   5.904   2.745  19.883 -0.3490 -0.2195  0.4577
 3310TIP3    H234126   5.878   2.892  19.857 -0.8219 -0.2035  0.9940
 3311TIP3   OH234127   1.602   0.205  19.086  0.4920  0.0105  0.2213
 3311TIP3    H134128   1.638   0.149  19.017  0.8679  2.3131 -1.5664
 3311TIP3    H234129   1.678   0.246  19.126  0.1891 -0.2964  1.1400
 3312TIP3   OH234130   3.770   4.103  20.476 -0.3028  0.0510  0.1346
 3312TIP3    H134131   3.805   4.016  20.495 -0.4581  0.2926  1.6943
 3312TIP3    H234132   3.802   4.124  20.388  1.1149 -0.8976  0.3961
 3313TIP3   OH234133   1.583   3.568  20.256  0.1515 -0.1508  0.5299
 3313TIP3    H134134   1.655   3.613  20.212 -0.5655  1.1042  0.5772
 3313TIP3    H234135   1.507   3.584  20.200  0.0908 -2.5354 -0.2060
 3314TIP3   OH234136   4.580   5.896  20.602 -0.3176 -0.3438  0.4984
 3314TIP3    H134137   4.665   5.933  20.576  0.3129 -2.4312 -0.6502
 3314TIP3    H234138   4.532   5.970  20.638  0.5446  1.7699 -2.3565
 3315TIP3   OH234139   0.979   5.186  20.321  0.1557 -0.1409 -0.1025
 3315TIP3    H134140   1.000   5.140  20.402  1.9782  1.9264  0.7035
 3315TIP3    H234141   1.060   5.180  20.269 -0.5475 -0.2941 -1.2207
 3316TIP3   OH234142   3.692   4.381  20.150  0.5083  0.1671  0.1251
 3316TIP3    H134143   3.677   4.287  20.146 -0.4855  0.3451 -0.9941
 3316TIP3    H234144   3.701   4.401  20.243 -1.4432 -0.7146  0.5277
 3317TIP3   OH234145   3.400   5.859  19.913 -0.4550 -0.0211 -0.0920
 3317TIP3    H134146   3.398   5.874  20.007 -0.5949  0.9812 -0.2445
 3317TIP3    H234147   3.492   5.870  19.889 -0.3661 -0.6047 -0.0255
 3318TIP3   OH234148   6.728   2.321  20.025  0.1297  0.1938 -0.1683
 3318TIP3    H134149   6.781   2.400  20.015 -1.1170  1.4102  1.8927
 3318TIP3    H234150   6.642   2.354  20.050 -0.2558 -1.8396  1.4268
 3319TIP3   OH234151   2.934   6.498  20.839 -0.1311  0.3458  0.1612
 3319TIP3    H134152   2.899   6.414  20.808  0.8661 -0.1759  0.4052
 3319TIP3    H234153   3.004   6.518  20.778  1.7353 -0.6052  1.8866
 3320TIP3   OH234154   5.382   6.421  17.959  0.1153 -0.0266  0.1686
 3320TIP3    H134155   5.456   6.406  17.901  1.4854 -1.1099  2.0660
 3320TIP3    H234156   5.407   6.498  18.010 -0.4200  0.0824  0.2719
 3321TIP3   OH234157   6.713   0.795  17.680 -0.6984 -0.4736 -0.1522
 3321TIP3    H134158   6.781   0.783  17.613 -1.3772  0.1539 -0.9788
 3321TIP3    H234159   6.762   0.812  17.761  0.1894 -3.1611 -0.0279
 3322TIP3   OH234160   3.761   3.112  18.691  0.3485  0.1155  0.1335
 3322TIP3    H134161   3.790   3.200  18.714 -0.5813  0.7123 -0.9160
 3322TIP3    H234162   3.826   3.081  18.628 -0.2246  0.7174 -0.7722
 3323TIP3   OH234163   2.594   2.169  19.169 -0.2062  0.0555 -0.4353
 3323TIP3    H134164   2.643   2.232  19.223  1.2430 -0.0494 -1.5687
 3323TIP3    H234165   2.539   2.122  19.232  0.5829  0.7178  0.7997
 3324TIP3   OH234166   4.152   5.178  19.398 -0.4375  0.0204 -0.1798
 3324TIP3    H134167   4.246   5.195  19.392 -0.1096 -1.7413 -0.7126
 3324TIP3    H234168   4.139   5.150  19.488 -0.7424  1.6057  0.3080
 3325TIP3   OH234169   4.165   5.357  18.085  0.0110  0.1647  0.1433
 3325TIP3    H134170   4.236   5.418  18.067 -0.1137  0.0162 -0.9370
 3325TIP3    H234171   4.179   5.329  18.175  0.4436  1.2852  0.4343
 3326TIP3   OH234172   0.148   6.746  20.287  0.5593 -0.4532 -0.5554
 3326TIP3    H134173   0.075   6.739  20.348  1.3855  1.4723  0.7632
 3326TIP3    H234174   0.224   6.761  20.343  1.0946  3.2761 -1.9731
 3327TIP3   OH234175   6.079   3.512  20.226 -0.3999 -0.2119 -0.3605
 3327TIP3    H134176   6.170   3.481  20.232 -0.4621 -0.6970 -1.5927
 3327TIP3    H234177   6.087   3.604  20.200 -0.1861 -1.2532 -4.7174
 3328TIP3   OH234178   5.092   4.966  20.460  0.5793  0.0289 -0.4896
 3328TIP3    H134179   5.074   5.020  20.384  0.6332  0.3812 -0.2541
 3328TIP3    H234180   5.152   4.898  20.428 -0.3722 -0.5643 -1.0405
 3329TIP3   OH234181   4.128   4.190  17.954 -0.2642 -0.9020 -0.6133
 3329TIP3    H134182   4.141   4.103  17.917 -1.3486 -1.3990  0.1063
 3329TIP3    H234183   4.208   4.238  17.933  0.9498 -2.4917  0.1296
 3330TIP3   OH234184   2.539   1.444  18.803  0.3648 -0.1509 -0.1834
 3330TIP3    H134185   2.544   1.429  18.897 -0.7375  1.1252  0.0963
 3330TIP3    H234186   2.617   1.497  18.783  0.9129 -0.9117 -0.1102
 3331TIP3   OH234187   2.244   3.070  19.851 -0.0306  0.7165 -0.2350
 3331TIP3    H134188   2.161   3.084  19.896  1.7937 -0.4560  4.0313
 3331TIP3    H234189   2.301   3.141  19.881  1.0289  0.5146 -1.6455
 3332TIP3   OH234190   4.458   0.758  17.157  0.4145  0.2397 -0.4655
 3332TIP3    H134191   4.461   0.751  17.061  2.4221 -0.3719 -0.4169
 3332TIP3    H234192   4.370   0.790  17.176  0.0122  0.5236 -2.5202
 3333TIP3   OH234193   4.795   6.135  20.463 -0.2357  0.2212  0.4120
 3333TIP3    H134194   4.709   6.176  20.452  0.1757  1.2022  0.7699
 3333TIP3    H234195   4.800   6.072  20.391 -2.1794 -1.5566  1.7035
 3334TIP3   OH234196   1.834   1.443  18.129  0.4299 -0.9747  0.1996
 3334TIP3    H134197   1.819   1.516  18.190  0.6754  0.3644 -1.2970
 3334TIP3    H234198   1.923   1.415  18.147  0.3858 -0.8242  0.6880
 3335TIP3   OH234199   1.516   1.553  16.756 -0.0554  0.0430  0.1507
 3335TIP3    H134200   1.517   1.559  16.660 -0.5740  0.8305  0.1884
 3335TIP3    H234201   1.582   1.616  16.785 -1.2606  1.2383  0.3633
 3336TIP3   OH234202   4.859   0.862  19.734 -0.0589  0.8078  0.0404
 3336TIP3    H134203   4.786   0.801  19.740  0.7095 -0.1685 -0.3087
 3336TIP3    H234204   4.867   0.899  19.822  0.2629 -0.5563  0.6024
 3337TIP3   OH234205   2.567   5.751  17.186 -0.2555  0.5847 -0.0235
 3337TIP3    H134206   2.494   5.713  17.235  1.0940 -0.6513  1.1330
 3337TIP3    H234207   2.529   5.778  17.102 -1.9441 -0.3653  0.4036
 3338TIP3   OH234208   0.442   3.902  19.492 -0.4210 -0.0927  0.1733
 3338TIP3    H134209   0.479   3.818  19.519 -0.4606  0.2301  1.2860
 3338TIP3    H234210   0.348   3.884  19.481 -0.2723 -0.4241 -0.5913
 3339TIP3   OH234211   3.239   3.988  17.478  0.2285  0.3204 -0.1166
 3339TIP3    H134212   3.171   4.037  17.525  0.3257  1.6841 -1.3338
 3339TIP3    H234213   3.304   4.054  17.454  1.7692 -0.8820  0.5841
 3340TIP3   OH234214   4.576   4.578  18.966 -0.4952 -0.8072 -0.7187
 3340TIP3    H134215   4.502   4.630  18.934 -0.2517 -0.2069 -0.3322
 3340TIP3    H234216   4.653   4.618  18.925 -0.2851 -0.7084 -0.2404
 3341TIP3   OH234217   3.136   0.403  17.595  0.5394 -0.1519 -0.2418
 3341TIP3    H134218   3.209   0.461  17.620 -0.1294  0.1505  1.1271
 3341TIP3    H234219   3.152   0.382  17.503  1.3982  1.3235 -0.4635
 3342TIP3   OH234220   2.594   4.566  19.008  0.2398  0.8189 -0.6180
 3342TIP3    H134221   2.540   4.574  18.930  0.2596  1.6115 -0.5636
 3342TIP3    H234222   2.655   4.495  18.988 -0.6174  0.1244 -0.7969
 3343TIP3   OH234223   3.578   2.138  19.609 -0.0233  0.4859 -0.1837
 3343TIP3    H134224   3.610   2.096  19.529 -1.1162  0.6960 -0.7443
 3343TIP3    H234225   3.650   2.195  19.636 -0.0153  1.1594 -1.5764
 3344TIP3   OH234226   4.257   3.009  19.173  0.2756 -0.2379  0.0710
 3344TIP3    H134227   4.285   2.940  19.233  1.4023 -2.2783 -2.5977
 3344TIP3    H234228   4.162   2.996  19.164  0.3105 -0.7454  0.3997
 3345TIP3   OH234229   4.090   6.545  17.576  0.0003 -0.7193 -0.0375
 3345TIP3    H134230   4.167   6.552  17.632 -0.7979 -0.7352  1.0902
 3345TIP3    H234231   4.108   6.604  17.503  0.6745 -0.0140  0.6798
 3346TIP3   OH234232   3.082   1.939  18.206  0.3717  0.7014  0.0508
 3346TIP3    H134233   2.994   1.974  18.215 -0.9261 -1.8121 -1.6219
 3346TIP3    H234234   3.120   1.987  18.133 -0.5765  0.1250 -0.8448
 3347TIP3   OH234235   3.086   3.403  20.149  0.1203  0.1949 -0.5214
 3347TIP3    H134236   3.130   3.393  20.233  1.9888  1.4119 -1.2893
 3347TIP3    H234237   3.030   3.326  20.142  0.2035 -0.1249  1.6523
 3348TIP3   OH234238   4.267   6.538  17.775 -0.1032 -0.1739  0.2622
 3348TIP3    H134239   4.338   6.474  17.774  0.8276  0.8204  0.8247
 3348TIP3    H234240   4.259   6.563  17.867  0.6685  1.7111 -0.1462
 3349TIP3   OH234241   2.541   1.349  17.585  0.2080  0.8964  0.0032
 3349TIP3    H134242   2.614   1.342  17.645  0.9174  1.4546 -0.7673
 3349TIP3    H234243   2.562   1.288  17.514 -1.3911 -0.9867  1.0269
 3350TIP3   OH234244   5.575   1.292  20.477  0.1764  0.2626 -0.1338
 3350TIP3    H134245   5.533   1.206  20.476 -0.0979  0.4038 -0.8695
 3350TIP3    H234246   5.667   1.273  20.495  0.0470 -0.1524  0.1112
 3351TIP3   OH234247   0.117   1.808  17.754  0.6569 -0.1822  0.2454
 3351TIP3    H134248   0.102   1.736  17.814  1.8370 -0.9027 -0.2981
 3351TIP3    H234249   0.053   1.795  17.684  0.8064 -0.6504  0.1955
 3352TIP3   OH234250   2.291   6.218  19.019  0.0449  0.2728 -0.4629
 3352TIP3    H134251   2.287   6.163  19.097 -0.8785 -1.0823 -1.4213
 3352TIP3    H234252   2.380   6.252  19.018  0.1432  0.1379  1.0389
 3353TIP3   OH234253   1.416   4.605  19.257  0.2886 -0.6768  0.0590
 3353TIP3    H134254   1.369   4.685  19.233 -0.1626 -1.2579 -1.0460
 3353TIP3    H234255   1.391   4.589  19.348  0.4692  0.4910  0.3351
 3354TIP3   OH234256   4.352   5.862  20.428  0.2201 -0.2894  0.0930
 3354TIP3    H134257   4.445   5.854  20.409  0.0715 -0.5560 -0.5441
 3354TIP3    H234258   4.345   5.941  20.481  1.0853 -1.4171  2.0363
 3355TIP3   OH234259   2.733   4.717  19.535 -0.4352 -0.3729 -0.0247
 3355TIP3    H134260   2.694   4.804  19.528  0.9548  0.3309  0.4263
 3355TIP3    H234261   2.781   4.705  19.453 -0.2091 -0.4780  0.1192
 3356TIP3   OH234262   2.928   3.749  18.477 -0.4637 -0.1829  0.0327
 3356TIP3    H134263   3.003   3.692  18.461  0.5418  1.1484 -0.1879
 3356TIP3    H234264   2.901   3.777  18.390  0.0484  0.8885  0.2034
 3357TIP3   OH234265   6.598   6.148  17.367 -0.2940 -0.3237  0.1071
 3357TIP3    H134266   6.593   6.056  17.390  0.7427 -0.0370  1.5878
 3357TIP3    H234267   6.537   6.157  17.293 -1.2409 -1.9531  0.6290
 3358TIP3   OH234268   1.458   2.204  18.679  0.1886  0.7843  0.8118
 3358TIP3    H134269   1.440   2.183  18.771 -0.3463  1.2341  0.8132
 3358TIP3    H234270   1.386   2.260  18.653  0.4183  0.7776  0.1531
 3359TIP3   OH234271   3.902   0.489  20.788  0.2510  0.1616  0.7005
 3359TIP3    H134272   3.863   0.574  20.767 -0.2711  0.1122  1.3981
 3359TIP3    H234273   3.993   0.497  20.762  0.2468  1.0014  0.9069
 3360TIP3   OH234274   1.526   6.315  19.143 -0.5078  0.3726  0.7378
 3360TIP3    H134275   1.485   6.266  19.214 -0.4074  0.8447  1.1291
 3360TIP3    H234276   1.592   6.369  19.187 -1.5616  1.9155  0.5232
 3361TIP3   OH234277   5.857   4.572  17.565  0.2552 -0.5462  0.3187
 3361TIP3    H134278   5.943   4.546  17.534 -0.1361 -0.5001 -0.8617
 3361TIP3    H234279   5.797   4.507  17.529 -0.0042 -1.9464  3.0399
 3362TIP3   OH234280   0.594   4.819  17.606  0.4419 -0.2597 -0.1667
 3362TIP3    H134281   0.574   4.845  17.696  1.9129 -1.2235  0.4766
 3362TIP3    H234282   0.528   4.753  17.585  0.8198 -0.9199  0.6629
 3363TIP3   OH234283   5.519   0.150  19.118 -0.4358 -0.0184  0.2065
 3363TIP3    H134284   5.428   0.180  19.118 -0.3696  0.1921  1.1527
 3363TIP3    H234285   5.569   0.222  19.155 -0.3345 -1.4181  3.0237
 3364TIP3   OH234286   0.464   2.732  19.986  0.2259 -0.6521 -0.0998
 3364TIP3    H134287   0.445   2.732  20.080 -1.6615  0.6427 -0.4510
 3364TIP3    H234288   0.455   2.823  19.959 -0.8403 -1.2272 -1.8340
 3365TIP3   OH234289   1.439   5.862  18.407 -0.5945  0.4471  0.3013
 3365TIP3    H134290   1.529   5.843  18.382 -0.8522 -1.9043  0.9263
 3365TIP3    H234291   1.442   5.877  18.501 -0.9205 -0.4500  0.4722
 3366TIP3   OH234292   6.560   5.890  19.955 -0.6611  0.5641  0.3699
 3366TIP3    H134293   6.512   5.865  19.877 -1.2581 -1.4611  1.3380
 3366TIP3    H234294   6.651   5.866  19.937 -0.8388 -0.1241  0.3634
 3367TIP3   OH234295   6.574   4.195  17.651  0.8324 -0.0484 -0.0555
 3367TIP3    H134296   6.496   4.218  17.601  0.2839  0.5905  1.0377
 3367TIP3    H234297   6.581   4.100  17.643  1.4538  0.1486 -2.2750
 3368TIP3   OH234298   6.346   5.390  19.740 -0.2133  0.0742 -0.2642
 3368TIP3    H134299   6.284   5.421  19.806 -0.8318  0.8732 -1.1679
 3368TIP3    H234300   6.369   5.302  19.767  0.5856  0.8375  1.7208
 3369TIP3   OH234301   6.647   5.886  18.745 -0.2561 -0.1481  0.0174
 3369TIP3    H134302   6.606   5.826  18.807 -0.5809  1.1077  1.0818
 3369TIP3    H234303   6.714   5.931  18.796 -1.4923  1.9467 -0.0687
 3370TIP3   OH234304   5.554   4.106  18.169 -0.3141 -0.1411  0.2451
 3370TIP3    H134305   5.533   4.048  18.243  0.2410  0.2413  0.7074
 3370TIP3    H234306   5.514   4.190  18.192  0.7209  0.2657  0.5933
 3371TIP3   OH234307   2.159   3.886  19.722 -0.1859  0.0371  0.4107
 3371TIP3    H134308   2.227   3.952  19.735  0.1902  0.2434 -2.1285
 3371TIP3    H234309   2.202   3.803  19.741  1.0961  0.0926 -1.9382
 3372TIP3   OH234310   4.256   0.081  20.167  0.5107  0.3324  0.5927
 3372TIP3    H134311   4.286   0.151  20.225  1.5893  1.3750 -1.1217
 3372TIP3    H234312   4.320   0.079  20.096  0.5443 -2.4543  0.5695
 3373TIP3   OH234313   5.217   1.090  19.380  0.4571  0.8025  0.8070
 3373TIP3    H134314   5.160   1.108  19.305  0.4482 -0.9485  0.3432
 3373TIP3    H234315   5.171   1.022  19.429  0.8044  1.4294  2.0312
 3374TIP3   OH234316   3.819   6.577  19.850  0.1200 -0.0264  0.1194
 3374TIP3    H134317   3.849   6.635  19.781  0.8107 -0.0903  0.3589
 3374TIP3    H234318   3.724   6.590  19.853  0.0998  0.0421 -0.7693
 3375TIP3   OH234319   1.953   0.420  18.625  0.1875 -0.1489 -0.0378
 3375TIP3    H134320   1.878   0.433  18.567  0.1943  1.2700  0.2268
 3375TIP3    H234321   1.916   0.384  18.705 -0.2185  0.5158  0.0822
 3376TIP3   OH234322   0.237   4.143  19.245 -0.3177 -0.3279  0.4068
 3376TIP3    H134323   0.243   4.185  19.331  0.8720 -0.2031  0.2766
 3376TIP3    H234324   0.198   4.057  19.264  2.3025 -1.3882  1.4998
 3377TIP3   OH234325   1.325   4.316  17.708 -0.3286 -0.8735  0.5562
 3377TIP3    H134326   1.370   4.232  17.699 -0.1501 -0.6776 -0.5203
 3377TIP3    H234327   1.345   4.363  17.627 -1.1297 -0.1320  0.7703
 3378TIP3   OH234328   4.835   3.585  18.275 -0.2016  0.2053  0.0158
 3378TIP3    H134329   4.779   3.601  18.350 -0.4956 -0.3761 -0.0711
 3378TIP3    H234330   4.791   3.628  18.202  0.2996  1.1299  0.2504
 3379TIP3   OH234331   4.627   0.630  18.638  0.2666  0.0481 -0.0218
 3379TIP3    H134332   4.658   0.660  18.553 -0.0343 -0.1125 -0.1905
 3379TIP3    H234333   4.585   0.706  18.678 -4.2475 -0.9581 -2.1419
 3380TIP3   OH234334   3.810   0.462  19.293 -0.8829  0.0117 -0.5992
 3380TIP3    H134335   3.841   0.487  19.206 -1.1882  1.3552 -0.3386
 3380TIP3    H234336   3.757   0.384  19.278 -2.0383  0.9879 -1.8210
 3381TIP3   OH234337   3.332   4.661  19.460  0.2195  0.0100 -0.1653
 3381TIP3    H134338   3.357   4.644  19.551 -1.4879 -0.4728  0.2472
 3381TIP3    H234339   3.294   4.749  19.461  0.6746  0.2154 -0.5240
 3382TIP3   OH234340   0.342   5.303  18.366 -0.0852  0.4169  0.3260
 3382TIP3    H134341   0.337   5.383  18.419 -0.0377 -0.2532  1.3591
 3382TIP3    H234342   0.252   5.288  18.337 -0.2524  0.3462  0.8802
 3383TIP3   OH234343   0.633   5.299  18.055 -0.1392 -0.4711  1.0440
 3383TIP3    H134344   0.684   5.379  18.051  0.9855 -1.1934  0.0894
 3383TIP3    H234345   0.591   5.293  17.969  1.4208 -1.8940  0.3189
 3384TIP3   OH234346   4.214   2.237  20.430  0.0788 -0.7512  0.1256
 3384TIP3    H134347   4.174   2.303  20.374 -2.2429 -2.7389 -0.7378
 3384TIP3    H234348   4.145   2.213  20.492  1.2885 -1.4691  1.2452
 3385TIP3   OH234349   2.401   4.591  19.681 -0.2658  0.4890 -0.6774
 3385TIP3    H134350   2.468   4.590  19.613 -1.4802  0.5446 -1.9281
 3385TIP3    H234351   2.431   4.656  19.744 -0.0628  1.9322 -2.1960
 3386TIP3   OH234352   4.096   4.047  18.347  0.0614 -0.2868 -0.0750
 3386TIP3    H134353   4.178   4.095  18.333 -0.7111  0.6285 -1.7059
 3386TIP3    H234354   4.121   3.955  18.337  0.9710 -0.0384 -0.1933
 3387TIP3   OH234355   3.133   1.925  18.527  0.0126  0.0207 -0.2310
 3387TIP3    H134356   3.158   1.853  18.469  0.2576  0.4627 -0.6792
 3387TIP3    H234357   3.042   1.945  18.504  0.5053  1.0587 -1.3925
 3388TIP3   OH234358   6.383   2.577  17.779 -0.2047 -0.5916  0.1410
 3388TIP3    H134359   6.404   2.528  17.699 -1.8400 -0.2479 -0.5391
 3388TIP3    H234360   6.308   2.530  17.816  0.2457 -0.4675  1.2401
 3389TIP3   OH234361   4.284   5.674  20.011 -0.0156 -0.2978  0.1279
 3389TIP3    H134362   4.289   5.696  19.918 -4.0130  2.4461  0.3007
 3389TIP3    H234363   4.238   5.590  20.014  0.8998 -0.8274 -0.3463
 3390TIP3   OH234364   1.795   4.094  18.807 -0.1775  0.1655  0.0439
 3390TIP3    H134365   1.714   4.075  18.759 -0.3678 -1.0417  0.8068
 3390TIP3    H234366   1.852   4.136  18.743 -1.7885  2.0606 -0.2405
 3391TIP3   OH234367   6.050   2.665  17.671 -0.2176 -0.6238  0.0239
 3391TIP3    H134368   6.066   2.598  17.604  1.2171 -0.0573 -0.2373
 3391TIP3    H234369   6.087   2.745  17.634  0.9517 -0.3764  1.6240
 3392TIP3   OH234370   5.888   3.825  17.994 -0.5636  0.0327  0.0693
 3392TIP3    H134371   5.901   3.756  17.928 -0.2267 -0.0139  0.1805
 3392TIP3    H234372   5.798   3.814  18.023 -1.0675  0.7504 -1.1847
 3393TIP3   OH234373   5.893   5.694  18.405  0.1258 -0.4586 -0.3219
 3393TIP3    H134374   5.871   5.751  18.479 -0.5551 -0.4233 -0.5499
 3393TIP3    H234375   5.899   5.606  18.444 -1.4126 -0.6329 -0.4055
 3394TIP3   OH234376   0.046   1.311  19.284  0.3498 -0.3360 -0.2586
 3394TIP3    H134377  -0.032   1.262  19.309  0.9987 -1.4229 -0.2913
 3394TIP3    H234378   0.064   1.367  19.360 -0.3820 -0.1564 -0.2074
 3395TIP3   OH234379   1.985   2.175  20.341  0.3856 -0.1653  0.4138
 3395TIP3    H134380   2.057   2.194  20.401  0.6620 -0.5026  0.1898
 3395TIP3    H234381   2.026   2.168  20.255  0.4146 -2.3334  0.5416
 3396TIP3   OH234382   1.206   5.564  18.588 -0.1566 -0.0475  0.3119
 3396TIP3    H134383   1.191   5.619  18.664  0.8181  0.0777  0.4286
 3396TIP3    H234384   1.297   5.536  18.596 -0.3190 -0.7956 -0.3135
 3397TIP3   OH234385   5.670   3.445  20.690 -0.2259 -0.3177  0.0479
 3397TIP3    H134386   5.670   3.448  20.594 -0.7507 -1.3458  0.0056
 3397TIP3    H234387   5.602   3.381  20.712 -0.6295  0.4573  1.1329
 3398TIP3   OH234388   5.253   4.580  20.030  0.6976 -0.1585  0.2627
 3398TIP3    H134389   5.186   4.529  20.076  0.6264 -2.0665 -1.7849
 3398TIP3    H234390   5.215   4.667  20.021 -0.0956 -0.2829  1.9904
 3399TIP3   OH234391   6.451   5.219  17.549  0.1783  0.2050 -0.0046
 3399TIP3    H134392   6.519   5.241  17.613 -0.7075  1.4967  0.5494
 3399TIP3    H234393   6.392   5.295  17.550 -0.6814 -0.4069 -1.2601
 3400TIP3   OH234394   4.130   2.387  18.654 -0.4877  0.2395  0.2280
 3400TIP3    H134395   4.065   2.397  18.585  0.1677 -0.0385 -0.4424
 3400TIP3    H234396   4.154   2.294  18.650  0.0262  0.3629  0.3936
 3401TIP3   OH234397   5.763   5.698  20.735 -0.3193 -0.3390  0.4527
 3401TIP3    H134398   5.808   5.737  20.810 -1.4381 -0.4248  1.2024
 3401TIP3    H234399   5.743   5.772  20.678  0.7348 -0.2995  0.1088
 3402TIP3   OH234400   4.611   1.092  18.272 -0.0509 -0.0068  0.3216
 3402TIP3    H134401   4.640   1.181  18.254 -1.7629  0.4324 -0.5141
 3402TIP3    H234402   4.650   1.040  18.202 -0.9254  0.5056 -0.5719
 3403TIP3   OH234403   0.024   1.254  20.375 -0.1263  0.7594  0.1889
 3403TIP3    H134404   0.054   1.179  20.425 -1.1023 -0.7053 -1.3279
 3403TIP3    H234405   0.100   1.284  20.326 -0.2989 -0.9148 -1.1842
 3404TIP3   OH234406   2.357   3.696  17.479 -0.5324  0.0270  0.1002
 3404TIP3    H134407   2.392   3.628  17.537  2.7678 -0.0778 -1.7490
 3404TIP3    H234408   2.419   3.699  17.406 -1.9508  3.2994 -1.1589
 3405TIP3   OH234409   5.791   3.691  20.683 -0.1115  0.3106 -0.0315
 3405TIP3    H134410   5.758   3.611  20.723 -0.3877  0.6700  0.4716
 3405TIP3    H234411   5.714   3.746  20.671  0.0323  0.3829 -0.6618
 3406TIP3   OH234412   1.686   1.500  18.799 -0.2396 -0.0775 -0.6519
 3406TIP3    H134413   1.697   1.423  18.744 -1.0652  0.1821 -1.2129
 3406TIP3    H234414   1.772   1.515  18.838 -0.4692 -2.3797  0.9609
 3407TIP3   OH234415   0.678   2.281  18.109  0.1936 -0.0945 -0.6622
 3407TIP3    H134416   0.667   2.312  18.199  0.4229 -0.0395 -0.6527
 3407TIP3    H234417   0.701   2.359  18.059  1.2425 -0.3249 -0.5551
 3408TIP3   OH234418   1.853   1.219  20.396 -0.3081  0.3398  0.2328
 3408TIP3    H134419   1.934   1.189  20.354 -0.8272 -0.8643  0.0569
 3408TIP3    H234420   1.881   1.252  20.481  0.1301 -2.2786  1.1877
 3409TIP3   OH234421   0.098   1.277  19.940 -0.0234  0.0846 -0.2731
 3409TIP3    H134422   0.144   1.342  19.993 -0.2977 -0.2178  0.3421
 3409TIP3    H234423   0.015   1.263  19.987 -0.4819  0.1751 -1.0400
 3410TIP3   OH234424   0.120   6.417  20.551 -0.0811  0.2035 -0.0725
 3410TIP3    H134425   0.206   6.401  20.589  0.2946 -0.0259 -0.9906
 3410TIP3    H234426   0.067   6.342  20.578  1.0116 -1.5376 -2.3845
 3411TIP3   OH234427   3.685   1.714  19.938  0.0472 -0.1498  0.3186
 3411TIP3    H134428   3.723   1.690  20.023  1.5419  1.9405  0.3076
 3411TIP3    H234429   3.605   1.661  19.932 -0.8997  0.6461  3.7041
 3412TIP3   OH234430   0.406   4.697  19.518 -0.0815 -0.4206  0.6312
 3412TIP3    H134431   0.481   4.693  19.460  0.8177  1.0832  1.6403
 3412TIP3    H234432   0.350   4.766  19.483  1.6416  2.2555  2.7692
 3413TIP3   OH234433   0.509   3.368  19.236  0.0480 -0.2591  0.1092
 3413TIP3    H134434   0.437   3.415  19.194 -0.3454 -1.7253 -0.9206
 3413TIP3    H234435   0.501   3.278  19.205  3.1842 -0.2011 -1.2197
 3414TIP3   OH234436   6.098   2.692  18.919 -0.0487  0.4291 -0.6041
 3414TIP3    H134437   6.091   2.604  18.880  3.3444  0.0409 -0.6033
 3414TIP3    H234438   6.159   2.739  18.862 -2.0671  3.0287 -0.8253
 3415TIP3   OH234439   4.152   4.385  18.296 -0.2179  0.6236 -0.1700
 3415TIP3    H134440   4.235   4.358  18.256  0.3336  0.4192  1.0920
 3415TIP3    H234441   4.097   4.410  18.221  0.3397 -0.9510 -1.1570
 3416TIP3   OH234442   6.475   6.094  18.624 -0.3755 -0.3678 -0.6182
 3416TIP3    H134443   6.562   6.059  18.642 -0.3170  0.2595  0.4517
 3416TIP3    H234444   6.417   6.019  18.635 -0.0524 -0.5960 -0.4240
 3417TIP3   OH234445   5.701   6.494  19.725 -0.4268  0.3385  0.1088
 3417TIP3    H134446   5.641   6.441  19.674 -1.2699  0.2980  1.1146
 3417TIP3    H234447   5.764   6.432  19.762 -0.6670  0.1861  0.2651
 3418TIP3   OH234448   5.424   0.367  20.368  0.2087  0.5858  0.1067
 3418TIP3    H134449   5.413   0.385  20.461 -1.5047 -0.6433  0.1930
 3418TIP3    H234450   5.419   0.453  20.327  0.6188  1.1073  1.1159
 3419TIP3   OH234451   4.827   0.989  18.938 -0.0046 -0.1380 -0.1113
 3419TIP3    H134452   4.856   1.025  18.855 -2.4030  1.3438 -0.4358
 3419TIP3    H234453   4.834   0.894  18.928  0.8921  0.0533 -1.5320
 3420TIP3   OH234454   6.444   5.159  19.452  0.5710  0.1676 -0.5975
 3420TIP3    H134455   6.467   5.211  19.529 -2.8077 -0.1452  0.7820
 3420TIP3    H234456   6.439   5.223  19.380  1.3542  0.8551 -0.0614
 3421TIP3   OH234457   4.050   4.274  20.259  0.7944 -0.3351  0.0520
 3421TIP3    H134458   4.048   4.270  20.164 -1.3484  0.7095 -0.0103
 3421TIP3    H234459   4.088   4.191  20.286  1.1152 -0.7948 -1.6998
 3422TIP3   OH234460   3.711   2.884  19.981  0.5836  0.3830  0.2914
 3422TIP3    H134461   3.766   2.842  19.915  0.1882  1.8830 -1.0561
 3422TIP3    H234462   3.742   2.974  19.985 -1.9523  1.4147 -0.8362
 3423TIP3   OH234463   5.973   4.850  19.292 -0.0197 -0.0403 -0.1071
 3423TIP3    H134464   6.022   4.811  19.219  2.0859  1.3315  0.4721
 3423TIP3    H234465   5.924   4.922  19.253 -0.0582 -0.2236 -0.4009
 3424TIP3   OH234466   2.800   5.473  19.428 -0.4576 -0.2653 -0.3111
 3424TIP3    H134467   2.753   5.390  19.428 -0.9638  0.0153 -0.5675
 3424TIP3    H234468   2.775   5.515  19.346 -0.4811  0.2894 -0.0256
 3425TIP3   OH234469   0.355   3.031  18.760 -0.2137 -0.0860  0.2269
 3425TIP3    H134470   0.310   3.027  18.844 -0.8958 -0.8037 -0.1629
 3425TIP3    H234471   0.437   3.077  18.779 -1.0309  1.1180  0.9685
 3426TIP3   OH234472   3.427   3.093  19.683  0.2855 -0.4329 -0.6884
 3426TIP3    H134473   3.406   3.000  19.671 -1.3773 -0.1194 -0.5336
 3426TIP3    H234474   3.404   3.133  19.599 -0.0406 -0.0161 -0.4051
 3427TIP3   OH234475   0.784   4.544  19.113  0.0787 -0.3956 -0.0627
 3427TIP3    H134476   0.785   4.449  19.101  1.0463 -0.3248 -0.6750
 3427TIP3    H234477   0.703   4.573  19.071 -1.7712 -1.2135  2.6974
 3428TIP3   OH234478   4.655   4.755  20.712 -0.0266  0.5748 -0.2702
 3428TIP3    H134479   4.666   4.715  20.626 -0.5261 -1.3695  0.5316
 3428TIP3    H234480   4.729   4.724  20.764  1.3449  3.2248 -0.4385
 3429TIP3   OH234481   6.660   0.895  16.941 -0.1558  0.6263 -0.8306
 3429TIP3    H134482   6.693   0.952  17.010  1.1478 -0.5528 -0.4373
 3429TIP3    H234483   6.574   0.867  16.972 -0.8625  2.3553 -1.0612
 3430TIP3   OH234484   4.016   2.173  20.600 -0.1797  0.1187 -0.0063
 3430TIP3    H134485   3.993   2.266  20.598 -1.0778 -0.0802 -2.8696
 3430TIP3    H234486   3.953   2.135  20.662 -0.6412  1.2293  0.2371
 3431TIP3   OH234487   4.020   3.425  18.933  0.0156  0.0902  0.3325
 3431TIP3    H134488   4.105   3.399  18.969  0.1376  1.1075  0.8324
 3431TIP3    H234489   3.985   3.486  18.997 -0.0920  1.3899 -0.9045
 3432TIP3   OH234490   2.048   3.353  18.925  0.3195 -0.3370 -0.4036
 3432TIP3    H134491   1.954   3.340  18.936 -0.1976  1.6366 -1.8931
 3432TIP3    H234492   2.079   3.273  18.883 -0.7883 -0.7770 -0.4168
 3433TIP3   OH234493   0.982   6.700  19.390 -0.1152  0.2577  0.8755
 3433TIP3    H134494   0.952   6.778  19.437  0.5085  1.0016  0.0500
 3433TIP3    H234495   1.076   6.697  19.405  0.2863  1.1287 -1.1950
 3434TIP3   OH234496   2.653   6.459  18.416  0.3775 -0.5548 -0.6556
 3434TIP3    H134497   2.709   6.537  18.422  0.0846 -0.4050  0.3246
 3434TIP3    H234498   2.697   6.393  18.468  0.3319 -0.8782 -1.0179
 3435TIP3   OH234499   4.388   2.175  17.155 -0.2471  0.2797 -0.0615
 3435TIP3    H134500   4.301   2.202  17.181 -0.1425 -0.1525  0.7526
 3435TIP3    H234501   4.434   2.257  17.135 -0.2711  0.6434  1.3090
 3436TIP3   OH234502   5.226   4.610  19.715 -0.3899 -0.1516 -0.3784
 3436TIP3    H134503   5.272   4.541  19.762  0.3778  1.1984  0.9674
 3436TIP3    H234504   5.141   4.617  19.760  0.2997  1.0619  0.8131
 3437TIP3   OH234505   2.924   5.946  18.913  0.5585 -0.1388 -0.6388
 3437TIP3    H134506   2.968   5.871  18.952 -0.3138 -0.6406 -0.6004
 3437TIP3    H234507   2.887   5.912  18.831  0.0004  0.1982 -0.5282
 3438TIP3   OH234508   1.752   2.603  19.960  0.0388 -0.0544 -0.5411
 3438TIP3    H134509   1.744   2.669  19.891 -2.8155 -0.9309 -1.1911
 3438TIP3    H234510   1.764   2.520  19.914 -0.9468 -0.5274  0.0108
 3439TIP3   OH234511   4.029   1.942  17.385 -0.3121 -0.4331 -0.4825
 3439TIP3    H134512   4.053   1.853  17.361  0.9826  0.2403 -1.8559
 3439TIP3    H234513   3.953   1.962  17.329 -0.7155 -0.7309 -0.0438
 3440TIP3   OH234514   1.011   4.360  20.042  0.2533  0.0702 -0.2534
 3440TIP3    H134515   1.040   4.343  19.952  0.9386  0.6300 -0.1451
 3440TIP3    H234516   0.925   4.318  20.047  0.7443 -1.0565 -0.7820
 3441TIP3   OH234517   5.320   5.854  19.241 -0.0517  0.2272 -0.3130
 3441TIP3    H134518   5.279   5.930  19.199  0.4975  2.7396  3.2736
 3441TIP3    H234519   5.411   5.881  19.256 -0.4628  0.0669  3.3514
 3442TIP3   OH234520   2.126   6.444  17.573 -0.1933 -0.3926  0.3436
 3442TIP3    H134521   2.158   6.403  17.493  0.1293 -1.4262  0.9811
 3442TIP3    H234522   2.150   6.536  17.565  0.0013 -0.5242 -0.6583
 3443TIP3   OH234523   3.221   0.072  19.343  0.1567  0.2070 -0.1037
 3443TIP3    H134524   3.167   0.001  19.309  1.5537 -0.1437 -1.7081
 3443TIP3    H234525   3.299   0.028  19.379  1.0954  0.8891 -1.2313
 3444TIP3   OH234526   4.121   1.897  19.441  0.1366  0.8785 -0.3083
 3444TIP3    H134527   4.182   1.926  19.373  0.5658  0.7254  0.0025
 3444TIP3    H234528   4.162   1.926  19.523  1.0137 -1.2917  0.0946
 3445TIP3   OH234529   6.710   0.718  17.392 -0.3727 -0.4441 -0.5641
 3445TIP3    H134530   6.719   0.728  17.297 -0.3983 -0.1492 -0.5363
 3445TIP3    H234531   6.684   0.627  17.404  3.1663 -1.6069 -0.6148
 3446TIP3   OH234532   0.602   3.567  20.766  0.0853 -0.2180 -0.4361
 3446TIP3    H134533   0.673   3.518  20.807 -0.0010 -0.8515 -1.0361
 3446TIP3    H234534   0.523   3.535  20.809  0.2438  1.6941  1.4631
 3447TIP3   OH234535   2.780   6.159  17.435 -0.0019 -0.1007  0.2161
 3447TIP3    H134536   2.866   6.177  17.396  0.1844  1.7610  1.3557
 3447TIP3    H234537   2.720   6.154  17.361  0.9452 -0.5444 -0.5343
 3448TIP3   OH234538   6.145   4.097  18.778  0.0876 -0.2791 -0.0114
 3448TIP3    H134539   6.168   4.035  18.710 -1.3167 -0.3935 -0.4226
 3448TIP3    H234540   6.177   4.181  18.746  1.2787 -0.6478  0.1747
 3449TIP3   OH234541   5.715   2.587  19.195  0.0639  0.1311  0.1388
 3449TIP3    H134542   5.676   2.552  19.276 -0.5291 -1.3343 -0.7364
 3449TIP3    H234543   5.675   2.673  19.185  0.1156  0.3275  1.3811
 3450TIP3   OH234544   1.563   4.237  19.472 -0.2663  0.0131  0.2491
 3450TIP3    H134545   1.608   4.297  19.412  0.2346 -1.6512 -1.1163
 3450TIP3    H234546   1.584   4.271  19.559  2.4125  0.1914 -0.3765
 3451TIP3   OH234547   6.178   2.657  20.239  0.3447 -0.4575 -0.4667
 3451TIP3    H134548   6.169   2.637  20.146  0.7775 -0.5666 -0.4890
 3451TIP3    H234549   6.154   2.575  20.284  0.1928 -0.4229 -0.4868
 3452TIP3   OH234550   5.403   1.048  20.176  0.5852 -0.7033  0.1721
 3452TIP3    H134551   5.320   1.089  20.200  0.9657  0.3922 -0.3037
 3452TIP3    H234552   5.378   0.971  20.125 -0.1353 -0.0788 -0.4378
 3453TIP3   OH234553   2.258   5.506  20.513  0.1221 -0.3925  0.2285
 3453TIP3    H134554   2.265   5.440  20.581  0.8827 -1.6851 -1.0457
 3453TIP3    H234555   2.342   5.551  20.514 -0.2421  0.3085  0.8070
 3454TIP3   OH234556   6.632   0.172  17.530 -0.3582 -0.0169  0.5547
 3454TIP3    H134557   6.704   0.235  17.523 -2.3168  2.3291  0.0699
 3454TIP3    H234558   6.629   0.129  17.445 -0.3914  0.8859  0.0922
 3455TIP3   OH234559   1.988   0.935  17.526 -0.4219  0.0517 -0.3360
 3455TIP3    H134560   2.027   0.875  17.590  0.1195  1.4225  0.6879
 3455TIP3    H234561   1.897   0.942  17.553 -0.2503  0.4453  0.1628
 3456TIP3   OH234562   6.630   0.391  18.061 -0.9037 -0.3679 -0.1410
 3456TIP3    H134563   6.619   0.377  17.967 -1.5658  2.2125 -0.5231
 3456TIP3    H234564   6.540   0.393  18.095 -0.7055 -0.3700  0.3820
 3457TIP3   OH234565   1.919   1.775  17.895 -0.6026 -0.1634  0.0441
 3457TIP3    H134566   1.841   1.783  17.840 -0.8179  0.8493  0.4618
 3457TIP3    H234567   1.987   1.742  17.836 -1.0654  0.0186 -0.6025
 3458TIP3   OH234568   5.963   6.310  19.123 -0.2687 -0.3594 -0.5359
 3458TIP3    H134569   5.981   6.300  19.217  1.4629 -1.1212 -0.9086
 3458TIP3    H234570   5.868   6.320  19.118 -0.5318 -1.4858  1.2078
 3459TIP3   OH234571   1.806   6.216  17.277  0.8410  0.1264 -0.1062
 3459TIP3    H134572   1.817   6.182  17.188  1.2138 -3.6565  1.2323
 3459TIP3    H234573   1.724   6.178  17.308  1.8697 -0.5620  1.9417
 3460TIP3   OH234574   4.389   4.672  18.538 -0.2207  0.0056  0.1485
 3460TIP3    H134575   4.419   4.581  18.539 -1.4120 -0.4174 -0.5841
 3460TIP3    H234576   4.306   4.670  18.585 -0.6369  0.5606 -0.5477
 3461TIP3   OH234577   1.491   3.671  20.500  0.0502  0.0615 -0.0562
 3461TIP3    H134578   1.423   3.737  20.487 -1.9631 -1.6542  1.0979
 3461TIP3    H234579   1.510   3.638  20.412 -1.5416 -0.2453 -0.3208
 3462TIP3   OH234580   1.031   3.449  20.593  0.2095 -0.2403  0.4485
 3462TIP3    H134581   0.945   3.415  20.619 -0.4407  0.7689 -0.3286
 3462TIP3    H234582   1.018   3.543  20.581  1.2512 -0.1769 -0.3691
 3463TIP3   OH234583   3.089   1.556  18.490  0.0520 -0.2381  0.2098
 3463TIP3    H134584   3.123   1.642  18.466  1.3347 -0.9208 -0.5515
 3463TIP3    H234585   2.996   1.560  18.470  0.0014  1.1147  0.6369
 3464TIP3   OH234586   0.675   1.075  20.302  0.1754 -0.8935 -0.4681
 3464TIP3    H134587   0.662   0.988  20.340  0.0400 -0.1603  1.2920
 3464TIP3    H234588   0.590   1.099  20.267 -1.0183  0.1416  2.7648
 3465TIP3   OH234589   6.478   2.370  18.688 -0.4602  0.9617 -0.1801
 3465TIP3    H134590   6.520   2.449  18.721 -0.9527  1.6092 -1.0611
 3465TIP3    H234591   6.538   2.336  18.622 -0.3934  0.7617 -0.0202
 3466TIP3   OH234592   2.719   1.098  18.193  0.2810  0.5081  0.7734
 3466TIP3    H134593   2.635   1.145  18.196  0.2608  0.4501  1.1271
 3466TIP3    H234594   2.709   1.036  18.121 -0.1424  0.1897  1.1047
 3467TIP3   OH234595   3.766   2.257  19.973  0.5029  0.2029  0.4322
 3467TIP3    H134596   3.806   2.195  20.033 -0.6577  1.0529  2.1672
 3467TIP3    H234597   3.673   2.255  19.995 -0.0392  0.2190 -1.6655
 3468TIP3   OH234598   6.537   3.056  20.131  0.0322 -0.2167 -0.7457
 3468TIP3    H134599   6.519   3.071  20.224  3.7844 -0.4332  0.1618
 3468TIP3    H234600   6.626   3.022  20.129  0.2094  0.0868 -4.4809
 3469TIP3   OH234601   3.737   1.186  20.551 -0.1439 -0.1871 -0.0137
 3469TIP3    H134602   3.688   1.108  20.524 -1.6766 -0.2255  2.4939
 3469TIP3    H234603   3.671   1.242  20.592  1.3813  1.2632  0.5752
 3470TIP3   OH234604   5.936   2.375  18.393 -0.3346 -0.5168 -0.4330
 3470TIP3    H134605   5.874   2.385  18.321 -0.7524 -0.7095 -0.1058
 3470TIP3    H234606   5.994   2.304  18.366  0.6402  0.5919 -1.3626
 3471TIP3   OH234607   1.852   0.269  19.165 -1.0599  0.1800 -0.5738
 3471TIP3    H134608   1.806   0.333  19.218 -0.8358  2.6313 -3.1243
 3471TIP3    H234609   1.935   0.254  19.211 -1.1772  1.6184  0.1370
 3472TIP3   OH234610   6.650   2.101  17.821 -0.2226 -0.3003 -0.0376
 3472TIP3    H134611   6.624   2.017  17.782 -0.1275  0.6494 -2.2907
 3472TIP3    H234612   6.569   2.153  17.822  0.0492  0.1266 -0.1751
 3473TIP3   OH234613   2.568   3.536  19.938 -0.2843  0.7300 -0.1155
 3473TIP3    H134614   2.630   3.554  19.867 -0.4065  2.6203  0.2104
 3473TIP3    H234615   2.623   3.503  20.010 -0.0992 -0.6900 -0.8561
 3474TIP3   OH234616   2.187   6.411  20.100  0.4706  0.3244 -0.1610
 3474TIP3    H134617   2.230   6.375  20.178 -0.9094 -1.3061 -0.0965
 3474TIP3    H234618   2.143   6.490  20.132 -0.1615 -0.3788  0.7855
 3475TIP3   OH234619   5.766   1.515  20.291  0.0024  0.0869 -0.6882
 3475TIP3    H134620   5.822   1.562  20.352 -0.2378  0.8482 -1.0409
 3475TIP3    H234621   5.804   1.427  20.287 -0.5194 -0.2820  1.2617
 3476TIP3   OH234622   2.150   6.586  18.354 -0.1628  0.0217 -0.0124
 3476TIP3    H134623   2.211   6.561  18.285  0.6445 -0.9353  1.0179
 3476TIP3    H234624   2.150   6.682  18.353  0.1932  0.0191 -1.0139
 3477TIP3   OH234625   0.810   1.874  17.362 -0.2718 -0.2716  0.1750
 3477TIP3    H134626   0.828   1.911  17.448  2.2877  1.1304 -0.8506
 3477TIP3    H234627   0.741   1.809  17.377 -0.9875  1.0112  2.9862
 3478TIP3   OH234628   5.055   0.402  17.317  0.4997 -0.3143  0.4374
 3478TIP3    H134629   5.012   0.325  17.281 -1.5977  1.6726 -1.6994
 3478TIP3    H234630   5.146   0.394  17.290 -0.0463 -1.2327 -1.2482
 3479TIP3   OH234631   0.786   0.991  19.666  0.3014  0.1173  0.7052
 3479TIP3    H134632   0.707   1.046  19.663  0.2613  0.0372  0.3063
 3479TIP3    H234633   0.774   0.927  19.596  1.2130  0.7673 -0.0619
 3480TIP3   OH234634   2.418   1.969  19.301  0.7327 -1.1477 -0.3749
 3480TIP3    H134635   2.410   1.873  19.300 -1.2936 -1.0202 -1.2131
 3480TIP3    H234636   2.330   2.000  19.281  0.9995  0.9333  1.4056
 3481TIP3   OH234637   2.183   4.204  19.375 -0.5519  0.4217 -0.9607
 3481TIP3    H134638   2.251   4.256  19.331 -0.5143  2.3438  1.2148
 3481TIP3    H234639   2.231   4.136  19.422  0.2607  2.9496  2.2070
 3482TIP3   OH234640   6.319   4.185  19.431  0.1228  0.0479  0.2039
 3482TIP3    H134641   6.317   4.090  19.433  2.5318 -0.1015 -1.3410
 3482TIP3    H234642   6.281   4.211  19.515  1.4457 -2.3307  1.6613
 3483TIP3   OH234643   0.818   4.680  17.542 -0.5719  0.8252  0.1022
 3483TIP3    H134644   0.802   4.691  17.448 -3.1687 -0.2078  0.3277
 3483TIP3    H234645   0.745   4.726  17.584  0.4238  1.0766  1.6285
 3484TIP3   OH234646   3.794   4.864  19.022 -0.0457 -0.4058  0.0602
 3484TIP3    H134647   3.885   4.896  19.030 -0.8972  2.0766  0.9500
 3484TIP3    H234648   3.749   4.934  18.974 -1.3994 -1.8517 -0.8440
 3485TIP3   OH234649   6.586   5.368  19.538 -0.7282 -0.4617 -0.1484
 3485TIP3    H134650   6.566   5.462  19.535  2.1243  0.2184 -0.3876
 3485TIP3    H234651   6.612   5.352  19.629 -0.4482 -0.8474 -0.2965
 3486TIP3   OH234652   3.607   1.694  19.445  0.1110  0.2593  0.3355
 3486TIP3    H134653   3.635   1.775  19.488  1.3694  0.1858 -0.3127
 3486TIP3    H234654   3.670   1.681  19.375 -0.4316 -0.9729  0.0535
 3487TIP3   OH234655   1.499   3.803  18.932 -0.6942 -0.5631 -0.4075
 3487TIP3    H134656   1.495   3.810  18.836 -1.4727 -0.6208 -0.3874
 3487TIP3    H234657   1.557   3.729  18.948  2.7767  1.8705 -0.7333
 3488TIP3   OH234658   4.879   5.828  20.584 -0.3868  0.2401  0.3262
 3488TIP3    H134659   4.947   5.816  20.517 -0.8022  0.7981 -0.2059
 3488TIP3    H234660   4.918   5.887  20.648 -1.5058  3.4315 -1.7185
 3489TIP3   OH234661   4.576   2.332  18.139 -0.4682  0.2217 -0.4427
 3489TIP3    H134662   4.631   2.409  18.158  0.4849 -1.0247  2.4689
 3489TIP3    H234663   4.631   2.277  18.083 -0.7570  1.1777 -1.6963
 3490TIP3   OH234664   4.450   0.947  19.885 -0.2899 -0.6145  0.3556
 3490TIP3    H134665   4.534   0.919  19.921  0.1779 -0.3271 -0.4848
 3490TIP3    H234666   4.385   0.921  19.951  0.3840 -1.4296  0.7079
 3491TIP3   OH234667   4.343   4.263  19.616 -0.4924  0.6008 -0.0927
 3491TIP3    H134668   4.284   4.190  19.597 -0.4494  0.6643 -0.4659
 3491TIP3    H234669   4.412   4.257  19.550 -0.2437  0.7072  0.1569
 3492TIP3   OH234670   0.343   1.206  20.165  0.2385 -0.6670 -0.0036
 3492TIP3    H134671   0.414   1.190  20.103 -1.0966  1.1422 -2.1460
 3492TIP3    H234672   0.350   1.299  20.186  0.3680 -1.1419  2.2664
 3493TIP3   OH234673   4.117   2.181  18.035 -0.2468 -0.4207  0.5368
 3493TIP3    H134674   4.200   2.132  18.030 -0.1115 -0.1551  0.1688
 3493TIP3    H234675   4.105   2.217  17.948 -0.1729  0.4956  0.8967
 3494TIP3   OH234676   2.046   5.987  19.696  0.6085  0.1315 -0.3204
 3494TIP3    H134677   2.111   6.057  19.703 -0.1158  0.7072  0.9868
 3494TIP3    H234678   2.061   5.933  19.774  1.3588 -1.3633 -1.4730
 3495TIP3   OH234679   4.848   2.281  19.081  0.0321  0.5750 -0.2606
 3495TIP3    H134680   4.783   2.350  19.076  0.3224  1.0405  1.5674
 3495TIP3    H234681   4.929   2.321  19.048 -0.6729 -0.2535 -3.3531
 3496TIP3   OH234682   1.103   4.539  19.072  0.2603  0.2098 -0.0730
 3496TIP3    H134683   1.185   4.588  19.079  1.5161 -1.5230 -1.7383
 3496TIP3    H234684   1.036   4.602  19.099  1.8608  2.5404 -1.1756
 3497TIP3   OH234685   2.198   0.058  17.628 -0.1546 -0.4378 -0.1920
 3497TIP3    H134686   2.223   0.145  17.597 -0.3555 -0.6808 -1.0938
 3497TIP3    H234687   2.245  -0.002  17.569  0.9430 -0.9801  1.1689
 3498TIP3   OH234688   6.305   3.328  18.911  0.2269 -0.1181  0.1514
 3498TIP3    H134689   6.341   3.388  18.846 -0.2922 -1.9268 -1.9223
 3498TIP3    H234690   6.212   3.351  18.917  0.5701  1.0786  1.5233
 3499TIP3   OH234691   5.318   5.238  18.371 -0.2341 -0.0010 -0.0801
 3499TIP3    H134692   5.335   5.332  18.366  1.0539 -0.2579 -2.8271
 3499TIP3    H234693   5.291   5.214  18.282  0.0372 -2.3076  0.4025
 3500TIP3   OH234694   5.494   2.708  20.766 -1.0081  0.7138  0.3527
 3500TIP3    H134695   5.566   2.715  20.827 -1.2355  1.8765  0.5188
 3500TIP3    H234696   5.468   2.616  20.769  0.3659  0.3074  0.3816
 3501TIP3   OH234697   1.800   0.768  18.948 -0.2838  0.1206 -0.2150
 3501TIP3    H134698   1.866   0.743  18.883 -0.5542  1.4471 -1.0562
 3501TIP3    H234699   1.718   0.729  18.916 -0.1890 -0.2542 -0.0002
 3502TIP3   OH234700   1.987   3.918  20.722 -0.0568  0.2611  0.4871
 3502TIP3    H134701   2.050   3.928  20.793 -0.5882  3.7864  0.6535
 3502TIP3    H234702   1.909   3.964  20.753 -1.2745 -0.4767 -1.3251
 3503TIP3   OH234703   4.566   2.749  17.981 -0.1780  0.4718  0.0966
 3503TIP3    H134704   4.556   2.757  17.887  0.4920 -1.8612 -0.2248
 3503TIP3    H234705   4.660   2.758  17.997 -0.3596  1.5512  0.6482
 3504TIP3   OH234706   3.540   0.312  18.069 -0.4007  0.3828 -0.5477
 3504TIP3    H134707   3.563   0.226  18.032 -2.1368 -0.8806  1.0933
 3504TIP3    H234708   3.623   0.359  18.072  0.7113 -1.4195 -1.0555
 3505TIP3   OH234709   4.918   5.205  20.300 -0.1496  0.3148 -0.1549
 3505TIP3    H134710   4.957   5.284  20.263 -0.2078  0.3169 -0.2117
 3505TIP3    H234711   4.874   5.236  20.379  0.4302  0.2178  0.2062
 3506TIP3   OH234712   3.765   0.469  17.998 -0.2600 -0.3212  0.7480
 3506TIP3    H134713   3.843   0.511  18.035  0.7821 -1.7383  0.2269
 3506TIP3    H234714   3.699   0.539  17.995  0.1065  0.2688  3.6865
 3507TIP3   OH234715   0.734   4.403  19.737  0.2201 -0.3363  0.6016
 3507TIP3    H134716   0.805   4.366  19.789  0.2244  0.0795  0.8949
 3507TIP3    H234717   0.770   4.410  19.649  1.0339  1.1422  1.0043
 3508TIP3   OH234718   3.881   5.120  19.187 -0.5959  0.5439  0.3572
 3508TIP3    H134719   3.919   5.182  19.125 -0.5427  0.1960  0.0424
 3508TIP3    H234720   3.786   5.129  19.175 -0.5949 -1.3346 -1.6056
 3509TIP3   OH234721   2.556   6.581  21.004 -0.0936 -0.5298 -0.3538
 3509TIP3    H134722   2.575   6.521  21.077 -1.8166  1.0109  1.4837
 3509TIP3    H234723   2.494   6.534  20.949  0.4297 -1.3159 -0.2900
 3510TIP3   OH234724   4.261   5.763  18.321  0.1519  0.0310  0.0118
 3510TIP3    H134725   4.354   5.738  18.316  0.3927  0.4489  1.7674
 3510TIP3    H234726   4.255   5.815  18.401 -1.6176 -0.0186 -0.0614
 3511TIP3   OH234727   2.638   3.207  18.686  0.2995 -0.3160 -0.1726
 3511TIP3    H134728   2.549   3.238  18.704  0.6661  0.2082  0.7708
 3511TIP3    H234729   2.638   3.116  18.717  0.7659  0.4049  2.1261
 3512TIP3   OH234730   0.594   5.337  19.080 -0.1964  0.3073  0.1806
 3512TIP3    H134731   0.576   5.264  19.022 -2.6156 -0.2889  1.5502
 3512TIP3    H234732   0.579   5.415  19.027 -1.0914 -0.2226 -0.3671
 3513TIP3   OH234733   5.450   2.596  19.971  0.2590 -0.2278 -0.0515
 3513TIP3    H134734   5.487   2.582  19.884 -0.8837  0.3700 -0.6617
 3513TIP3    H234735   5.447   2.692  19.981  0.5500 -0.2904  0.7230
 3514TIP3   OH234736   5.643   5.978  17.761  0.4246  0.2916 -0.1389
 3514TIP3    H134737   5.661   5.890  17.794 -0.0227  0.4443  0.5261
 3514TIP3    H234738   5.727   6.008  17.726  0.5490 -0.4453 -0.5008
 3515TIP3   OH234739   5.512   1.860  18.960  1.0243 -0.7232  0.1375
 3515TIP3    H134740   5.483   1.792  19.021  1.6246 -1.9694 -0.9184
 3515TIP3    H234741   5.607   1.849  18.956  0.8751 -1.6704 -2.1077
 3516TIP3   OH234742   0.651   3.156  20.392 -0.3201 -0.2074 -0.1340
 3516TIP3    H134743   0.678   3.174  20.302 -0.5727  0.1145 -0.1473
 3516TIP3    H234744   0.556   3.149  20.387 -0.2132 -2.0029 -0.2145
 3517TIP3   OH234745   1.623   5.988  20.483  0.2259  0.4997  0.3013
 3517TIP3    H134746   1.649   6.024  20.398  1.5986  1.4639  1.0947
 3517TIP3    H234747   1.706   5.966  20.526 -0.4909 -1.2933  0.8585
 3518TIP3   OH234748   0.789   3.995  17.664 -0.7924  0.6398 -0.5047
 3518TIP3    H134749   0.705   3.991  17.617  0.1020  0.1181 -2.1218
 3518TIP3    H234750   0.853   3.959  17.603  0.4681  0.0396  1.0901
 3519TIP3   OH234751   0.598   1.094  16.812 -0.1474 -0.1740 -0.2186
 3519TIP3    H134752   0.659   1.168  16.810 -1.6984  1.2352  0.9222
 3519TIP3    H234753   0.645   1.025  16.858  1.1523  0.2699 -0.8160
 3520TIP3   OH234754   2.971   2.291  18.602 -0.2447  0.3443  0.1848
 3520TIP3    H134755   2.887   2.315  18.562  0.1523  1.0397 -0.2373
 3520TIP3    H234756   2.947   2.230  18.672 -1.1138  0.6398  0.1551
 3521TIP3   OH234757   5.710   5.392  20.242  0.0814 -0.1835 -0.2101
 3521TIP3    H134758   5.679   5.366  20.329 -0.0933  1.2024  0.1639
 3521TIP3    H234759   5.791   5.440  20.258 -1.0521  1.9830 -0.5687
 3522TIP3   OH234760   3.369   2.903  18.776 -0.0572 -0.1162  0.4829
 3522TIP3    H134761   3.290   2.954  18.795  0.0276 -0.1746  0.9931
 3522TIP3    H234762   3.336   2.825  18.730 -0.2407  0.1183  0.2095
 3523TIP3   OH234763   5.248   2.735  17.724 -0.3861 -0.1238 -0.2707
 3523TIP3    H134764   5.324   2.679  17.706  0.0359  0.8397 -1.5853
 3523TIP3    H234765   5.196   2.733  17.644 -1.8346 -0.8381  0.6435
 3524TIP3   OH234766   2.636   6.498  20.595  0.3312 -0.2074 -0.1658
 3524TIP3    H134767   2.680   6.413  20.592  0.7067 -0.2037  2.5552
 3524TIP3    H234768   2.703   6.558  20.629 -0.7510  0.5299  0.7391
 3525TIP3   OH234769   2.347   3.708  19.900  0.1188 -0.1627 -0.2068
 3525TIP3    H134770   2.413   3.640  19.914  0.4901  0.5306  1.7024
 3525TIP3    H234771   2.386   3.787  19.937 -2.1027  0.0801  1.8339
 3526TIP3   OH234772   2.994   2.346  20.803  0.3830  0.3343  0.2191
 3526TIP3    H134773   2.918   2.355  20.745  0.4895  0.8778  0.1548
 3526TIP3    H234774   3.006   2.434  20.839 -0.4906 -0.2712  2.0934
 3527TIP3   OH234775   1.639   4.629  20.163 -0.0110 -0.4230  0.1229
 3527TIP3    H134776   1.654   4.626  20.069 -0.8905  1.2255 -0.1153
 3527TIP3    H234777   1.569   4.566  20.179 -0.0681 -0.4856 -0.3624
 3528TIP3   OH234778   0.572   4.355  17.191 -0.2064  0.0613  0.0703
 3528TIP3    H134779   0.559   4.300  17.269 -0.9335  0.4548  0.2365
 3528TIP3    H234780   0.496   4.337  17.136 -0.2749  0.6379 -0.0290
 3529TIP3   OH234781   3.108   0.053  19.970  0.0197 -0.4114  0.1695
 3529TIP3    H134782   3.034   0.113  19.962  1.4533  1.4391  0.0349
 3529TIP3    H234783   3.166   0.077  19.898 -0.0882 -3.1377 -0.9107
 3530TIP3   OH234784   2.758   4.254  20.075  0.4656 -0.4826  0.0498
 3530TIP3    H134785   2.786   4.166  20.051  1.8912  0.0839 -0.4633
 3530TIP3    H234786   2.782   4.308  19.999 -1.0148  0.2447  0.0728
 3531TIP3   OH234787   5.068   0.252  18.876  0.2012 -0.6617 -0.2195
 3531TIP3    H134788   5.113   0.293  18.802  0.5510  1.0720  0.8953
 3531TIP3    H234789   4.975   0.268  18.859  0.3714  1.5696  0.6765
 3532TIP3   OH234790   5.874   3.874  18.927 -0.1039 -0.0422 -0.2901
 3532TIP3    H134791   5.793   3.908  18.888  0.7575  0.3669 -1.7528
 3532TIP3    H234792   5.908   3.948  18.978 -0.1782  0.0659 -0.3957
 3533TIP3   OH234793   0.321   2.637  19.359 -0.1643 -0.6160  0.4404
 3533TIP3    H134794   0.278   2.558  19.325  1.3848 -0.7459 -1.3761
 3533TIP3    H234795   0.370   2.606  19.436  1.3522 -1.7246 -0.9072
 3534TIP3   OH234796   1.214   3.583  18.753 -0.0896 -0.0809  0.1939
 3534TIP3    H134797   1.187   3.616  18.667  0.6554 -1.2962 -0.5272
 3534TIP3    H234798   1.203   3.658  18.812 -0.2222  0.8902 -1.0307
 3535TIP3   OH234799   3.886   1.027  18.207  0.1410 -0.0476  0.4312
 3535TIP3    H134800   3.797   0.996  18.224  0.4054 -0.7632  0.5491
 3535TIP3    H234801   3.905   1.086  18.280 -0.7920  1.3277 -0.4077
 3536TIP3   OH234802   4.983   0.150  17.186  0.0831 -0.4596 -0.3203
 3536TIP3    H134803   4.991   0.056  17.199 -1.3208 -0.4494  0.9228
 3536TIP3    H234804   4.912   0.160  17.124  1.8572 -0.2390 -2.4476
 3537TIP3   OH234805   3.450   5.305  18.732 -0.2227  0.3289  0.2734
 3537TIP3    H134806   3.519   5.343  18.788  1.9060 -3.1548  0.2933
 3537TIP3    H234807   3.438   5.370  18.663  4.8079  0.3221 -0.9794
 3538TIP3   OH234808   1.080   1.861  20.144 -0.1850  0.3149 -0.1642
 3538TIP3    H134809   1.019   1.845  20.215 -0.5606 -0.1742 -0.5878
 3538TIP3    H234810   1.036   1.925  20.088 -0.1997  0.1643 -0.3278
 3539TIP3   OH234811   4.878   5.409  19.856  0.1090  0.1375  0.1875
 3539TIP3    H134812   4.785   5.430  19.865 -0.5123 -1.0773 -2.5477
 3539TIP3    H234813   4.882   5.314  19.861  1.1274  0.1405 -0.3098
 3540TIP3   OH234814   2.247   0.559  18.220 -0.2804  0.1891  0.6334
 3540TIP3    H134815   2.158   0.574  18.252 -0.2620 -0.3427  0.9459
 3540TIP3    H234816   2.278   0.484  18.271 -0.0277 -0.2779 -0.2032
 3541TIP3   OH234817   6.144   6.139  19.938  0.3655  0.0360  0.0841
 3541TIP3    H134818   6.065   6.102  19.977  0.5097 -0.7606 -0.3590
 3541TIP3    H234819   6.194   6.172  20.012 -1.3448  2.5521  0.2343
 3542TIP3   OH234820   3.886   2.458  17.865 -0.4111 -0.0156 -0.7288
 3542TIP3    H134821   3.849   2.400  17.931 -0.0929  0.8423  0.2278
 3542TIP3    H234822   3.959   2.409  17.828 -0.1454 -0.2405  0.0676
 3543TIP3   OH234823   0.362   5.397  19.833 -0.3551  0.4347  0.0389
 3543TIP3    H134824   0.332   5.310  19.858  0.2527 -0.2665 -1.5809
 3543TIP3    H234825   0.456   5.388  19.821  0.0983  1.8542  1.9099
 3544TIP3   OH234826   5.052   2.743  19.162 -0.3339  0.0268 -0.3169
 3544TIP3    H134827   5.110   2.668  19.176 -0.6016 -0.0900  0.1903
 3544TIP3    H234828   5.056   2.793  19.244 -1.3873 -0.2942 -0.0481
 3545TIP3   OH234829   3.791   2.452  20.745  0.6121 -0.4851  0.4651
 3545TIP3    H134830   3.794   2.495  20.660  0.1750 -2.4286 -0.5981
 3545TIP3    H234831   3.706   2.478  20.782  0.7668  0.2900  0.2992
 3546TIP3   OH234832   0.172   0.110  18.295  0.1516 -0.3129  0.2309
 3546TIP3    H134833   0.099   0.143  18.348  0.0404 -2.2361  1.3656
 3546TIP3    H234834   0.156   0.144  18.207 -1.6444 -0.0236  0.6412
 3547TIP3   OH234835   3.273   3.112  18.154  0.0838  0.6110  0.1093
 3547TIP3    H134836   3.215   3.105  18.230 -1.3504  0.1518 -0.9796
 3547TIP3    H234837   3.252   3.197  18.116 -0.8890 -0.1038 -1.0361
 3548TIP3   OH234838   1.798   3.092  19.720 -0.0881 -0.1081 -0.1512
 3548TIP3    H134839   1.735   3.158  19.747  1.8191  0.9874  1.9619
 3548TIP3    H234840   1.845   3.132  19.647  1.1583  1.0000  1.2118
 3549TIP3   OH234841   0.463   2.196  20.660  0.4622  0.3804 -0.2599
 3549TIP3    H134842   0.551   2.213  20.626  0.2260 -0.8263 -1.5760
 3549TIP3    H234843   0.451   2.101  20.649 -0.5199  0.3130  1.1170
 3550TIP3   OH234844   4.116   3.347  18.457  0.2494 -0.3374 -0.4350
 3550TIP3    H134845   4.079   3.434  18.443  0.9075 -0.1041 -0.7606
 3550TIP3    H234846   4.132   3.313  18.369  1.8930  0.0487 -0.3227
 3551TIP3   OH234847   2.543   5.733  17.875 -0.6551 -0.6224  0.1743
 3551TIP3    H134848   2.623   5.680  17.869  0.3361  0.8182 -0.0994
 3551TIP3    H234849   2.484   5.696  17.809  0.1178 -1.2050 -0.2085
 3552TIP3   OH234850   1.774   3.351  18.958 -0.6141  0.2879 -0.4460
 3552TIP3    H134851   1.709   3.322  18.895  0.4305 -0.8625 -1.0389
 3552TIP3    H234852   1.738   3.329  19.044 -1.7713  1.3107 -0.6439
 3553TIP3   OH234853   3.345   1.238  18.881  0.0483  0.0944 -0.2392
 3553TIP3    H134854   3.340   1.219  18.975 -0.7275 -1.1798 -0.5138
 3553TIP3    H234855   3.438   1.256  18.865  0.3777 -0.8167  0.5733
 3554TIP3   OH234856   4.681   0.085  20.394 -0.2318  0.1189  0.5052
 3554TIP3    H134857   4.634   0.168  20.401  0.2847  0.6256 -1.4484
 3554TIP3    H234858   4.679   0.064  20.301 -0.9215 -2.4313  1.0078
 3555TIP3   OH234859   0.346   4.934  18.313 -0.2749  0.8238 -0.1868
 3555TIP3    H134860   0.340   4.848  18.354  0.1484  1.7123  1.8986
 3555TIP3    H234861   0.255   4.962  18.302 -0.4140  1.0977  1.4509
 3556TIP3   OH234862   6.519   0.706  20.375 -0.1404  0.5696  0.1657
 3556TIP3    H134863   6.513   0.618  20.411  2.0909 -0.2316 -1.1842
 3556TIP3    H234864   6.613   0.719  20.360 -0.3591  3.3684  0.7423
 3557TIP3   OH234865   4.528   1.521  16.758 -0.0316 -0.1294 -0.0827
 3557TIP3    H134866   4.472   1.593  16.729 -0.9049 -0.9715 -0.5550
 3557TIP3    H234867   4.480   1.482  16.831  1.0237  0.5073  0.9787
 3558TIP3   OH234868   2.488   0.546  19.837 -0.5012 -0.3468 -0.3189
 3558TIP3    H134869   2.542   0.591  19.772  0.8924  0.1143  1.0994
 3558TIP3    H234870   2.487   0.455  19.808  1.4011 -0.4558 -0.2160
 3559TIP3   OH234871   0.427   5.780  18.828 -0.2865 -0.1080  0.3998
 3559TIP3    H134872   0.451   5.851  18.768 -0.8848  0.7833  1.1824
 3559TIP3    H234873   0.349   5.740  18.789  0.3315 -0.6631 -0.2909
 3560TIP3   OH234874   3.436   6.048  18.651 -0.6388 -0.7094  0.0483
 3560TIP3    H134875   3.523   6.079  18.677 -0.9359 -1.1009  1.6038
 3560TIP3    H234876   3.454   5.983  18.584  0.2364 -0.3187 -0.1144
 3561TIP3   OH234877   3.531   3.220  20.442  0.4299 -0.2533 -0.1944
 3561TIP3    H134878   3.572   3.188  20.522 -0.6548 -1.5511 -0.1259
 3561TIP3    H234879   3.494   3.142  20.401  1.6521  0.2533 -2.4032
 3562TIP3   OH234880   5.518   2.828  20.346  0.2965 -0.1319 -0.7106
 3562TIP3    H134881   5.454   2.762  20.320 -1.1681  0.2995  1.4952
 3562TIP3    H234882   5.493   2.907  20.298  0.7009 -0.5795 -1.6834
 3563TIP3   OH234883   0.139   0.629  19.044 -0.7075  0.5892 -0.4008
 3563TIP3    H134884   0.174   0.697  19.101  0.8789 -0.2171 -0.3547
 3563TIP3    H234885   0.140   0.669  18.956 -2.8459  1.7140  0.0217
 3564TIP3   OH234886   5.264   1.750  20.383  0.5776 -0.0080  0.2579
 3564TIP3    H134887   5.261   1.734  20.477  0.8818  1.2272  0.4896
 3564TIP3    H234888   5.197   1.691  20.347 -0.2682  0.2427  1.3572
 3565TIP3   OH234889   0.444   1.755  18.674 -0.0858 -1.3310  0.3074
 3565TIP3    H134890   0.428   1.805  18.594 -0.7703  1.4518  2.0437
 3565TIP3    H234891   0.539   1.746  18.678 -0.0735 -1.9292 -1.0329
 3566TIP3   OH234892   5.142   4.436  18.961  0.4987  0.4723 -0.3245
 3566TIP3    H134893   5.080   4.368  18.936  2.2336 -1.6366  0.7913
 3566TIP3    H234894   5.169   4.476  18.879  0.0702 -0.7710 -1.0904
 3567TIP3   OH234895   3.942   4.337  18.071 -0.3096  0.3372 -0.2208
 3567TIP3    H134896   4.009   4.275  18.042 -0.3715 -0.0292  0.4008
 3567TIP3    H234897   3.956   4.414  18.016  0.3489  0.1049 -0.3940
 3568TIP3   OH234898   4.097   4.282  18.817  0.2130  0.3503  0.3103
 3568TIP3    H134899   4.114   4.312  18.728  0.4742 -0.7473 -0.0248
 3568TIP3    H234900   4.106   4.187  18.813 -1.5969  0.0954  1.0902
 3569TIP3   OH234901   1.415   6.505  20.519  0.2487 -0.0698 -0.2968
 3569TIP3    H134902   1.432   6.585  20.568 -0.9889  0.0609 -0.0529
 3569TIP3    H234903   1.392   6.440  20.585  1.5193 -0.7356 -0.4670
 3570TIP3   OH234904   0.920   3.001  18.364  0.1075 -0.1012 -0.3447
 3570TIP3    H134905   0.872   2.987  18.282 -0.6616 -1.3341  0.2652
 3570TIP3    H234906   1.012   2.995  18.340 -0.0919  0.2614 -1.2263
 3571TIP3   OH234907   3.591   5.436  17.638 -0.3193 -0.0025 -0.0851
 3571TIP3    H134908   3.573   5.512  17.694 -0.7966 -0.6746  0.7192
 3571TIP3    H234909   3.524   5.440  17.570 -1.1154 -0.3248  0.6409
 3572TIP3   OH234910   0.262   0.004  20.055 -0.6868 -0.0492  0.0989
 3572TIP3    H134911   0.211   0.031  20.132 -0.3992 -1.0398  0.6664
 3572TIP3    H234912   0.207  -0.063  20.013 -0.4703 -0.1186 -0.0723
 3573TIP3   OH234913   4.379   6.681  19.588  0.5640  0.8168 -0.1642
 3573TIP3    H134914   4.442   6.609  19.578 -1.4535 -0.8600 -1.6159
 3573TIP3    H234915   4.409   6.747  19.525  2.3266  1.2412  1.0368
 3574TIP3   OH234916   4.747   2.596  18.816  0.4856  0.0601  0.0044
 3574TIP3    H134917   4.803   2.613  18.741  1.1967  1.3350  0.7858
 3574TIP3    H234918   4.658   2.596  18.781  0.9364 -2.8558 -1.4143
 3575TIP3   OH234919   0.554   4.653  18.996  0.6925 -0.4435 -0.8057
 3575TIP3    H134920   0.460   4.646  18.980  0.5890  0.3473 -0.6215
 3575TIP3    H234921   0.590   4.685  18.914  0.6023  0.5366 -0.4839
 3576TIP3   OH234922   2.878   0.170  19.853 -0.0558 -0.3419 -0.5469
 3576TIP3    H134923   2.865   0.262  19.876  1.1513 -0.8636  2.7732
 3576TIP3    H234924   2.935   0.172  19.776  0.7906  1.6695  0.0868
 3577TIP3   OH234925   1.438   3.846  18.658  0.0074 -0.2606 -0.2038
 3577TIP3    H134926   1.501   3.908  18.622 -1.6245  0.7045 -1.4985
 3577TIP3    H234927   1.392   3.811  18.582 -2.3096  0.4748  0.7891
 3578TIP3   OH234928   2.737   0.609  19.203  0.3237  0.4412 -0.0656
 3578TIP3    H134929   2.652   0.654  19.197  0.9697  1.7497  0.3002
 3578TIP3    H234930   2.751   0.574  19.115 -0.1008  1.1657 -0.4401
 3579TIP3   OH234931   2.810   2.061  19.624  0.1652  0.0913 -0.4091
 3579TIP3    H134932   2.715   2.056  19.611  0.3550 -1.8865 -1.3736
 3579TIP3    H234933   2.822   2.050  19.718 -0.5316 -0.3923 -0.3653
 3580TIP3   OH234934   1.270   6.722  19.456  0.3243  0.6610  0.0605
 3580TIP3    H134935   1.330   6.716  19.382  0.2997 -0.1424  0.0963
 3580TIP3    H234936   1.267   6.815  19.477 -0.6692  1.0868 -1.7547
 3581TIP3   OH234937   5.349   6.702  19.709  0.2980 -0.1693  0.0465
 3581TIP3    H134938   5.337   6.724  19.801  2.2775 -0.9438  0.5218
 3581TIP3    H234939   5.315   6.779  19.662  0.5944  0.8563  1.4433
 3582TIP3   OH234940   2.101   0.449  19.076 -0.5516 -1.0356 -0.1797
 3582TIP3    H134941   2.146   0.425  19.157  1.6895 -0.6448 -1.2490
 3582TIP3    H234942   2.126   0.381  19.014  1.4478  0.9941 -1.7432
 3583TIP3   OH234943   3.596   0.473  20.221 -0.0475  0.0482  0.3542
 3583TIP3    H134944   3.601   0.552  20.167 -0.4399  0.2096  0.5443
 3583TIP3    H234945   3.520   0.426  20.187  0.6154 -0.6197 -0.2376
 3584TIP3   OH234946   3.461   5.753  19.591 -0.0198  0.1821  0.0285
 3584TIP3    H134947   3.374   5.734  19.625  0.3756 -0.6735  0.5915
 3584TIP3    H234948   3.485   5.675  19.541 -0.7755  1.5703 -2.6811
 3585TIP3   OH234949   5.312   2.331  20.879  0.5624 -0.2699 -0.1631
 3585TIP3    H134950   5.258   2.289  20.813 -0.8192 -0.1125  0.8073
 3585TIP3    H234951   5.376   2.382  20.830 -0.3223 -0.2842 -1.3636
 3586TIP3   OH234952   4.430   2.520  19.612 -0.0753 -0.2346  0.3677
 3586TIP3    H134953   4.371   2.533  19.537  1.1802  1.2639 -0.4265
 3586TIP3    H234954   4.481   2.601  19.616  2.9382 -1.9864  0.1009
 3587TIP3   OH234955   2.455   1.879  18.908 -0.3930  0.2062  0.2675
 3587TIP3    H134956   2.425   1.830  18.831  0.4385  0.0791  0.0190
 3587TIP3    H234957   2.486   1.811  18.968  0.2638  0.3875  0.1397
 3588TIP3   OH234958   3.809   1.498  18.401  0.1442  0.3783 -0.6605
 3588TIP3    H134959   3.802   1.589  18.428  0.7954 -0.2474  1.8842
 3588TIP3    H234960   3.758   1.449  18.465  2.0590 -1.2721 -0.2597
 3589TIP3   OH234961   2.338   5.076  18.121 -0.3587  0.0101 -0.2728
 3589TIP3    H134962   2.341   5.156  18.069 -3.1118 -1.0321 -2.2842
 3589TIP3    H234963   2.360   5.007  18.059 -0.7406 -1.0243  0.7130
 3590TIP3   OH234964   6.058   5.091  18.335  0.1097 -0.1512 -0.2997
 3590TIP3    H134965   6.060   5.084  18.240  1.1682 -1.4330 -0.2139
 3590TIP3    H234966   6.112   5.018  18.366 -0.3692  0.1167  1.2906
 3591TIP3   OH234967   1.492   5.898  19.680 -0.0956  0.1661 -0.4037
 3591TIP3    H134968   1.484   5.984  19.720 -2.0549  0.5109 -1.4263
 3591TIP3    H234969   1.497   5.838  19.754  1.0954  1.1140  0.3251
 3592TIP3   OH234970   5.922   1.315  19.859 -0.1408  0.6429 -0.2254
 3592TIP3    H134971   5.986   1.307  19.929 -1.7705 -0.1753  1.2578
 3592TIP3    H234972   5.883   1.402  19.873 -0.3106  0.5709 -0.2472
 3593TIP3   OH234973   3.525   5.855  20.170 -0.6801  0.1639 -0.2648
 3593TIP3    H134974   3.591   5.853  20.101  0.6413 -2.6821  0.9246
 3593TIP3    H234975   3.538   5.774  20.219 -4.1816  0.1187  0.9197
 3594TIP3   OH234976   2.680   0.098  17.685  0.1274  0.4844  0.0126
 3594TIP3    H134977   2.617   0.170  17.681  0.5306  0.9413  1.3532
 3594TIP3    H234978   2.717   0.103  17.773  0.7909 -0.8417 -0.1617
 3595TIP3   OH234979   3.636   1.166  20.001 -0.3430  0.4786  0.5529
 3595TIP3    H134980   3.598   1.115  20.073  0.3664 -0.0912  0.5233
 3595TIP3    H234981   3.563   1.179  19.940 -0.5568 -0.3844  0.6200
 3596TIP3   OH234982   1.494   0.858  18.363 -0.3892 -0.2864 -0.3654
 3596TIP3    H134983   1.521   0.917  18.434  0.3246  0.9180 -1.5955
 3596TIP3    H234984   1.403   0.837  18.383 -0.0531 -0.4068  1.1775
 3597TIP3   OH234985   4.187   0.906  20.759 -0.7030 -0.0950  0.0396
 3597TIP3    H134986   4.142   0.970  20.813 -1.6869 -0.1981 -0.6172
 3597TIP3    H234987   4.242   0.857  20.820 -1.8632 -0.2888  0.9724
 3598TIP3   OH234988   0.284   4.949  20.063  0.6231  0.2113 -0.5770
 3598TIP3    H134989   0.322   4.877  20.113  1.1744 -0.4181 -1.8487
 3598TIP3    H234990   0.199   4.917  20.034  1.0614 -0.1321 -1.5323
 3599TIP3   OH234991   1.617   0.014  19.575  0.2496  0.3825 -0.0039
 3599TIP3    H134992   1.535  -0.023  19.542 -0.1004 -0.5146  1.7939
 3599TIP3    H234993   1.659   0.051  19.497 -1.7498  0.6775 -1.0048
 3600TIP3   OH234994   6.510   3.055  18.725 -0.1832 -0.3332  0.5801
 3600TIP3    H134995   6.602   3.078  18.741 -0.4499  1.7050 -0.5099
 3600TIP3    H234996   6.474   3.038  18.813  1.1267 -0.8654  1.0413
 3601TIP3   OH234997   0.015   3.883  20.179 -0.7843  0.1930  0.2495
 3601TIP3    H134998   0.063   3.804  20.155 -1.0756 -0.6324  2.2814
 3601TIP3    H234999  -0.065   3.852  20.220 -0.6009  1.5060  1.6956
 3602TIP3   OH235000   1.265   2.845  20.496  0.7154 -0.7857  0.2245
 3602TIP3    H135001   1.352   2.811  20.474  0.4767 -2.5706  1.8245
 3602TIP3    H235002   1.277   2.884  20.583 -0.3339 -2.2506  1.0643
 3603TIP3   OH235003   2.571   5.847  19.372 -0.7005 -0.2207 -0.6875
 3603TIP3    H135004   2.486   5.887  19.389 -0.4583 -0.6209  1.8344
 3603TIP3    H235005   2.550   5.764  19.330 -1.6004 -0.4891  0.2510
 3604TIP3   OH235006   3.352   2.086  18.790 -0.1636 -0.2236  0.1497
 3604TIP3    H135007   3.276   2.135  18.820  0.7084 -0.0074  2.1141
 3604TIP3    H235008   3.385   2.042  18.868  0.8353 -1.5482 -0.9743
 3605TIP3   OH235009   6.447   2.599  20.280  0.0293 -0.4216  0.2029
 3605TIP3    H135010   6.368   2.627  20.235  0.2988 -0.7978 -0.5237
 3605TIP3    H235011   6.489   2.680  20.308 -0.3238 -0.1984  0.0822
 3606TIP3   OH235012   0.758   2.002  16.627 -0.2255  0.2238 -0.0212
 3606TIP3    H135013   0.737   2.051  16.548  0.5645  1.1802  0.3344
 3606TIP3    H235014   0.851   2.019  16.642 -0.4284  0.3211  1.2873
 3607TIP3   OH235015   3.899   6.020  18.453 -0.0362  0.0938  0.3241
 3607TIP3    H135016   3.953   6.065  18.387 -1.9383 -0.0201 -1.4113
 3607TIP3    H235017   3.956   6.013  18.529  2.2708  0.2937 -1.2686
 3608TIP3   OH235018   4.570   5.052  18.923  0.3518 -0.2393 -0.2378
 3608TIP3    H135019   4.604   4.984  18.980 -0.2375  0.1359  0.5857
 3608TIP3    H235020   4.478   5.061  18.948 -0.0424 -0.3724 -1.5545
 3609TIP3   OH235021   1.888   1.585  18.978  0.3832 -0.1359 -0.6327
 3609TIP3    H135022   1.933   1.603  18.895 -1.3321 -1.0312 -1.8056
 3609TIP3    H235023   1.954   1.541  19.032  1.3031 -0.2402 -1.8104
 3610TIP3   OH235024   0.098   6.051  17.726  0.6988 -0.9191 -0.6539
 3610TIP3    H135025   0.184   6.015  17.706  1.5063  0.4330  0.2338
 3610TIP3    H235026   0.052   5.980  17.772  1.9670 -1.1113  0.3694
 3611TIP3   OH235027   3.297   1.856  17.853  0.2435  0.1934  0.0944
 3611TIP3    H135028   3.305   1.890  17.942  0.2827  0.5999 -0.0615
 3611TIP3    H235029   3.281   1.934  17.799  3.8618  0.4913 -0.7877
 3612TIP3   OH235030   3.806   0.236  20.836  0.1648  0.4098  0.2847
 3612TIP3    H135031   3.813   0.216  20.930  0.8349  0.4287  0.2397
 3612TIP3    H235032   3.775   0.327  20.834  1.2549  0.8044  0.5007
 3613TIP3   OH235033   5.119   4.536  20.756  0.3804 -0.5461 -0.5060
 3613TIP3    H135034   5.169   4.603  20.709  1.9424  0.2527  2.1233
 3613TIP3    H235035   5.181   4.464  20.768  0.1764 -0.5415  0.7054
 3614TIP3   OH235036   3.526   2.828  18.988  0.7086  0.5604 -0.4613
 3614TIP3    H135037   3.472   2.847  18.912  0.1392 -0.1900 -0.2527
 3614TIP3    H235038   3.564   2.742  18.969  2.3530  1.3433 -0.8969
 3615TIP3   OH235039   4.892   0.095  19.096  0.7918  0.0376  0.8043
 3615TIP3    H135040   4.941   0.164  19.052  1.5914 -1.3655 -0.5962
 3615TIP3    H235041   4.834   0.142  19.157  1.6224  1.8918  0.2379
 3616TIP3   OH235042   5.564   1.797  19.697 -0.6520  0.2558 -0.4833
 3616TIP3    H135043   5.526   1.850  19.626 -0.7866  0.6697 -0.1083
 3616TIP3    H235044   5.493   1.740  19.725 -1.0590  1.1354  0.3199
 3617TIP3   OH235045   5.524   4.240  19.199  0.4033  0.5601 -0.3191
 3617TIP3    H135046   5.484   4.156  19.175 -1.2253  0.7745  1.4514
 3617TIP3    H235047   5.561   4.273  19.117  0.6039 -1.6141 -1.1638
 3618TIP3   OH235048   1.077   3.945  18.052  0.3438  0.5715 -0.1474
 3618TIP3    H135049   1.014   3.874  18.061  1.3884 -0.2233  1.5100
 3618TIP3    H235050   1.138   3.914  17.985 -0.2566  0.7432 -0.7771
 3619TIP3   OH235051   3.444   1.968  19.036 -0.6727 -0.1388 -0.5878
 3619TIP3    H135052   3.372   1.992  19.095 -0.6565  0.5709 -0.8434
 3619TIP3    H235053   3.442   1.872  19.033  0.6241 -0.3538  2.1651
 3620TIP3   OH235054   4.274   0.522  20.409  0.5777  0.2519 -0.1122
 3620TIP3    H135055   4.251   0.430  20.423  1.1786  0.2720  1.1336
 3620TIP3    H235056   4.202   0.571  20.449  0.4470  0.3301 -0.4390
 3621TIP3   OH235057   2.440   6.062  19.200 -0.6613  0.0948 -0.9551
 3621TIP3    H135058   2.470   6.149  19.225 -0.1583 -0.1664 -0.6441
 3621TIP3    H235059   2.507   6.028  19.142 -1.3068  0.2692 -1.8308
 3622TIP3   OH235060   5.944   1.606  17.493  0.0590  0.5581 -0.0698
 3622TIP3    H135061   6.039   1.601  17.504 -0.0873 -0.9899  0.6742
 3622TIP3    H235062   5.914   1.515  17.494 -1.2463  0.8792 -2.1640
 3623TIP3   OH235063   3.516   3.282  18.185  0.8186 -0.4250  0.3904
 3623TIP3    H135064   3.444   3.257  18.243 -0.1909 -0.0259 -0.6436
 3623TIP3    H235065   3.550   3.200  18.151 -2.1109 -0.5963 -2.5622
 3624TIP3   OH235066   2.388   6.456  20.821 -0.0431  0.3895 -0.0860
 3624TIP3    H135067   2.301   6.495  20.806  0.2388  1.0503 -0.0338
 3624TIP3    H235068   2.417   6.429  20.735 -0.4088 -0.0827 -0.0695
 3625TIP3   OH235069   6.657   3.630  18.701 -0.1581  0.5177  0.2469
 3625TIP3    H135070   6.605   3.551  18.692  0.1790  0.2177  0.8827
 3625TIP3    H235071   6.599   3.701  18.673 -0.0588 -0.0546 -1.5808
 3626TIP3   OH235072   6.570   1.983  19.731  0.3222  0.4395 -0.7702
 3626TIP3    H135073   6.596   2.008  19.819  2.6989  0.5650 -1.4418
 3626TIP3    H235074   6.505   1.914  19.744  1.9756 -0.8687  1.1225
 3627TIP3   OH235075   0.583   2.626  18.531 -0.2379 -0.2350 -0.2039
 3627TIP3    H135076   0.548   2.659  18.614  0.2963  2.1332 -0.8622
 3627TIP3    H235077   0.632   2.547  18.556 -1.7239 -0.7090  1.4185
 3628TIP3   OH235078   2.103   6.484  20.516  0.5328  0.0028 -0.7763
 3628TIP3    H135079   2.036   6.425  20.483 -0.3929  0.9723 -0.6754
 3628TIP3    H235080   2.095   6.478  20.612 -0.5501  1.3617 -0.7639
 3629TIP3   OH235081   5.888   2.380  19.650  0.2806 -0.1971  0.0772
 3629TIP3    H135082   5.966   2.366  19.704  0.7533 -2.9876 -1.1403
 3629TIP3    H235083   5.922   2.423  19.571  0.4565 -0.5937 -0.0675
 3630TIP3   OH235084   0.953   1.175  18.144  0.3202  0.1522  0.1814
 3630TIP3    H135085   0.893   1.245  18.119 -1.4218 -0.9492  1.0318
 3630TIP3    H235086   1.011   1.164  18.069 -1.3840  0.4301 -1.2283
 3631TIP3   OH235087   5.743   6.392  20.332  0.0310  0.1959 -0.0019
 3631TIP3    H135088   5.670   6.408  20.391 -0.0956 -0.8093  0.1304
 3631TIP3    H235089   5.772   6.304  20.353  0.9138  0.3637 -0.4590
 3632TIP3   OH235090   2.414   2.437  19.072  0.3451 -0.0517  0.0647
 3632TIP3    H135091   2.465   2.439  19.153 -0.9951 -0.9827  0.9734
 3632TIP3    H235092   2.401   2.343  19.055  0.5137  0.1404 -1.1753
 3633TIP3   OH235093   2.737   6.187  19.565  0.7491 -0.2914 -0.1211
 3633TIP3    H135094   2.728   6.281  19.546  0.5534 -0.0861  0.9021
 3633TIP3    H235095   2.823   6.163  19.531  1.0486  0.3995  0.1349
 3634TIP3   OH235096   0.926   3.690  18.021  0.2869 -0.3484  0.1780
 3634TIP3    H135097   0.952   3.695  18.113 -2.1367  0.3068  0.9134
 3634TIP3    H235098   0.879   3.607  18.014 -0.1568 -0.0646 -0.2800
 3635TIP3   OH235099   2.167   0.416  20.513 -0.1901 -0.3478  0.1878
 3635TIP3    H135100   2.090   0.368  20.482 -0.5655 -0.6079  1.4747
 3635TIP3    H235101   2.175   0.490  20.453 -1.7904 -0.0031  0.3693
 3636TIP3   OH235102   0.095   3.303  17.628 -0.0449 -1.1752  0.0108
 3636TIP3    H135103   0.028   3.368  17.609  0.9161 -0.2432 -0.3405
 3636TIP3    H235104   0.068   3.224  17.582 -0.4393 -0.5410 -0.8586
 3637TIP3   OH235105   1.757   5.845  17.718 -0.2867  0.4287  0.5288
 3637TIP3    H135106   1.709   5.762  17.715  2.3178 -1.2271  1.1942
 3637TIP3    H235107   1.813   5.843  17.640  0.5456  1.0829  1.0982
 3638TIP3   OH235108   5.646   1.816  20.581 -0.3004  0.1476  0.2057
 3638TIP3    H135109   5.620   1.724  20.574 -1.0710  0.4391 -1.2313
 3638TIP3    H235110   5.581   1.854  20.639 -1.4744  0.2690 -1.1335
 3639TIP3   OH235111   2.739   1.896  17.555 -0.2945 -0.2600 -0.0145
 3639TIP3    H135112   2.801   1.823  17.557 -0.5925 -0.5070  0.4311
 3639TIP3    H235113   2.773   1.955  17.488  1.0875  0.2169  1.0634
 3640TIP3   OH235114   2.338   2.309  19.711 -0.0735  0.7276  0.0389
 3640TIP3    H135115   2.309   2.238  19.655 -1.1317 -0.2534  1.7535
 3640TIP3    H235116   2.405   2.354  19.660  0.4427 -1.3275 -1.1964
 3641TIP3   OH235117   4.632   4.922  19.804 -0.1537 -0.2801 -0.1758
 3641TIP3    H135118   4.638   4.906  19.709 -0.3999 -1.3976 -0.0154
 3641TIP3    H235119   4.636   4.835  19.843  3.2176  0.3011  1.0557
 3642TIP3   OH235120   3.444   3.462  18.430 -0.3412  0.1258  0.2953
 3642TIP3    H135121   3.442   3.367  18.419 -0.5902  0.3645 -2.3226
 3642TIP3    H235122   3.351   3.488  18.428 -0.2761  0.4412  0.9976
 3643TIP3   OH235123   5.813   1.152  19.026 -0.8720 -0.5345 -0.4389
 3643TIP3    H135124   5.867   1.093  19.079  0.6277 -0.0274 -1.3449
 3643TIP3    H235125   5.776   1.214  19.089  0.7398 -0.0461  0.0629
 3644TIP3   OH235126   6.035   6.423  20.315  0.3460 -0.3156 -0.5289
 3644TIP3    H135127   6.039   6.415  20.410  1.4019 -0.3624 -0.5618
 3644TIP3    H235128   5.942   6.420  20.294  0.1359 -1.1547  0.4322
 3645TIP3   OH235129   3.863   1.452  20.498  0.1736  0.1200  0.6899
 3645TIP3    H135130   3.904   1.374  20.535 -0.4469  0.1933  1.5856
 3645TIP3    H235131   3.878   1.446  20.404  0.3316 -0.9598  0.7780
 3646TIP3   OH235132   2.025   3.117  20.345 -0.2335  0.1479 -0.0592
 3646TIP3    H135133   1.932   3.109  20.369  0.1509  0.4640  1.7010
 3646TIP3    H235134   2.042   3.041  20.290 -1.3721 -0.3109  0.1809
 3647TIP3   OH235135   5.783   4.425  19.126 -0.5629 -0.2954 -0.4381
 3647TIP3    H135136   5.771   4.381  19.042 -0.9651  0.6335 -0.8807
 3647TIP3    H235137   5.720   4.497  19.125 -1.8295 -1.2656  1.3905
 3648TIP3   OH235138   2.320   5.757  18.501  0.0162 -0.2103 -0.2723
 3648TIP3    H135139   2.257   5.703  18.549 -0.0378 -1.5718 -1.7979
 3648TIP3    H235140   2.287   5.758  18.412  1.8524 -0.4677 -0.9934
 3649TIP3   OH235141   2.921   0.185  20.215 -0.3425  0.3716  0.5634
 3649TIP3    H135142   2.977   0.112  20.189 -0.6928  0.4026 -0.3245
 3649TIP3    H235143   2.832   0.150  20.211 -0.4470  0.5634  1.1331
 3650TIP3   OH235144   0.687   2.935  20.107 -0.3707  0.3657  0.1126
 3650TIP3    H135145   0.647   2.884  20.178  0.0590  0.6041  0.5306
 3650TIP3    H235146   0.775   2.957  20.139  0.8109 -1.6481 -1.4726
 3651TIP3   OH235147   1.502   3.554  18.697  0.1515  0.0056 -0.2645
 3651TIP3    H135148   1.412   3.571  18.725  0.1640  0.6973 -0.6017
 3651TIP3    H235149   1.526   3.632  18.646  0.6268 -0.5675 -0.9386
 3652TIP3   OH235150   2.090   0.715  17.680  0.0162 -0.0312  0.7702
 3652TIP3    H135151   2.045   0.643  17.636 -0.2507  0.7089 -0.2188
 3652TIP3    H235152   2.173   0.724  17.632 -1.0674  1.9862 -0.8939
 3653TIP3   OH235153   0.232   1.842  18.805  0.3298  0.0653  0.1901
 3653TIP3    H135154   0.314   1.806  18.773 -0.5671 -0.7039 -1.3527
 3653TIP3    H235155   0.169   1.823  18.736 -1.6826 -1.4284  2.2682
 3654TIP3   OH235156   2.279   3.742  19.397 -0.2338 -0.9319 -0.1620
 3654TIP3    H135157   2.184   3.757  19.391 -0.2235 -1.2586 -1.3466
 3654TIP3    H235158   2.301   3.693  19.318  1.2719  0.9538 -0.9921
 3655TIP3   OH235159   0.263   4.481  19.099 -0.1212  0.4942 -0.2915
 3655TIP3    H135160   0.248   4.462  19.191 -1.8073  0.4719 -0.5426
 3655TIP3    H235161   0.214   4.413  19.052 -0.9022  1.6335 -1.1919
 3656TIP3   OH235162   6.408   4.206  19.158 -0.6109  0.7316  0.1741
 3656TIP3    H135163   6.326   4.183  19.113  0.9954 -2.6600 -1.4177
 3656TIP3    H235164   6.411   4.147  19.234  0.4515  0.6349  0.0712
 3657TIP3   OH235165   5.801   0.066  20.871 -0.0596  0.4407  0.5034
 3657TIP3    H135166   5.723   0.016  20.892 -0.0759 -0.1877 -0.8970
 3657TIP3    H235167   5.874   0.010  20.897 -0.0859  0.2872  0.2564
 3658TIP3   OH235168   2.075   2.060  18.899  0.3550  0.3623 -0.4505
 3658TIP3    H135169   1.996   2.090  18.854 -0.1316  1.8048  1.2274
 3658TIP3    H235170   2.046   1.986  18.952  0.4065  0.1552 -0.7071
 3659TIP3   OH235171   5.290   5.305  20.480  0.4542 -0.4572  0.4378
 3659TIP3    H135172   5.278   5.289  20.574  0.8037 -1.0957  0.3822
 3659TIP3    H235173   5.362   5.247  20.456  1.4510  0.9014  0.0996
 3660TIP3   OH235174   3.572   4.652  19.677 -0.2650 -0.6708 -0.0753
 3660TIP3    H135175   3.637   4.587  19.704  1.5863  1.3832  0.6756
 3660TIP3    H235176   3.623   4.730  19.655 -2.4883  1.2176  0.9883
 3661TIP3   OH235177   3.596   2.150  18.567 -0.3324  0.0483 -0.5312
 3661TIP3    H135178   3.643   2.124  18.488  1.3505  1.4034 -0.0483
 3661TIP3    H235179   3.665   2.180  18.627 -1.5086 -1.3864  1.6553
 3662TIP3   OH235180   0.764   4.035  18.967 -0.3127 -0.6155  0.3140
 3662TIP3    H135181   0.832   4.053  18.902  1.2174  1.3149  2.3026
 3662TIP3    H235182   0.811   3.993  19.040 -1.7596 -1.6536  0.6906
 3663TIP3   OH235183   6.240   4.960  20.767  0.0438 -0.1256  0.2317
 3663TIP3    H135184   6.157   5.005  20.780  0.2105 -0.4494  2.8713
 3663TIP3    H235185   6.306   5.027  20.784  0.3448 -0.1842 -0.6407
 3664TIP3   OH235186   5.807   5.844  18.630  0.1373 -0.1183  0.2743
 3664TIP3    H135187   5.768   5.927  18.605  0.1408  0.2654  1.4839
 3664TIP3    H235188   5.830   5.855  18.723  1.1639 -1.0702  0.1554
 3665TIP3   OH235189   1.343   0.544  17.479  0.0276  0.1605  0.6905
 3665TIP3    H135190   1.346   0.485  17.554  0.2570 -1.1878 -0.3234
 3665TIP3    H235191   1.434   0.551  17.451  0.1224  1.7033  1.2839
 3666TIP3   OH235192   0.300   6.363  17.230  0.1475 -0.0518  0.1020
 3666TIP3    H135193   0.265   6.357  17.141 -1.9057  0.4385  0.8116
 3666TIP3    H235194   0.298   6.456  17.250  1.4496 -0.0686  0.3713
 3667TIP3   OH235195   6.471   1.922  18.142  0.3215 -0.1553 -0.5504
 3667TIP3    H135196   6.564   1.912  18.122  0.1416 -0.5041 -1.2244
 3667TIP3    H235197   6.435   1.834  18.138  0.1862 -0.1858  0.9070
 3668TIP3   OH235198   2.120   5.312  19.816 -0.3375 -0.1014  0.4476
 3668TIP3    H135199   2.183   5.286  19.883 -0.0619 -2.5445 -0.6192
 3668TIP3    H235200   2.048   5.250  19.827 -0.3560 -0.4541 -1.3313
 3669TIP3   OH235201   1.420   0.194  19.296  0.4299 -0.2517 -0.0538
 3669TIP3    H135202   1.483   0.195  19.224  1.3599  0.3953  0.7324
 3669TIP3    H235203   1.388   0.284  19.300 -0.9482 -0.6832 -0.7583
 3670TIP3   OH235204   3.076   0.613  16.899  0.0543  0.7513  0.8010
 3670TIP3    H135205   3.070   0.707  16.878  0.7647  0.8278  0.8891
 3670TIP3    H235206   2.992   0.577  16.873 -0.6123  1.5990  1.6900
 3671TIP3   OH235207   3.444   6.193  19.136  0.2296  0.4779 -0.4376
 3671TIP3    H135208   3.479   6.271  19.179 -1.9596 -0.0016  2.5904
 3671TIP3    H235209   3.357   6.219  19.105  0.1513 -0.2993 -0.9142
 3672TIP3   OH235210   0.815   1.322  19.937 -0.4204 -0.1824 -0.2460
 3672TIP3    H135211   0.846   1.231  19.945  0.1080  0.0011 -0.1997
 3672TIP3    H235212   0.891   1.371  19.907 -0.2782  0.5143  1.1559
 3673TIP3   OH235213   0.700   3.242  20.135 -0.1183 -0.0371 -0.1238
 3673TIP3    H135214   0.635   3.247  20.065 -0.6408 -1.1300  0.2617
 3673TIP3    H235215   0.784   3.237  20.091 -0.3991 -0.0874 -0.6564
 3674TIP3   OH235216   0.855   6.444  18.387 -0.6944 -0.1562  0.0794
 3674TIP3    H135217   0.873   6.383  18.315 -0.1805 -0.5821  0.5547
 3674TIP3    H235218   0.798   6.510  18.349 -2.2412 -1.5583 -0.1760
 3675TIP3   OH235219   1.378   6.211  17.840 -0.2582 -0.8079  0.2165
 3675TIP3    H135220   1.422   6.273  17.898  0.0105 -0.6846 -0.1183
 3675TIP3    H235221   1.382   6.252  17.754 -1.2919 -0.6492  0.2263
 3676TIP3   OH235222   6.548   2.368  20.545 -0.2381 -0.4885  0.8591
 3676TIP3    H135223   6.593   2.406  20.470 -1.0735 -1.3429 -0.0996
 3676TIP3    H235224   6.588   2.282  20.556  0.6787  0.0637  2.1460
 3677TIP3   OH235225   5.145   6.650  20.880 -1.2234  0.2216  0.0263
 3677TIP3    H135226   5.052   6.658  20.858 -1.3924  0.3177  0.7505
 3677TIP3    H235227   5.152   6.689  20.967 -0.3025  1.2543 -0.4831
 3678TIP3   OH235228   1.962   2.068  17.123  0.4342  0.5399 -0.2549
 3678TIP3    H135229   1.941   2.088  17.031  0.0656  0.0010 -0.2904
 3678TIP3    H235230   1.928   1.980  17.136  1.4597  0.1839  0.0849
 3679TIP3   OH235231   2.471   0.776  19.204 -0.2241 -0.3078  0.0351
 3679TIP3    H135232   2.504   0.853  19.157 -1.2420  0.5520  0.7023
 3679TIP3    H235233   2.395   0.748  19.153 -0.9240  0.2171  0.7758
 3680TIP3   OH235234   4.590   0.396  20.743 -0.2013  0.4039  0.3013
 3680TIP3    H135235   4.517   0.390  20.680  1.2091 -1.4777 -1.2707
 3680TIP3    H235236   4.643   0.319  20.725  0.3325 -0.2071  3.8503
 3681TIP3   OH235237   0.957   3.121  19.477  0.5153  0.6017 -0.1346
 3681TIP3    H135238   0.968   3.122  19.381 -1.1097  0.7411 -0.3494
 3681TIP3    H235239   0.862   3.126  19.490  0.6068 -1.0400  1.4732
 3682TIP3   OH235240   4.826   4.159  20.282  0.1185 -0.0300  0.5837
 3682TIP3    H135241   4.904   4.125  20.239  1.0797  1.2994  1.1997
 3682TIP3    H235242   4.806   4.095  20.350  1.3364  0.1551  1.1313
 3683TIP3   OH235243   5.054   4.836  19.543  0.0526  0.3124  0.0816
 3683TIP3    H135244   5.053   4.827  19.639 -0.7194 -1.3651 -0.0515
 3683TIP3    H235245   5.129   4.892  19.525  1.3328 -0.8345  1.5729
 3684TIP3   OH235246   5.370   2.178  20.564 -0.1238  0.3612 -0.1086
 3684TIP3    H135247   5.334   2.260  20.597  1.3084  1.5404 -1.3645
 3684TIP3    H235248   5.438   2.204  20.503 -0.3953 -1.7658 -1.4306
 3685TIP3   OH235249   5.290   6.618  18.191 -0.0965 -0.3987  1.0421
 3685TIP3    H135250   5.232   6.542  18.197 -1.8154  0.5665 -1.4100
 3685TIP3    H235251   5.231   6.693  18.180  1.5806  0.9863  0.9130
 3686TIP3   OH235252   1.266   4.819  19.322 -0.2717 -0.0201  0.1714
 3686TIP3    H135253   1.325   4.894  19.313  1.5879 -1.5741 -1.4073
 3686TIP3    H235254   1.178   4.857  19.319  0.6121  2.0848 -0.6019
 3687TIP3   OH235255   3.332   4.290  20.600  0.2595 -0.1760  0.1624
 3687TIP3    H135256   3.342   4.373  20.553 -2.4109  2.1425  3.2499
 3687TIP3    H235257   3.402   4.291  20.665 -0.7477  0.5614  1.2765
 3688TIP3   OH235258   6.119   1.611  17.809 -0.6402 -0.1369 -0.0923
 3688TIP3    H135259   6.051   1.671  17.780  0.0967  0.6525 -0.2186
 3688TIP3    H235260   6.172   1.594  17.731  0.2502  0.5261  0.3618
 3689TIP3   OH235261   0.160   5.525  20.709 -0.5000  0.0184 -0.3847
 3689TIP3    H135262   0.135   5.584  20.639  1.9152  0.5728 -0.8673
 3689TIP3    H235263   0.159   5.438  20.669  3.1950  0.5178 -2.0211
 3690TIP3   OH235264   3.629   1.344  17.543  0.1994 -0.2094  0.0953
 3690TIP3    H135265   3.601   1.277  17.607 -0.8725 -0.3092 -0.4428
 3690TIP3    H235266   3.568   1.333  17.470  0.6165  0.7356 -0.4084
 3691TIP3   OH235267   4.189   0.314  18.040 -0.1036 -0.1486 -0.0373
 3691TIP3    H135268   4.178   0.307  17.945 -0.7878  0.7982 -0.0434
 3691TIP3    H235269   4.245   0.240  18.063  0.0522 -0.4065 -1.1741
 3692TIP3   OH235270   5.872   2.335  18.653 -0.4238  0.5408  0.4368
 3692TIP3    H135271   5.942   2.379  18.701 -1.0721  1.4938  0.5520
 3692TIP3    H235272   5.880   2.367  18.563  0.3981 -0.7521  0.0409
 3693TIP3   OH235273   6.224   6.398  18.971 -0.1551 -0.4314  0.1424
 3693TIP3    H135274   6.174   6.402  18.889 -0.2686 -3.5720 -0.0946
 3693TIP3    H235275   6.311   6.429  18.948 -1.0274  1.8537 -0.2921
 3694TIP3   OH235276   4.586   0.902  17.902 -0.6788 -0.2943  0.1597
 3694TIP3    H135277   4.599   0.884  17.808  0.0890 -1.4506  0.4749
 3694TIP3    H235278   4.492   0.915  17.911 -0.7184  0.2413 -0.8353
 3695TIP3   OH235279   6.021   0.299  17.673 -0.3607  0.6046  0.2516
 3695TIP3    H135280   5.991   0.375  17.723  1.8470  0.1630  2.3752
 3695TIP3    H235281   6.066   0.336  17.597  0.5925  1.4599  1.2054
 3696TIP3   OH235282   6.660   0.469  18.905 -0.0054  0.0299 -0.1076
 3696TIP3    H135283   6.687   0.561  18.899  0.6253 -0.1319  0.2291
 3696TIP3    H235284   6.674   0.445  18.996 -0.0638 -0.4363 -0.2174
 3697TIP3   OH235285   4.217   1.580  17.809 -0.1442 -0.2828  0.4422
 3697TIP3    H135286   4.187   1.540  17.892  0.6108 -0.1578  0.7855
 3697TIP3    H235287   4.233   1.505  17.752  1.6912 -0.5442  1.2306
 3698TIP3   OH235288   5.703   3.614  18.681 -0.1237  0.1127  0.8792
 3698TIP3    H135289   5.736   3.664  18.756 -1.3169  0.8739  0.9338
 3698TIP3    H235290   5.607   3.617  18.691 -0.2712 -0.4834 -0.2273
 3699TIP3   OH235291   0.982   4.036  19.664  0.3180  0.1212  0.0719
 3699TIP3    H135292   0.890   4.019  19.644  0.3047  0.0753  0.1711
 3699TIP3    H235293   0.992   4.130  19.654 -0.1098  0.3581  1.5552
 3700TIP3   OH235294   6.284   1.275  18.367  0.0387  0.3257 -0.2616
 3700TIP3    H135295   6.192   1.301  18.375 -0.0042  0.4852 -1.2002
 3700TIP3    H235296   6.324   1.303  18.450 -0.3510  1.9952 -0.5889
 3701TIP3   OH235297   4.324   0.966  20.174  0.7072 -0.1194 -0.6045
 3701TIP3    H135298   4.390   1.012  20.227 -0.7821  0.1827  1.0961
 3701TIP3    H235299   4.250   1.027  20.170  0.3556 -0.6064 -2.1216
 3702TIP3   OH235300   0.715   2.608  19.894  0.1579 -0.1478  0.3101
 3702TIP3    H135301   0.625   2.636  19.911  1.0111  3.5613 -0.2717
 3702TIP3    H235302   0.760   2.621  19.978  0.7283  1.0454 -0.1558
 3703TIP3   OH235303   5.357   5.253  18.906  0.1010 -0.1838  0.0463
 3703TIP3    H135304   5.396   5.166  18.911 -1.4909 -0.8365  2.4497
 3703TIP3    H235305   5.433   5.313  18.905  1.3014 -1.5039 -3.8012
 3704TIP3   OH235306   3.691   4.599  19.390  0.2706 -0.2575 -0.0552
 3704TIP3    H135307   3.722   4.686  19.413  0.1371 -0.1054 -0.4299
 3704TIP3    H235308   3.711   4.545  19.466  0.2948  0.1150  0.2065
 3705TIP3   OH235309   4.838   4.404  19.180 -0.2996 -0.0044 -0.0618
 3705TIP3    H135310   4.812   4.426  19.091 -1.4944  0.5158  0.3801
 3705TIP3    H235311   4.921   4.450  19.193  0.1425 -0.5014 -1.0562
 3706TIP3   OH235312   4.516   3.546  19.867 -0.5608  0.3889 -0.4006
 3706TIP3    H135313   4.430   3.514  19.893 -0.5072 -0.4957 -1.2475
 3706TIP3    H235314   4.567   3.467  19.851  0.5282  0.9047  0.4258
 3707TIP3   OH235315   0.320   1.448  17.470  0.0403 -0.0970 -0.3684
 3707TIP3    H135316   0.366   1.520  17.427  1.4715  0.4420  1.9439
 3707TIP3    H235317   0.231   1.452  17.434  0.6981  1.3363 -1.9845
 3708TIP3   OH235318   0.831   5.626  20.337 -0.1673  0.4150  0.8304
 3708TIP3    H135319   0.848   5.707  20.385 -0.7261  0.0783  1.6233
 3708TIP3    H235320   0.738   5.609  20.352 -0.5401  0.6760 -0.9861
 3709TIP3   OH235321   4.033   2.411  18.163  0.6582  0.5262  0.4074
 3709TIP3    H135322   4.049   2.320  18.140  0.2908  0.0846  1.8393
 3709TIP3    H235323   4.101   2.433  18.227 -0.0206  0.8479  1.0409
 3710TIP3   OH235324   4.394   1.339  18.430 -0.0182  0.3921 -0.2565
 3710TIP3    H135325   4.338   1.388  18.491 -0.3678 -0.3634  0.0512
 3710TIP3    H235326   4.342   1.261  18.409  1.1141 -0.5798  0.4291
 3711TIP3   OH235327   0.327   6.088  19.102 -0.4357 -0.0064 -0.0522
 3711TIP3    H135328   0.344   6.171  19.058  3.8674 -0.5163  0.1921
 3711TIP3    H235329   0.403   6.034  19.080 -2.2030 -3.2948  1.2157
 3712TIP3   OH235330   0.549   3.006  18.275  0.7768  0.1400 -0.8667
 3712TIP3    H135331   0.494   2.940  18.317 -1.1001  2.9792  1.6013
 3712TIP3    H235332   0.638   2.979  18.296  0.0446 -1.1891  0.7892
 3713TIP3   OH235333   2.537   3.866  20.121  0.0750  0.2328  0.1524
 3713TIP3    H135334   2.466   3.856  20.185 -1.2549 -2.0775 -1.5098
 3713TIP3    H235335   2.498   3.915  20.049  0.0340 -1.1838 -0.8406
 3714TIP3   OH235336   2.281   2.353  18.476  0.0475  0.4506 -0.0678
 3714TIP3    H135337   2.243   2.283  18.423  1.0517 -0.0742 -0.1346
 3714TIP3    H235338   2.369   2.364  18.440  0.1588  1.2406  0.4261
 3715TIP3   OH235339   5.384   2.535  18.105 -0.3451  0.4397  0.1778
 3715TIP3    H135340   5.427   2.620  18.110  3.7914 -1.4643  1.8612
 3715TIP3    H235341   5.359   2.516  18.196 -2.8022  0.4365 -0.4217
 3716TIP3   OH235342   3.469   3.491  17.723  0.2824 -0.1347  0.3028
 3716TIP3    H135343   3.511   3.572  17.693 -0.2499 -0.3409 -1.0734
 3716TIP3    H235344   3.379   3.517  17.744  0.1857 -0.3182  0.1182
 3717TIP3   OH235345   2.813   4.201  17.720 -0.2490 -0.2339 -0.2172
 3717TIP3    H135346   2.821   4.296  17.723 -1.8404 -0.0716 -0.4781
 3717TIP3    H235347   2.840   4.177  17.631 -1.4050  0.1504 -0.6799
 3718TIP3   OH235348   0.666   4.386  18.545 -0.5009  0.5447 -0.0973
 3718TIP3    H135349   0.676   4.391  18.640  3.1200 -0.0082 -0.3259
 3718TIP3    H235350   0.669   4.477  18.515 -0.9928  0.6746  0.2285
 3719TIP3   OH235351   6.350   1.846  19.810 -0.5537 -0.0793  0.2210
 3719TIP3    H135352   6.302   1.770  19.776 -1.0661  0.2240  0.2495
 3719TIP3    H235353   6.314   1.859  19.898  0.9123 -0.9925  0.9938
 3720TIP3   OH235354   4.421   3.362  18.532  0.5738 -0.1350 -0.3658
 3720TIP3    H135355   4.328   3.356  18.557  1.1156 -1.2459  1.6252
 3720TIP3    H235356   4.424   3.327  18.443 -0.6552 -2.1531  0.3190
 3721TIP3   OH235357   1.467   1.567  19.901  0.0014 -0.2829 -0.1788
 3721TIP3    H135358   1.396   1.609  19.951 -1.9948 -1.8923 -1.4875
 3721TIP3    H235359   1.539   1.559  19.964 -0.9070  1.4769  1.1948
 3722TIP3   OH235360   4.253   1.969  20.949  0.1903  0.2977 -0.1458
 3722TIP3    H135361   4.216   1.924  20.873  1.1946  1.2917 -1.2402
 3722TIP3    H235362   4.195   2.043  20.964  1.6611  1.8888 -1.8983
 3723TIP3   OH235363   3.354   2.465  19.708  0.5029  0.1958 -0.3490
 3723TIP3    H135364   3.335   2.557  19.690  1.1153  0.4081  0.0664
 3723TIP3    H235365   3.442   2.465  19.745  0.0310 -0.4093  0.8590
 3724TIP3   OH235366   0.465   0.736  19.017 -0.1117 -0.3741  0.3615
 3724TIP3    H135367   0.435   0.811  18.967 -0.0385 -0.9421 -0.5696
 3724TIP3    H235368   0.537   0.770  19.071  0.7690 -0.0180 -0.9774
 3725TIP3   OH235369   4.447   0.736  20.810  0.2731 -0.8306  0.2905
 3725TIP3    H135370   4.461   0.829  20.824 -0.8318 -0.2680 -1.9095
 3725TIP3    H235371   4.534   0.700  20.796  0.6872 -0.0903  0.9308
 3726TIP3   OH235372   0.071   2.628  17.860  0.0889  0.2979  0.2179
 3726TIP3    H135373   0.026   2.546  17.879  0.5586 -0.0069  0.0152
 3726TIP3    H235374   0.153   2.622  17.909 -0.0352  0.8004  0.4907
 3727TIP3   OH235375   0.801   1.676  20.509  0.5062 -0.3740 -0.2217
 3727TIP3    H135376   0.812   1.758  20.556 -1.8757 -1.3962  2.4045
 3727TIP3    H235377   0.867   1.618  20.546  2.5769  0.3382 -2.4746
 3728TIP3   OH235378   3.871   4.190  18.318 -0.2579  0.0922 -0.1347
 3728TIP3    H135379   3.958   4.156  18.340 -0.6722  0.1579  1.8005
 3728TIP3    H235380   3.884   4.240  18.237  1.0841 -1.5631 -0.9917
 3729TIP3   OH235381   1.542   3.930  19.944  0.5425  0.2948 -0.0494
 3729TIP3    H135382   1.594   3.911  20.022 -0.6391 -0.0030  0.6816
 3729TIP3    H235383   1.466   3.873  19.951 -1.1361  2.4310  0.1879
 3730TIP3   OH235384   5.086   5.732  19.510  0.1723 -0.1275  0.0754
 3730TIP3    H135385   5.005   5.682  19.504 -0.0003 -0.0104  1.1945
 3730TIP3    H235386   5.141   5.698  19.440 -0.5176 -0.8150 -0.1388
 3731TIP3   OH235387   4.658   1.660  17.983  0.5312  0.5926 -0.0623
 3731TIP3    H135388   4.585   1.632  18.037  0.9965  0.6254  0.6030
 3731TIP3    H235389   4.688   1.742  18.023  0.0899  1.2931 -1.1304
 3732TIP3   OH235390   3.944   4.936  20.004  0.0905 -0.0571 -0.0324
 3732TIP3    H135391   3.934   4.841  19.998 -0.1523  0.0332 -1.3496
 3732TIP3    H235392   4.032   4.949  20.040 -0.0838 -0.7745  0.6652
 3733TIP3   OH235393   3.006   3.919  20.596  0.3769  0.0747 -0.0794
 3733TIP3    H135394   3.041   3.999  20.635  0.2190  0.8534 -1.4836
 3733TIP3    H235395   3.034   3.922  20.505 -1.8058 -0.1580 -0.8077
 3734TIP3   OH235396   2.110   3.978  18.781  0.3859  0.5337  0.6684
 3734TIP3    H135397   2.033   3.924  18.798  0.2836  0.4424 -0.0662
 3734TIP3    H235398   2.095   4.058  18.831  0.3176  0.0810  1.3869
 3735TIP3   OH235399   3.930   5.351  19.422  0.2074  0.3246  0.0341
 3735TIP3    H135400   4.005   5.296  19.400  2.4593  2.5452  1.5538
 3735TIP3    H235401   3.859   5.289  19.440  2.3268 -2.0410  0.8476
 3736TIP3   OH235402   3.632   4.364  19.031  0.3774  0.1803  0.9044
 3736TIP3    H135403   3.550   4.317  19.043  1.4509 -2.3976 -0.9280
 3736TIP3    H235404   3.609   4.440  18.977 -0.8683 -0.3003  0.7276
 3737TIP3   OH235405   1.921   4.339  19.933 -0.0399 -0.4822 -0.5878
 3737TIP3    H135406   2.000   4.391  19.921 -1.2869  1.3042 -1.4336
 3737TIP3    H235407   1.923   4.275  19.862  1.1017 -1.1287 -0.0136
 3738TIP3   OH235408   3.680   2.602  18.415  0.2265  0.2795 -0.7257
 3738TIP3    H135409   3.703   2.532  18.354  0.7770 -0.6302  0.4805
 3738TIP3    H235410   3.619   2.561  18.476  1.7099  0.3614  0.9016
 3739TIP3   OH235411   0.323   6.498  18.800 -0.0692 -0.0663  0.4148
 3739TIP3    H135412   0.327   6.592  18.819 -0.1644 -0.0433  0.3217
 3739TIP3    H235413   0.348   6.456  18.882  4.0473  0.0748 -0.5793
 3740TIP3   OH235414   2.089   5.317  19.516  0.3545  0.0889 -0.0260
 3740TIP3    H135415   2.116   5.288  19.603 -0.5864 -0.3813  0.1188
 3740TIP3    H235416   2.047   5.402  19.531 -0.8728 -0.5356  0.1490
 3741TIP3   OH235417   2.177   1.532  19.424  0.3336 -0.0175  0.0769
 3741TIP3    H135418   2.120   1.606  19.444  0.0352 -0.3885  0.6281
 3741TIP3    H235419   2.143   1.461  19.477  1.0668 -0.3578  0.1025
 3742TIP3   OH235420   5.439   2.894  20.597  0.0904 -0.0346  0.6374
 3742TIP3    H135421   5.427   2.819  20.656  0.9629  0.3099  1.2773
 3742TIP3    H235422   5.484   2.857  20.521  2.3669  0.1581  1.8139
 3743TIP3   OH235423   1.851   0.046  19.365  0.5046  0.6271  0.1573
 3743TIP3    H135424   1.831   0.071  19.274  0.0358  0.3997  0.1946
 3743TIP3    H235425   1.903  -0.034  19.356  0.1918  0.4248  0.0880
 3744TIP3   OH235426   5.991   6.707  18.317  0.5693 -0.3762  0.1560
 3744TIP3    H135427   5.932   6.639  18.284  1.0836 -0.3273 -0.9271
 3744TIP3    H235428   6.047   6.728  18.242  0.3534  1.3244  0.4357
 3745TIP3   OH235429   6.170   0.790  16.800 -0.0245  0.5079  0.4733
 3745TIP3    H135430   6.253   0.810  16.756 -1.2523  2.3211 -1.1886
 3745TIP3    H235431   6.162   0.695  16.795  1.7284  0.3319  0.2903
 3746TIP3   OH235432   5.705   0.309  20.012 -0.2309 -0.2726  0.5058
 3746TIP3    H135433   5.790   0.339  19.978 -0.3419  0.4584  0.8422
 3746TIP3    H235434   5.725   0.226  20.056 -0.1666 -1.4783 -1.6650
 3747TIP3   OH235435   0.757   3.386  18.427  0.2240  0.0580  0.0264
 3747TIP3    H135436   0.839   3.345  18.455 -0.1367 -0.7406 -0.0782
 3747TIP3    H235437   0.716   3.414  18.509 -0.1234 -0.9343  0.2018
 3748TIP3   OH235438   1.815   6.394  19.837  0.8167 -0.1449 -0.0634
 3748TIP3    H135439   1.810   6.435  19.751 -1.4209  0.3393  0.2317
 3748TIP3    H235440   1.829   6.467  19.897  1.4609 -0.3853  0.0926
 3749TIP3   OH235441   2.565   6.687  19.410  0.5325  0.2651  0.0344
 3749TIP3    H135442   2.575   6.619  19.342  0.1425 -1.1965  1.3839
 3749TIP3    H235443   2.472   6.708  19.408 -0.2366 -2.3069  2.3313
 3750TIP3   OH235444   1.524   1.221  17.697  0.3771  0.3252  0.6520
 3750TIP3    H135445   1.551   1.180  17.779  0.5475 -1.4657 -0.2569
 3750TIP3    H235446   1.603   1.223  17.644  0.1393  0.9448  0.3191
 3751TIP3   OH235447   5.479   2.434  20.705 -0.4281 -0.2798  0.5877
 3751TIP3    H135448   5.569   2.412  20.681 -0.6358 -1.3110  0.6972
 3751TIP3    H235449   5.440   2.467  20.624 -0.1544 -0.5050  0.3621
 3752TIP3   OH235450   1.181   1.606  18.724  0.0558  0.0578  0.6121
 3752TIP3    H135451   1.137   1.689  18.708  1.4587  0.3377 -2.7332
 3752TIP3    H235452   1.265   1.630  18.763 -0.1683  0.0321  1.1263
 3753TIP3   OH235453   4.706   1.229  19.318 -0.4678  0.0976 -0.1861
 3753TIP3    H135454   4.750   1.205  19.399 -0.4596  1.0897  0.1208
 3753TIP3    H235455   4.694   1.324  19.325 -2.1165 -0.0532 -0.5142
 3754TIP3   OH235456   4.062   1.386  18.360  0.4345 -0.3770 -0.1755
 3754TIP3    H135457   3.983   1.413  18.405  0.8815 -1.1665  1.1453
 3754TIP3    H235458   4.033   1.320  18.297  0.0012 -0.4980  0.1480
 3755TIP3   OH235459   4.818   2.195  20.155 -0.4879  0.2895  0.4542
 3755TIP3    H135460   4.765   2.117  20.173 -0.6926  0.4248  0.4292
 3755TIP3    H235461   4.778   2.264  20.207  0.7382 -0.0148  1.8713
 3756TIP3   OH235462   6.288   4.108  17.290  0.0724 -0.3553 -0.0184
 3756TIP3    H135463   6.315   4.155  17.211 -0.5362  0.1066  0.0481
 3756TIP3    H235464   6.206   4.066  17.267 -0.7567  0.7898  0.7330
 3757TIP3   OH235465   2.584   3.854  20.588  0.0308  0.2264  0.7980
 3757TIP3    H135466   2.493   3.845  20.617 -0.0518  0.1691  0.5273
 3757TIP3    H235467   2.590   3.798  20.511  0.1260  0.7184  0.4397
 3758TIP3   OH235468   1.578   0.691  18.806  0.1986  0.1445  0.3354
 3758TIP3    H135469   1.589   0.671  18.713 -1.5722  0.4489  0.0281
 3758TIP3    H235470   1.515   0.625  18.837  0.2522  0.4707  1.1587
 3759TIP3   OH235471   4.505   3.919  19.353 -0.3501 -0.0210  0.0327
 3759TIP3    H135472   4.505   3.941  19.446  0.4011  1.1858 -0.2235
 3759TIP3    H235473   4.520   4.003  19.309 -1.1742 -0.5012 -1.2005
 3760TIP3   OH235474   2.022   6.077  20.238 -0.0486 -0.6580  0.2111
 3760TIP3    H135475   1.972   6.001  20.267 -2.1093  0.2716 -0.7297
 3760TIP3    H235476   1.971   6.152  20.267 -0.6324  0.3318 -3.0128
 3761TIP3   OH235477   4.843   4.119  20.922  0.6020 -0.5778 -0.3180
 3761TIP3    H135478   4.880   4.173  20.852  1.4893  0.1088  0.6401
 3761TIP3    H235479   4.863   4.168  21.002 -0.9365 -1.0359  0.3712
 3762TIP3   OH235480   1.879   1.449  16.617 -0.2031 -0.1974  0.5971
 3762TIP3    H135481   1.817   1.393  16.571  0.1306 -1.0819  1.2161
 3762TIP3    H235482   1.964   1.429  16.577 -0.1539  0.2479  0.4689
 3763TIP3   OH235483   2.015   2.753  18.126  0.3948 -0.3096  0.4032
 3763TIP3    H135484   1.951   2.820  18.151  1.7932  0.2500  2.7760
 3763TIP3    H235485   2.025   2.763  18.031 -0.0762  2.2528  0.5616
 3764TIP3   OH235486   5.099   0.090  19.665  0.2585  0.4669  0.2008
 3764TIP3    H135487   5.123   0.170  19.711 -2.1312  0.1415  2.1721
 3764TIP3    H235488   5.119   0.109  19.573 -1.4736  3.8569  0.3755
 3765TIP3   OH235489   2.867   4.913  20.229 -0.6455 -0.0432 -0.0424
 3765TIP3    H135490   2.809   4.989  20.229 -0.3032  0.2384 -1.1018
 3765TIP3    H235491   2.824   4.850  20.287 -0.5992  1.1904  1.4141
 3766TIP3   OH235492   6.447   3.266  19.997 -0.2917 -0.3305  0.4084
 3766TIP3    H135493   6.492   3.194  20.042 -1.0425 -1.4051 -0.4869
 3766TIP3    H235494   6.494   3.344  20.024 -0.8948 -0.8473  3.3089
 3767TIP3   OH235495   3.465   1.007  19.426 -0.3180  0.8759  0.1623
 3767TIP3    H135496   3.443   1.060  19.503  0.2245  1.6390 -0.2040
 3767TIP3    H235497   3.558   1.023  19.411 -0.0622 -0.4137  0.2126
 3768TIP3   OH235498   2.285   0.759  18.985 -0.1993  0.2131 -0.4779
 3768TIP3    H135499   2.273   0.850  18.956  0.6485 -0.1971 -2.3005
 3768TIP3    H235500   2.205   0.714  18.958 -0.4867  0.3407  0.1447
 3769TIP3   OH235501   1.139   1.810  17.220 -0.2425 -0.1265 -0.1250
 3769TIP3    H135502   1.142   1.717  17.197  1.2491  0.0359 -0.7475
 3769TIP3    H235503   1.230   1.839  17.210 -0.6523  1.3533  0.2709
 3770TIP3   OH235504   4.580   3.381  18.746  0.1027 -0.2720  0.0110
 3770TIP3    H135505   4.549   3.400  18.658  1.7332  0.6544 -0.4143
 3770TIP3    H235506   4.554   3.458  18.798  1.4602  0.4387 -0.3135
 3771TIP3   OH235507   4.960   0.144  19.962  0.2409 -0.1825 -0.5329
 3771TIP3    H135508   4.955   0.134  20.057  1.9551 -0.8973 -0.4923
 3771TIP3    H235509   4.974   0.237  19.949  2.0958 -0.3529  0.0463
 3772TIP3   OH235510   2.150   5.028  17.663  0.2418 -0.2793  0.0373
 3772TIP3    H135511   2.072   5.042  17.609  1.0894  1.6782 -0.7837
 3772TIP3    H235512   2.158   4.933  17.670 -2.7640 -0.5590  0.9982
 3773TIP3   OH235513   0.602   6.645  18.604  0.1299 -0.1763 -0.2095
 3773TIP3    H135514   0.564   6.570  18.559  1.5915 -0.6812 -0.6570
 3773TIP3    H235515   0.542   6.662  18.676 -1.1924 -0.6108 -1.1734
 3774TIP3   OH235516   1.234   4.959  19.651 -0.5349  0.4363 -0.1273
 3774TIP3    H135517   1.297   4.888  19.662 -0.2986  0.7361  0.5339
 3774TIP3    H235518   1.148   4.916  19.658 -0.3972  0.3309  1.2142
 3775TIP3   OH235519   2.729   2.879  18.493  0.4210 -0.1471 -0.0348
 3775TIP3    H135520   2.764   2.793  18.514 -0.9528 -1.1374 -1.5373
 3775TIP3    H235521   2.685   2.907  18.573  1.0434 -0.7470  0.5324
 3776TIP3   OH235522   2.155   2.624  20.307  0.0141 -0.1449  0.6731
 3776TIP3    H135523   2.128   2.618  20.215 -0.0849 -0.3332  0.7148
 3776TIP3    H235524   2.087   2.678  20.347  1.0295  1.5081  0.2485
 3777TIP3   OH235525   2.559   6.342  18.983 -0.1154 -0.1308  0.3957
 3777TIP3    H135526   2.565   6.403  18.910  0.0071 -0.3123  0.2542
 3777TIP3    H235527   2.638   6.289  18.977 -0.6385 -0.8903 -0.0086
 3778TIP3   OH235528   3.061   5.105  19.838 -0.1296  0.0093 -0.1918
 3778TIP3    H135529   3.119   5.131  19.766  0.8621  2.1507  1.2807
 3778TIP3    H235530   3.114   5.116  19.917 -1.7568 -0.4652  1.0211
 3779TIP3   OH235531   1.509   3.147  19.468 -0.0937 -0.3936  0.0865
 3779TIP3    H135532   1.534   3.091  19.395 -0.6766 -0.5579  0.0058
 3779TIP3    H235533   1.502   3.088  19.543 -1.8568 -0.6431 -0.2488
 3780TIP3   OH235534   4.971   6.447  17.572 -0.0281  0.7120  0.2951
 3780TIP3    H135535   4.907   6.381  17.600  2.1588 -0.8546  1.9667
 3780TIP3    H235536   5.030   6.399  17.513  1.4312  1.2035  1.2951
 3781TIP3   OH235537   5.720   6.083  18.544 -0.0876  0.2754 -0.3096
 3781TIP3    H135538   5.789   6.138  18.581 -0.4016  1.4782 -1.4360
 3781TIP3    H235539   5.700   6.124  18.459 -0.5952 -1.3770 -1.0227
 3782TIP3   OH235540   6.615   2.587  18.750 -0.4922 -0.1746  0.1008
 3782TIP3    H135541   6.612   2.655  18.682  0.2436 -0.6247 -0.4030
 3782TIP3    H235542   6.707   2.559  18.750 -1.0732 -2.2186 -0.7748
 3783TIP3   OH235543   3.903   3.648  19.374 -0.3569  0.1306 -0.5556
 3783TIP3    H135544   3.945   3.567  19.403 -1.4331 -0.1957  0.1829
 3783TIP3    H235545   3.948   3.717  19.422 -1.5046 -0.3271  1.3005
 3784TIP3   OH235546   2.715   5.892  18.131 -0.2450  0.5012 -0.0251
 3784TIP3    H135547   2.655   5.967  18.126  0.9241  1.5301  0.8094
 3784TIP3    H235548   2.790   5.918  18.077  0.6542  0.4345  1.1369
 3785TIP3   OH235549   3.922   5.227  19.901 -0.0743  0.1929 -0.0070
 3785TIP3    H135550   3.999   5.282  19.919 -0.0769  0.2627 -0.2147
 3785TIP3    H235551   3.944   5.143  19.940  0.1298  0.1975 -0.1133
 3786TIP3   OH235552   4.380   6.122  20.005  0.2513 -0.1604  0.1186
 3786TIP3    H135553   4.419   6.050  20.056  0.3527 -0.2076 -0.0246
 3786TIP3    H235554   4.313   6.158  20.063  0.4015 -0.1793  0.3059
 3787TIP3   OH235555   4.622   0.473  18.888  0.8970  0.4622 -0.0540
 3787TIP3    H135556   4.660   0.553  18.925  0.1987  0.6691  0.2254
 3787TIP3    H235557   4.601   0.497  18.797  2.6229 -0.0505 -0.6231
 3788TIP3   OH235558   4.373   4.288  18.180 -0.3796 -0.1361 -0.3855
 3788TIP3    H135559   4.391   4.259  18.091  0.5251  0.0327 -0.2647
 3788TIP3    H235560   4.443   4.350  18.200 -1.2667  0.7791 -0.0036
 3789TIP3   OH235561   5.093   0.778  19.607 -0.7767  0.2387 -0.0541
 3789TIP3    H135562   5.076   0.807  19.517 -1.2851 -0.9674 -0.3751
 3789TIP3    H235563   5.027   0.822  19.660 -1.2182  0.0610 -0.4536
 3790TIP3   OH235564   3.967   6.375  18.932  0.5807 -0.3886  0.2049
 3790TIP3    H135565   3.968   6.355  18.838 -1.6714 -1.4162  0.3259
 3790TIP3    H235566   3.955   6.290  18.974  1.7820  0.0401  1.4665
 3791TIP3   OH235567   4.869   6.380  20.274  0.2308  0.4186  0.0430
 3791TIP3    H135568   4.860   6.408  20.365  2.0889  0.1354  0.3530
 3791TIP3    H235569   4.896   6.288  20.280  1.2249  0.6416 -0.7477
 3792TIP3   OH235570   0.065   2.343  19.540 -0.3941 -0.1780  1.0263
 3792TIP3    H135571   0.063   2.284  19.464  0.0318  0.4862  0.4891
 3792TIP3    H235572   0.000   2.307  19.599  0.7197 -1.9404  1.2748
 3793TIP3   OH235573   0.985   6.034  19.772 -0.3298 -0.5163 -0.9400
 3793TIP3    H135574   1.069   6.029  19.727  0.2145  0.6435 -0.1157
 3793TIP3    H235575   0.994   5.973  19.846  0.3213  0.5539 -0.0896
 3794TIP3   OH235576   6.187   3.052  18.955 -0.4938  0.4812  0.2741
 3794TIP3    H135577   6.167   3.033  18.863 -1.1772  1.1273  0.2811
 3794TIP3    H235578   6.219   3.143  18.954  1.4228 -0.1473  0.4158
 3795TIP3   OH235579   4.357   4.119  18.427 -0.6848  0.0517  0.0682
 3795TIP3    H135580   4.371   4.188  18.362 -1.4169  0.2350  0.0905
 3795TIP3    H235581   4.445   4.094  18.455 -0.2560 -1.2791 -2.2560
 3796TIP3   OH235582   1.972   0.206  20.181 -0.2126 -0.4688 -0.1146
 3796TIP3    H135583   2.048   0.159  20.215  0.3789  0.1340 -0.5820
 3796TIP3    H235584   2.006   0.291  20.153 -1.4071  0.5909  1.4837
 3797TIP3   OH235585   2.375   0.957  17.694 -0.4997 -0.3508  0.2796
 3797TIP3    H135586   2.385   1.034  17.750  0.8160  0.5471 -1.1106
 3797TIP3    H235587   2.333   0.990  17.615 -0.1664 -1.1150 -0.2283
 3798TIP3   OH235588   3.581   2.051  20.217  0.0146  0.0066  0.1844
 3798TIP3    H135589   3.569   2.137  20.176  1.4333 -0.3104 -0.9904
 3798TIP3    H235590   3.501   2.037  20.267 -1.7272  0.6072 -2.2380
 3799TIP3   OH235591   1.345   5.400  19.386 -0.1313 -0.4157 -0.4581
 3799TIP3    H135592   1.265   5.363  19.348 -0.8072  1.0565 -0.5429
 3799TIP3    H235593   1.332   5.494  19.383  0.5970 -0.1814  1.7402
 3800TIP3   OH235594   1.550   3.027  20.223  0.6014  0.1214  0.0199
 3800TIP3    H135595   1.505   3.107  20.197  2.5466  0.7428 -1.7191
 3800TIP3    H235596   1.545   2.971  20.145  0.5748 -0.8208  0.6904
 3801TIP3   OH235597   3.599   4.603  18.452  0.3069 -0.0504  0.2299
 3801TIP3    H135598   3.685   4.630  18.418 -0.3193  0.7149 -0.8097
 3801TIP3    H235599   3.585   4.660  18.528  0.4914  0.1952  0.0821
 3802TIP3   OH235600   3.183   3.912  20.090 -0.2861 -0.6296  0.4865
 3802TIP3    H135601   3.206   4.005  20.093 -0.5005 -0.5131 -0.9447
 3802TIP3    H235602   3.216   3.882  20.006 -1.4038 -1.5226  0.3429
 3803TIP3   OH235603   3.072   0.335  20.612 -0.3087  0.2963 -0.2147
 3803TIP3    H135604   3.039   0.253  20.647  0.3402  0.5877  1.1449
 3803TIP3    H235605   3.063   0.326  20.517  0.6630 -1.7273 -0.1603
 3804TIP3   OH235606   5.014   3.697  19.911 -0.2724  0.3124 -0.3925
 3804TIP3    H135607   4.983   3.681  20.000  0.8622 -0.3511 -0.0876
 3804TIP3    H235608   5.008   3.612  19.868  2.5404 -0.2978  0.1805
 3805TIP3   OH235609   1.098   1.155  17.866 -0.3650 -0.4431  0.4959
 3805TIP3    H135610   1.031   1.159  17.798 -0.5784 -0.0364  0.7240
 3805TIP3    H235611   1.111   1.246  17.893  1.1418 -0.3758 -0.3548
 3806TIP3   OH235612   5.881   0.708  17.219  0.2028  0.2215 -0.0167
 3806TIP3    H135613   5.909   0.644  17.154 -1.2719 -0.4372 -0.0312
 3806TIP3    H235614   5.893   0.663  17.303  1.6909  0.9128  0.1647
 3807TIP3   OH235615   5.092   1.289  17.743 -0.0865 -0.1057  0.5613
 3807TIP3    H135616   5.187   1.296  17.750  0.0211 -2.0717  1.8817
 3807TIP3    H235617   5.072   1.200  17.772 -2.4389  0.6042  1.3714
 3808TIP3   OH235618   4.245   1.477  18.617 -0.1801 -0.3537  0.4310
 3808TIP3    H135619   4.200   1.423  18.682  1.9419 -0.5613  1.8416
 3808TIP3    H235620   4.191   1.555  18.610 -1.7365 -1.3702  0.6100
 3809TIP3   OH235621   3.893   0.201  20.576  0.2576 -0.0088 -0.4602
 3809TIP3    H135622   3.869   0.228  20.665 -1.7387 -0.5663 -0.7844
 3809TIP3    H235623   3.878   0.107  20.574 -1.7553  0.2759 -1.9353
 3810TIP3   OH235624   1.968   1.460  17.651  0.0297 -0.5264  0.1543
 3810TIP3    H135625   1.982   1.485  17.743  1.3686 -0.5147 -0.0242
 3810TIP3    H235626   2.007   1.373  17.644  0.2643 -0.3714 -0.4890
 3811TIP3   OH235627   2.719   5.745  20.608 -0.3927 -0.4559 -0.4186
 3811TIP3    H135628   2.798   5.782  20.649 -0.3514 -2.7389  1.8274
 3811TIP3    H235629   2.647   5.784  20.657 -0.3495 -3.0336  1.9449
 3812TIP3   OH235630   6.131   2.903  18.443 -0.8731  0.1996 -0.1610
 3812TIP3    H135631   6.110   2.987  18.401 -2.4482  0.9470  1.9611
 3812TIP3    H235632   6.056   2.847  18.421 -1.5963  0.5262  1.3667
 3813TIP3   OH235633   1.790   3.709  17.915  0.6258 -0.1288 -0.5268
 3813TIP3    H135634   1.747   3.624  17.918 -0.4457  0.4272  0.3981
 3813TIP3    H235635   1.727   3.766  17.872 -0.5041  1.1576  2.5473
 3814TIP3   OH235636   2.005   0.998  19.156  0.3907 -0.5959  0.7374
 3814TIP3    H135637   2.070   0.956  19.212  0.4635 -0.7381  0.5495
 3814TIP3    H235638   2.051   1.014  19.073  0.6246  0.6440  1.0799
 3815TIP3   OH235639   4.025   0.519  17.790 -0.9344 -0.1993  0.0679
 3815TIP3    H135640   4.031   0.516  17.885 -1.2478  0.7673  0.1257
 3815TIP3    H235641   4.089   0.454  17.760 -0.0983  0.2180  0.9155
 3816TIP3   OH235642   0.146   3.045  20.699 -0.1042 -0.2226 -0.2464
 3816TIP3    H135643   0.196   3.019  20.622  0.4874  0.6709 -0.1830
 3816TIP3    H235644   0.125   2.963  20.743 -0.4162 -0.7503 -1.3269
 3817TIP3   OH235645   3.970   1.785  17.822 -0.0382 -0.5545 -0.2420
 3817TIP3    H135646   3.928   1.867  17.845 -0.9103 -1.6106  2.3601
 3817TIP3    H235647   4.036   1.771  17.891 -0.4604 -2.3697 -0.1332
 3818TIP3   OH235648   2.807   4.677  19.805  0.4629 -0.6886 -0.1105
 3818TIP3    H135649   2.858   4.750  19.840 -0.4738  0.3397 -0.8007
 3818TIP3    H235650   2.795   4.699  19.712 -0.9862 -1.0221 -0.0260
 3819TIP3   OH235651   4.688   3.125  19.582 -0.7338 -0.2396  0.4015
 3819TIP3    H135652   4.629   3.052  19.561  1.0794 -0.9030 -3.0858
 3819TIP3    H235653   4.668   3.192  19.518  0.5842  0.5428  0.7690
 3820TIP3   OH235654   1.848   3.048  19.232 -0.4635 -0.0779  0.0659
 3820TIP3    H135655   1.823   3.021  19.144 -0.6710 -1.6811  0.6018
 3820TIP3    H235656   1.874   3.140  19.221 -0.7270 -0.1630 -1.6077
 3821TIP3   OH235657   2.552   3.903  18.287  0.4366  0.2433 -0.1609
 3821TIP3    H135658   2.624   3.955  18.251 -0.6931  2.3471  0.4580
 3821TIP3    H235659   2.549   3.927  18.380 -2.9006  2.6945 -0.7028
 3822TIP3   OH235660   1.907   6.368  20.374  0.0430  0.2481 -0.0304
 3822TIP3    H135661   1.868   6.446  20.335  0.3101  0.1010 -0.5972
 3822TIP3    H235662   1.842   6.339  20.439  0.2081  1.2826  0.6201
 3823TIP3   OH235663   2.720   2.907  19.638 -0.2362 -0.3465 -0.2466
 3823TIP3    H135664   2.692   2.844  19.705 -0.6291 -1.0764 -1.0713
 3823TIP3    H235665   2.815   2.913  19.650 -0.2525 -0.7637  0.1314
 3824TIP3   OH235666   5.108   1.777  17.786 -0.1285 -0.6282 -0.3035
 3824TIP3    H135667   5.021   1.752  17.756  0.1470 -0.0949 -1.6249
 3824TIP3    H235668   5.159   1.786  17.706  0.7663  0.4438  0.3579
 3825TIP3   OH235669   5.051   6.554  19.655 -0.0584 -0.3916 -0.1725
 3825TIP3    H135670   5.069   6.644  19.683 -2.0323  0.2807 -0.9375
 3825TIP3    H235671   5.116   6.537  19.587  1.6524 -0.3261  1.3490
 3826TIP3   OH235672   5.207   3.008  20.410 -0.5130 -0.1628  0.0662
 3826TIP3    H135673   5.275   3.022  20.477 -1.4837  1.7613  0.7195
 3826TIP3    H235674   5.242   3.048  20.331  1.1080 -3.3754 -1.0271
 3827TIP3   OH235675   5.847   3.648  19.108  0.1946  0.2692  0.0170
 3827TIP3    H135676   5.866   3.742  19.114  0.2637  0.2107  0.7429
 3827TIP3    H235677   5.766   3.644  19.056  1.9624  0.5324 -3.0248
 3828TIP3   OH235678   0.819   5.804  19.455 -0.2864  1.0346  0.2185
 3828TIP3    H135679   0.757   5.777  19.387  0.2827  1.8947 -0.6846
 3828TIP3    H235680   0.779   5.880  19.496 -0.1067  1.2378  0.0252
 3829TIP3   OH235681   2.760   2.451  19.101 -0.5554  0.2860  0.0768
 3829TIP3    H135682   2.694   2.474  19.167  0.6317  1.5742  0.8745
 3829TIP3    H235683   2.823   2.397  19.148  0.0160  0.7577 -0.1416
 3830TIP3   OH235684   0.816   3.433  20.320  0.0611  0.2603  0.0209
 3830TIP3    H135685   0.744   3.483  20.357 -1.1944  0.3300 -2.3032
 3830TIP3    H235686   0.881   3.498  20.294  0.1473  0.3506  0.4623
 3831TIP3   OH235687   2.588   4.855  19.094 -0.4177 -0.2621  0.2357
 3831TIP3    H135688   2.585   4.786  19.028  1.1999 -0.0734 -0.0772
 3831TIP3    H235689   2.604   4.935  19.044 -1.8042  0.2901  0.6364
 3832TIP3   OH235690   1.618   4.307  19.761 -0.1848  0.5456  0.0404
 3832TIP3    H135691   1.698   4.358  19.773  0.0987  0.3710 -0.9572
 3832TIP3    H235692   1.648   4.216  19.765  0.0294  0.4591 -2.2263
 3833TIP3   OH235693   6.296   3.527  19.125 -0.4731 -0.0958  0.6580
 3833TIP3    H135694   6.216   3.491  19.163  0.2006 -1.6344  0.6833
 3833TIP3    H235695   6.323   3.462  19.060  0.6128  0.5432  0.4480
 3834TIP3   OH235696   1.508   4.373  18.479 -0.5090 -0.9443 -0.2414
 3834TIP3    H135697   1.508   4.468  18.465 -0.7976 -0.7287  1.0751
 3834TIP3    H235698   1.500   4.363  18.574  3.4037 -2.2570  0.1023
 3835TIP3   OH235699   4.364   4.726  20.056  0.3105  0.2422 -0.1309
 3835TIP3    H135700   4.373   4.631  20.067 -0.1288  0.3529  1.4787
 3835TIP3    H235701   4.454   4.759  20.063  0.1988  0.2055  2.9298
 3836TIP3   OH235702   2.902   0.950  19.042 -0.6489 -0.9234 -0.7436
 3836TIP3    H135703   2.870   1.035  19.013  1.8592  1.0693  1.8048
 3836TIP3    H235704   2.854   0.931  19.122  1.3016  0.0089  0.7351
 3837TIP3   OH235705   6.297   0.641  18.967  0.6652  0.0062 -0.4576
 3837TIP3    H135706   6.373   0.660  19.021  0.1977 -0.0660  0.2420
 3837TIP3    H235707   6.284   0.721  18.916  0.0678  0.7661  0.8292
 3838TIP3   OH235708   2.903   4.944  17.803  0.0396  0.8255 -0.2667
 3838TIP3    H135709   2.811   4.967  17.787 -0.1886 -0.8428 -1.6734
 3838TIP3    H235710   2.912   4.855  17.768  1.8461  0.3867  1.1751
 3839TIP3   OH235711   2.575   0.009  18.533 -0.4770  0.0198  0.0357
 3839TIP3    H135712   2.640   0.037  18.598 -1.0320 -1.4529  1.2887
 3839TIP3    H235713   2.498   0.062  18.551 -0.4666 -0.0422  0.2690
 3840TIP3   OH235714   0.930   1.689  19.351  0.0101  0.1454  0.4681
 3840TIP3    H135715   0.876   1.665  19.275  0.2549  0.7282  0.1090
 3840TIP3    H235716   1.020   1.680  19.321  0.1158  1.8875  0.1927
 3841TIP3   OH235717   3.461   1.379  17.333 -0.0802 -0.3526 -0.0524
 3841TIP3    H135718   3.376   1.335  17.328  0.1224 -1.0937  1.8368
 3841TIP3    H235719   3.458   1.446  17.266 -3.3928  1.7201  1.8947
 3842TIP3   OH235720   5.805   2.077  19.277  0.1909  0.4013 -0.1147
 3842TIP3    H135721   5.769   1.991  19.257  1.7696 -0.2497 -0.3471
 3842TIP3    H235722   5.834   2.070  19.369  0.1368  0.7462 -0.0711
 3843TIP3   OH235723   0.802   1.301  20.430  0.6060 -0.1151  0.1035
 3843TIP3    H135724   0.766   1.379  20.388 -1.9206 -1.1188  0.1750
 3843TIP3    H235725   0.771   1.229  20.375  0.4487 -1.2216  1.5899
 3844TIP3   OH235726   0.778   2.788  19.384  0.0319  0.2175 -0.0267
 3844TIP3    H135727   0.737   2.702  19.400  0.7067  0.0680  0.9771
 3844TIP3    H235728   0.803   2.819  19.470  0.8881  0.8929 -0.5040
 3845TIP3   OH235729   3.397   1.380  19.205 -0.0114 -0.7224  0.3802
 3845TIP3    H135730   3.349   1.298  19.189 -0.7562 -0.0730 -0.8222
 3845TIP3    H235731   3.331   1.439  19.241  0.1639 -0.1893 -0.1659
 3846TIP3   OH235732   0.907   4.529  20.266  0.2325 -0.2174  0.4100
 3846TIP3    H135733   0.983   4.544  20.209 -0.0029  0.4155  0.2538
 3846TIP3    H235734   0.839   4.496  20.207 -0.3092  1.3088  0.1167
 3847TIP3   OH235735   0.401   1.454  18.611  0.7203  0.0738 -0.1396
 3847TIP3    H135736   0.407   1.524  18.676  0.2266  0.4709 -0.5183
 3847TIP3    H235737   0.439   1.490  18.532 -0.5603  0.3259 -0.6625
 3848TIP3   OH235738   4.241   6.563  18.513  0.3759 -0.1573 -0.3076
 3848TIP3    H135739   4.325   6.538  18.552 -0.0779 -0.1350  0.7288
 3848TIP3    H235740   4.177   6.548  18.583 -0.1657  2.1320 -0.2178
 3849TIP3   OH235741   3.449   3.700  19.679  0.6965  0.6018  0.0133
 3849TIP3    H135742   3.512   3.628  19.672 -0.8073 -0.6974 -0.5831
 3849TIP3    H235743   3.397   3.695  19.599 -0.8954  0.9205  0.9882
 3850TIP3   OH235744   5.606   3.230  18.357 -0.3627  0.3098  0.3792
 3850TIP3    H135745   5.514   3.217  18.333  0.2595  0.6380 -2.5169
 3850TIP3    H235746   5.633   3.307  18.308  1.8497 -0.6268  0.0034
 3851TIP3   OH235747   3.822   4.381  20.409 -0.0535 -0.4239  0.3935
 3851TIP3    H135748   3.771   4.326  20.469  0.4863 -0.8219  0.5003
 3851TIP3    H235749   3.906   4.334  20.400 -1.2698 -2.2794 -3.4277
 3852TIP3   OH235750   0.812   6.302  18.768  0.3379  0.2397 -0.1796
 3852TIP3    H135751   0.895   6.345  18.789  2.2647 -3.3753  0.4222
 3852TIP3    H235752   0.823   6.269  18.679  0.6170 -2.3150  0.7200
 3853TIP3   OH235753   1.294   2.607  20.150 -0.2402  0.0779  0.1521
 3853TIP3    H135754   1.315   2.672  20.083 -2.6367  0.1037 -0.6602
 3853TIP3    H235755   1.378   2.590  20.194  1.1587  0.9628 -2.0164
 3854TIP3   OH235756   0.717   2.013  19.594 -0.1869  0.2233 -0.0377
 3854TIP3    H135757   0.653   2.068  19.549 -2.0174 -0.7170  1.2715
 3854TIP3    H235758   0.764   2.073  19.652 -0.9290  0.6779  0.0948
 3855TIP3   OH235759   0.636   2.557  17.570  0.0940 -0.5237 -0.0652
 3855TIP3    H135760   0.660   2.468  17.543 -1.8927 -1.0608 -0.2032
 3855TIP3    H235761   0.652   2.611  17.493  0.7802 -0.8485 -0.1582
 3856TIP3   OH235762   2.096   2.818  19.790  0.2010  0.3345  0.2600
 3856TIP3    H135763   2.051   2.867  19.859 -2.7487 -0.0286 -1.2665
 3856TIP3    H235764   2.155   2.882  19.750  1.3166  0.7879  2.4668
 3857TIP3   OH235765   3.776   2.878  17.501  0.0000 -0.3849  0.0865
 3857TIP3    H135766   3.833   2.929  17.444 -2.2595  0.5356 -1.5422
 3857TIP3    H235767   3.816   2.791  17.505  0.7818 -0.1853 -2.1374
 3858TIP3   OH235768   6.160   0.726  20.050  0.6697  0.2309 -0.2718
 3858TIP3    H135769   6.136   0.660  19.985  1.9251  0.6317 -1.1920
 3858TIP3    H235770   6.202   0.677  20.120  1.8415  0.0281 -1.0737
 3859TIP3   OH235771   4.074   0.918  18.438 -0.1842 -0.1115 -0.0542
 3859TIP3    H135772   4.166   0.943  18.429 -0.1828 -0.2102 -0.3273
 3859TIP3    H235773   4.025   1.000  18.429 -0.0778  0.0968  1.0733
 3860TIP3   OH235774   5.062   3.278  20.474  0.0534 -0.6347 -0.2242
 3860TIP3    H135775   5.037   3.186  20.473 -3.4761  0.1861 -1.9224
 3860TIP3    H235776   4.990   3.322  20.519  0.6308  1.5236 -1.3068
 3861TIP3   OH235777   5.667   3.165  20.457 -0.5936  0.8675 -0.5998
 3861TIP3    H135778   5.626   3.123  20.381 -0.2122  0.6746 -0.7025
 3861TIP3    H235779   5.731   3.226  20.419  2.2726 -1.7967 -0.5013
 3862TIP3   OH235780   1.929   4.989  19.128 -0.3027  0.0287  0.3466
 3862TIP3    H135781   1.943   5.054  19.196 -0.8774  0.6588 -0.1300
 3862TIP3    H235782   1.896   4.912  19.175 -1.3331  0.6791  0.7111
 3863TIP3   OH235783   0.617   3.079  20.651 -0.6027  0.4868  0.5278
 3863TIP3    H135784   0.580   2.991  20.652 -0.9797  0.6466  1.4321
 3863TIP3    H235785   0.641   3.094  20.560  1.1592 -1.2560  0.6275
 3864TIP3   OH235786   4.347   2.077  18.828 -0.0861  0.0528 -0.7114
 3864TIP3    H135787   4.399   2.144  18.873 -1.7115  0.2437  0.9991
 3864TIP3    H235788   4.380   1.994  18.860 -0.1372  0.1445 -0.4189
 3865TIP3   OH235789   2.677   1.716  20.074 -0.4523 -0.2158 -0.4420
 3865TIP3    H135790   2.626   1.787  20.114  1.5742  0.8771  0.3598
 3865TIP3    H235791   2.734   1.761  20.012  0.5427 -1.1886 -0.2488
 3866TIP3   OH235792   0.724   5.237  18.531 -0.1157  0.0816 -0.5581
 3866TIP3    H135793   0.678   5.282  18.460 -0.6636  0.1037 -0.1952
 3866TIP3    H235794   0.713   5.144  18.511 -0.3636  0.0853 -0.4499
 3867TIP3   OH235795   1.186   4.388  18.288  0.0141  0.1619  0.0226
 3867TIP3    H135796   1.135   4.312  18.316 -0.2396  0.2697 -0.1379
 3867TIP3    H235797   1.185   4.447  18.364 -1.3992  0.8315 -0.4643
 3868TIP3   OH235798   5.405   4.594  19.046  0.0930  0.2613  0.2562
 3868TIP3    H135799   5.322   4.558  19.074 -0.0023  2.7991  4.0296
 3868TIP3    H235800   5.382   4.670  18.993 -0.0309  0.5709  0.7432
 3869TIP3   OH235801   1.716   6.642  18.090  0.0089 -0.1896  0.3100
 3869TIP3    H135802   1.773   6.616  18.163  0.2441  0.6073  0.4168
 3869TIP3    H235803   1.629   6.613  18.116  0.0641  0.2339  0.9859
 3870TIP3   OH235804   2.952   2.974  19.139 -0.6686  0.3780  0.2169
 3870TIP3    H135805   3.041   2.986  19.108 -0.5558  0.0501  0.4095
 3870TIP3    H235806   2.917   2.903  19.085 -1.1570  1.1780 -0.5565
 3871TIP3   OH235807   5.111   3.052  18.067  0.1581  0.2112 -0.2585
 3871TIP3    H135808   5.122   3.144  18.042 -1.6026  0.0303 -1.9100
 3871TIP3    H235809   5.162   3.003  18.002  1.7107  0.0035  1.0599
 3872TIP3   OH235810   1.263   5.390  17.845 -0.1150 -0.7960  0.3011
 3872TIP3    H135811   1.254   5.336  17.766 -1.2816 -3.1829  1.9305
 3872TIP3    H235812   1.357   5.405  17.853  0.2329 -2.3569 -0.4216
 3873TIP3   OH235813   5.780   4.826  19.536 -0.4447  0.1863  0.3641
 3873TIP3    H135814   5.837   4.807  19.461  0.9710 -3.4013  2.1562
 3873TIP3    H235815   5.697   4.783  19.514  0.4866 -2.3165  1.3883
 3874TIP3   OH235816   3.950   6.348  18.662 -0.2191 -0.1535  0.0907
 3874TIP3    H135817   3.927   6.376  18.573  0.4798 -1.8917 -0.6942
 3874TIP3    H235818   3.993   6.263  18.649  0.3887 -0.1817  2.0560
 3875TIP3   OH235819   4.424   6.744  18.817  0.3203 -0.6869  0.3865
 3875TIP3    H135820   4.418   6.652  18.790  1.5352 -0.7863  0.4112
 3875TIP3    H235821   4.335   6.777  18.808  0.1538 -1.4468 -1.1106
 3876TIP3   OH235822   5.810   0.427  20.514  0.1533  0.0645 -0.0566
 3876TIP3    H135823   5.756   0.398  20.440 -1.1479  0.0888  0.8499
 3876TIP3    H235824   5.836   0.346  20.557 -1.2217  0.0862  0.8993
 3877TIP3   OH235825   4.672   1.322  20.270  0.2594  0.3189 -0.2477
 3877TIP3    H135826   4.610   1.382  20.311 -1.2837 -0.1493 -1.7774
 3877TIP3    H235827   4.624   1.239  20.263  1.0284 -0.0516 -1.5152
 3878TIP3   OH235828   6.734   1.867  19.988  0.1378  0.0890  0.2582
 3878TIP3    H135829   6.828   1.863  19.976 -0.0570 -0.3630 -1.4446
 3878TIP3    H235830   6.704   1.776  19.982 -0.5972  0.3951 -1.5454
 3879TIP3   OH235831   6.587   2.411  17.552  0.0030  0.1852 -0.1889
 3879TIP3    H135832   6.513   2.466  17.528  0.3125  1.6078  1.8587
 3879TIP3    H235833   6.626   2.386  17.468 -1.3286  1.4499 -1.2386
 3880TIP3   OH235834   6.252   1.227  20.333 -0.2549 -0.5740 -0.4338
 3880TIP3    H135835   6.255   1.146  20.282  0.8712 -1.2376  0.6174
 3880TIP3    H235836   6.263   1.199  20.424  0.1058  0.7456 -0.0407
 3881TIP3   OH235837   4.882   1.499  17.946  0.4347 -0.1465 -0.4437
 3881TIP3    H135838   4.806   1.557  17.944 -0.3982 -1.2079 -0.6632
 3881TIP3    H235839   4.922   1.515  18.032 -1.0950 -0.8624  0.4408
 3882TIP3   OH235840   6.609   5.136  19.759 -0.6942  0.0404 -0.2517
 3882TIP3    H135841   6.587   5.135  19.853  1.9595 -0.4925  0.4477
 3882TIP3    H235842   6.668   5.211  19.750  0.5696 -1.0095 -1.0657
 3883TIP3   OH235843   5.510   3.643  18.464 -0.7332 -0.3375 -0.2232
 3883TIP3    H135844   5.487   3.686  18.546 -0.3712 -0.8247  0.1381
 3883TIP3    H235845   5.445   3.574  18.454 -1.6829  0.6607 -1.1093
 3884TIP3   OH235846   3.165   4.144  18.976 -0.8067 -0.2132 -0.1000
 3884TIP3    H135847   3.123   4.230  18.971  1.1764  0.7501 -1.0091
 3884TIP3    H235848   3.179   4.130  19.069 -1.1109  0.4732  0.0569
 3885TIP3   OH235849   3.135   3.394  19.641 -0.0387  0.2578 -0.1364
 3885TIP3    H135850   3.115   3.483  19.673  0.5828  0.2772  0.2141
 3885TIP3    H235851   3.123   3.400  19.547 -1.8405  0.2236  0.0512
 3886TIP3   OH235852   1.765   3.076  20.410 -0.3888 -0.1836  0.1221
 3886TIP3    H135853   1.733   3.029  20.332 -1.6570 -1.1602  1.1835
 3886TIP3    H235854   1.686   3.109  20.452  0.3628  1.3171  0.4169
 3887TIP3   OH235855   6.347   6.086  18.887 -0.0312 -0.0353  0.2272
 3887TIP3    H135856   6.432   6.119  18.918 -0.3681  0.1651  0.9651
 3887TIP3    H235857   6.333   6.130  18.803 -0.0020  0.9339  0.7216
 3888TIP3   OH235858   2.182   0.306  19.810 -0.1613  0.3259  0.0005
 3888TIP3    H135859   2.135   0.335  19.731 -1.3420 -1.8609 -0.1992
 3888TIP3    H235860   2.233   0.231  19.780  1.5247  1.1121  0.7970
 3889TIP3   OH235861   4.800   3.404  18.005  0.2398 -0.4343 -0.0650
 3889TIP3    H135862   4.881   3.454  18.007  0.7660 -1.2091 -0.8954
 3889TIP3    H235863   4.757   3.430  17.923  0.1309 -0.7273 -0.1055
 3890TIP3   OH235864   1.448   4.484  19.016  0.0728 -0.3923  0.2980
 3890TIP3    H135865   1.436   4.503  19.110 -1.1104 -0.1531  0.1233
 3890TIP3    H235866   1.445   4.389  19.010  1.2425 -0.4569  0.6263
 3891TIP3   OH235867   3.489   6.097  19.509 -0.4683  0.1706  0.1054
 3891TIP3    H135868   3.481   6.060  19.421  1.9188 -1.2098  0.3905
 3891TIP3    H235869   3.493   6.021  19.567  2.8061  0.7876  0.8861
 3892TIP3   OH235870   1.489   0.948  20.698  0.1099 -0.0940  0.0441
 3892TIP3    H135871   1.547   0.983  20.630 -0.6577 -1.0081 -1.1350
 3892TIP3    H235872   1.408   0.999  20.689 -0.1543 -0.5209 -0.0617
 3893TIP3   OH235873   4.102   6.170  19.588  0.0444 -0.0743 -0.4972
 3893TIP3    H135874   4.073   6.205  19.673  0.3421 -1.0276  0.0091
 3893TIP3    H235875   4.194   6.195  19.582  0.2009 -0.5828 -0.2317
 3894TIP3   OH235876   1.653   2.333  17.178 -0.0601  0.3139  0.4480
 3894TIP3    H135877   1.681   2.241  17.184  2.8463  0.9047 -1.6433
 3894TIP3    H235878   1.593   2.335  17.103 -0.2303  0.0836  0.5781
 3895TIP3   OH235879   1.667   0.953  16.940 -0.2183  0.1501  0.4224
 3895TIP3    H135880   1.628   0.880  16.893  0.1060 -0.3116  0.8624
 3895TIP3    H235881   1.600   1.021  16.939 -0.6537 -0.2763  0.3094
 3896TIP3   OH235882   5.878   6.436  18.343  0.3109 -0.0231 -0.2354
 3896TIP3    H135883   5.948   6.382  18.380  0.1114 -0.2649 -0.2074
 3896TIP3    H235884   5.797   6.400  18.380  0.1481  0.0713 -0.4907
 3897TIP3   OH235885   6.346   6.140  19.716  0.3007  0.5279  0.7177
 3897TIP3    H135886   6.298   6.132  19.634  0.9929  0.7444  0.2873
 3897TIP3    H235887   6.277   6.147  19.783 -0.3003 -1.0009  0.3272
 3898TIP3   OH235888   5.499   5.247  20.771 -0.2252 -0.1194  0.2150
 3898TIP3    H135889   5.414   5.237  20.815 -0.4270  0.7364  0.0223
 3898TIP3    H235890   5.508   5.341  20.757 -0.1464 -0.3536 -1.5334
 3899TIP3   OH235891   3.750   1.967  17.262 -0.3477 -0.2864  0.4303
 3899TIP3    H135892   3.735   2.047  17.211  0.4410  0.2053  0.9435
 3899TIP3    H235893   3.681   1.907  17.234 -0.8901  0.5394 -0.0349
 3900TIP3   OH235894   1.604   0.065  20.383 -0.1657 -0.3388  0.2565
 3900TIP3    H135895   1.628   0.100  20.298  0.2528  0.1589  0.5761
 3900TIP3    H235896   1.525   0.113  20.407  0.2266  0.1719  0.5499
 3901TIP3   OH235897   5.607   0.023  18.866 -0.0824 -0.1394  0.0743
 3901TIP3    H135898   5.700   0.003  18.879 -0.4991 -1.1993  1.8479
 3901TIP3    H235899   5.578   0.060  18.949 -1.0715  1.0611 -0.7577
 3902TIP3   OH235900   4.543   6.224  20.417 -0.8901  0.4299 -0.1689
 3902TIP3    H135901   4.495   6.190  20.342 -2.2673  2.2230 -0.1671
 3902TIP3    H235902   4.517   6.315  20.423  0.4212  0.7438  1.5445
 3903TIP3   OH235903   4.103   1.206  18.131  0.9437  0.2268 -0.2205
 3903TIP3    H135904   4.135   1.237  18.046 -0.0837  0.2515 -0.6056
 3903TIP3    H235905   4.043   1.134  18.110 -1.3424  1.8753  0.2916
 3904TIP3   OH235906   4.623   1.479  18.381  0.0515  0.1060 -0.5375
 3904TIP3    H135907   4.551   1.423  18.408 -0.0016 -0.5311 -1.9223
 3904TIP3    H235908   4.622   1.476  18.285  1.7541  0.2720 -0.5998
 3905TIP3   OH235909   4.949   0.434  19.867  0.3897 -0.9471 -0.1913
 3905TIP3    H135910   5.029   0.477  19.895 -1.1386  1.3791  0.9463
 3905TIP3    H235911   4.935   0.464  19.777  1.3611 -2.3195 -0.8304
 3906TIP3   OH235912   4.832   4.327  19.673  0.0930 -0.4002 -0.2959
 3906TIP3    H135913   4.750   4.332  19.721 -0.1657 -2.3470 -0.4374
 3906TIP3    H235914   4.846   4.415  19.639 -2.0361 -0.0705 -0.4272
 3907TIP3   OH235915   2.466   1.285  19.494 -0.3990 -0.3251  0.2170
 3907TIP3    H135916   2.561   1.273  19.492 -0.5528 -1.8342  0.4214
 3907TIP3    H235917   2.433   1.206  19.538 -1.8290 -0.4833 -1.0381
 3908TIP3   OH235918   1.374   5.067  19.436  0.0903  0.2465  0.0738
 3908TIP3    H135919   1.310   5.108  19.378 -0.4898  1.7179  1.6755
 3908TIP3    H235920   1.324   5.040  19.513  1.1577  0.1569  0.7574
 3909TIP3   OH235921   5.131   2.321  19.036 -0.0936 -0.1285 -0.6647
 3909TIP3    H135922   5.112   2.305  18.944 -1.4596  0.7649 -0.5576
 3909TIP3    H235923   5.133   2.234  19.076 -2.2600 -0.4064 -1.0396
 3910TIP3   OH235924   3.826   2.099  18.431  0.4879 -0.9515 -0.0046
 3910TIP3    H135925   3.860   2.011  18.447  4.1276  0.0215 -1.3574
 3910TIP3    H235926   3.853   2.119  18.341 -0.0120  1.6418  0.3322
 3911TIP3   OH235927   5.938   4.337  19.352 -0.5417  0.5433 -0.5104
 3911TIP3    H135928   5.895   4.370  19.273 -1.3504  2.7885  0.7715
 3911TIP3    H235929   6.030   4.358  19.339 -0.6260  0.6294 -1.0041
 3912TIP3   OH235930   4.045   5.721  19.572 -0.8616 -0.1872  0.0796
 3912TIP3    H135931   3.958   5.681  19.563 -1.5601  1.1792  0.4684
 3912TIP3    H235932   4.033   5.810  19.540  0.4790 -0.0579 -0.1037
 3913TIP3   OH235933   0.250   0.787  19.263  0.0375 -0.2776  0.1302
 3913TIP3    H135934   0.275   0.878  19.276  2.1411 -0.9881  1.8037
 3913TIP3    H235935   0.164   0.779  19.304 -0.3350  1.0251 -0.3756
 3914TIP3   OH235936   0.705   1.806  18.974 -0.3488  0.2040  0.0550
 3914TIP3    H135937   0.749   1.891  18.980 -2.0260  1.5391 -3.8943
 3914TIP3    H235938   0.615   1.823  19.002 -0.0333 -1.0967  2.1260
 3915TIP3   OH235939   5.809   6.501  17.896 -0.4659 -0.2130 -0.3859
 3915TIP3    H135940   5.887   6.503  17.951  0.0313  1.0393 -1.0954
 3915TIP3    H235941   5.738   6.478  17.956  0.0076  1.3657  0.8486
 3916TIP3   OH235942   5.081   4.374  19.430  0.0675  0.2563  0.2858
 3916TIP3    H135943   5.172   4.359  19.457  0.2017  0.5313 -0.0002
 3916TIP3    H235944   5.086   4.452  19.375 -0.3929  0.4646  0.5390
 3917TIP3   OH235945   1.942   5.174  20.585 -0.5094 -0.0492 -0.1946
 3917TIP3    H135946   1.853   5.139  20.594 -1.1370  1.0465 -1.7107
 3917TIP3    H235947   1.935   5.239  20.515  0.9920  1.7847  1.2669
 3918TIP3   OH235948   2.260   2.901  19.042 -0.0049 -0.0350  0.4313
 3918TIP3    H135949   2.272   2.917  19.136 -0.3111 -1.2914  0.7026
 3918TIP3    H235950   2.221   2.814  19.038  0.0926 -0.0269 -0.8760
 3919TIP3   OH235951   5.266   4.230  19.949  0.0952 -0.6577 -0.8070
 3919TIP3    H135952   5.244   4.137  19.941 -3.0694 -0.0407 -0.6641
 3919TIP3    H235953   5.273   4.261  19.858 -1.0089 -0.6319 -0.8943
 3920TIP3   OH235954   0.444   0.958  18.867  0.1085  0.1402  0.0927
 3920TIP3    H135955   0.537   0.974  18.886  0.0006  0.7780  0.1003
 3920TIP3    H235956   0.445   0.906  18.787  0.4711  0.2123  0.0473
 3921TIP3   OH235957   4.433   5.958  18.838  0.0757 -0.0464 -0.0443
 3921TIP3    H135958   4.422   6.030  18.776 -0.3550 -0.5505 -0.5726
 3921TIP3    H235959   4.509   5.982  18.891 -1.2836  1.7890  1.1914
 3922TIP3   OH235960   0.281   4.734  18.922 -0.1335  0.0999 -0.0785
 3922TIP3    H135961   0.194   4.695  18.935  0.2657 -1.0381 -0.7529
 3922TIP3    H235962   0.263   4.826  18.904 -1.2055 -0.1475 -0.3426
 3923TIP3   OH235963   4.501   5.569  19.801  0.1166 -0.6481 -0.3846
 3923TIP3    H135964   4.492   5.479  19.831 -0.1097 -0.4861  0.0457
 3923TIP3    H235965   4.531   5.617  19.878 -1.8011  0.0233 -0.0117
 3924TIP3   OH235966   1.335   5.881  18.926  0.1521  0.4066  0.0261
 3924TIP3    H135967   1.253   5.928  18.943 -0.5979 -1.2056  1.1469
 3924TIP3    H235968   1.361   5.909  18.839 -1.4366  1.1934 -0.2311
 3925TIP3   OH235969   4.455   3.215  17.485  0.5952 -0.1013  0.0762
 3925TIP3    H135970   4.495   3.238  17.402 -0.2289  1.9752  0.1862
 3925TIP3    H235971   4.473   3.291  17.542 -0.5738 -0.5898  1.1420
 3926TIP3   OH235972   5.922   0.939  18.025  0.0546  0.3151  0.3878
 3926TIP3    H135973   6.005   0.902  18.054  0.5624  0.9775 -0.1791
 3926TIP3    H235974   5.900   1.004  18.091 -0.1855 -0.0894  0.7093
 3927TIP3   OH235975   3.067   4.178  19.293 -0.3830 -0.2014  0.9991
 3927TIP3    H135976   3.096   4.269  19.294 -0.2147 -0.2527  0.8287
 3927TIP3    H235977   2.972   4.184  19.302 -0.6137  0.1026 -1.1266
 3928TIP3   OH235978   6.344   1.829  19.416  0.0480  0.2085 -0.3198
 3928TIP3    H135979   6.430   1.853  19.380 -1.0707  0.7576 -2.8761
 3928TIP3    H235980   6.359   1.745  19.459  2.1496  0.9874  0.6353
 3929TIP3   OH235981   3.305   0.950  19.847 -0.0091  0.1332 -0.1981
 3929TIP3    H135982   3.342   1.022  19.795 -0.9679 -0.7323 -2.2171
 3929TIP3    H235983   3.250   0.902  19.784 -0.7663 -1.3462  1.5196
 3930TIP3   OH235984   1.176   5.117  19.253  0.4202 -0.0822  0.0718
 3930TIP3    H135985   1.123   5.190  19.287 -0.6162 -0.1965 -1.2096
 3930TIP3    H235986   1.136   5.096  19.169  2.5263 -0.2021 -0.9440
 3931TIP3   OH235987   6.704   0.543  18.324  0.9271 -0.2420 -0.4878
 3931TIP3    H135988   6.648   0.612  18.358  1.3659 -0.4376  0.6601
 3931TIP3    H235989   6.670   0.525  18.236  0.7593  1.3643 -0.7680
 3932TIP3   OH235990   0.089   3.619  20.133  0.4494 -0.3578 -0.1312
 3932TIP3    H135991   0.121   3.596  20.046  0.0407  0.3446 -0.4760
 3932TIP3    H235992   0.168   3.635  20.184  0.6987 -1.0552 -0.2878
 3933TIP3   OH235993   4.468   2.562  20.193 -0.2757 -0.5212 -0.0742
 3933TIP3    H135994   4.460   2.634  20.129 -1.3703 -1.4068 -0.9797
 3933TIP3    H235995   4.386   2.566  20.242  0.1133 -0.5072  0.5745
 3934TIP3   OH235996   3.282   4.932  20.025  0.0528 -0.3510  0.3822
 3934TIP3    H135997   3.268   5.012  20.076  0.1636  0.0734 -0.2391
 3934TIP3    H235998   3.228   4.866  20.069 -0.7698  0.2868  0.3603
 3935TIP3   OH235999   1.681   0.330  18.485  0.3627 -0.0053  0.2937
 3935TIP3    H136000   1.660   0.281  18.564 -1.0946 -0.3891 -0.3094
 3935TIP3    H236001   1.647   0.277  18.413  2.6315 -0.1970 -0.7059
 3936TIP3   OH236002   3.308   4.534  18.898 -0.6008 -0.1035 -0.0194
 3936TIP3    H136003   3.383   4.505  18.846 -0.5605 -1.5847  0.7805
 3936TIP3    H236004   3.336   4.617  18.937  1.5270 -1.5786  1.9171
 3937TIP3   OH236005   0.043   4.536  17.812 -0.3067 -0.4828  0.2132
 3937TIP3    H136006   0.088   4.454  17.831  0.2127 -0.9168 -2.5222
 3937TIP3    H236007   0.111   4.603  17.821 -0.4399 -0.4774  1.2687
 3938TIP3   OH236008   1.963   0.674  18.749 -0.7617 -0.0605  0.6126
 3938TIP3    H136009   1.990   0.593  18.706 -0.8574 -0.7275  1.7715
 3938TIP3    H236010   1.910   0.719  18.683  0.7015 -0.1040 -0.6658
 3939TIP3   OH236011   4.449   1.938  20.526  0.0171  0.5605  0.1407
 3939TIP3    H136012   4.404   2.006  20.574  0.0025  0.3097  0.4827
 3939TIP3    H236013   4.410   1.941  20.438  0.3705  1.3253  0.0010
 3940TIP3   OH236014   3.840   0.884  18.837 -0.2661 -0.2591 -0.5045
 3940TIP3    H136015   3.896   0.878  18.914 -1.5282 -1.6319  0.3687
 3940TIP3    H236016   3.783   0.959  18.854  0.4694  0.3818 -0.8280
 3941TIP3   OH236017   4.474   2.513  20.932 -0.3268  0.2991  0.3340
 3941TIP3    H136018   4.542   2.469  20.882  0.2964  1.0361  0.5058
 3941TIP3    H236019   4.494   2.606  20.923 -0.9419  0.4974  0.9127
 3942TIP3   OH236020   2.879   1.297  18.991 -0.0141 -0.0752 -0.3148
 3942TIP3    H136021   2.930   1.325  19.067 -0.2079 -1.5453  0.3877
 3942TIP3    H236022   2.938   1.307  18.917  1.4773 -2.0262  0.5137
 3943TIP3   OH236023   4.486   3.339  18.256 -0.3682 -0.1851 -0.1872
 3943TIP3    H136024   4.527   3.280  18.193  1.3180 -0.4589  1.1089
 3943TIP3    H236025   4.557   3.396  18.285 -1.4831  1.0464  0.2463
 3944TIP3   OH236026   4.169   5.658  17.796 -0.3521  0.0170  0.1910
 3944TIP3    H136027   4.076   5.636  17.788 -0.3575 -0.0077  0.3164
 3944TIP3    H236028   4.173   5.714  17.874 -0.0861 -1.0159  0.9348
 3945TIP3   OH236029   0.768   0.137  20.089  0.1714  0.2991  0.0165
 3945TIP3    H136030   0.747   0.057  20.137  0.6609 -0.1840 -0.5656
 3945TIP3    H236031   0.700   0.143  20.022  1.3344 -0.7877 -1.3021
 3946TIP3   OH236032   0.235   2.915  18.538  0.2296 -0.1369 -0.4464
 3946TIP3    H136033   0.303   2.896  18.472  0.8298  0.9179 -0.1485
 3946TIP3    H236034   0.280   2.967  18.604 -1.2544  2.1639 -1.1235
 3947TIP3   OH236035   2.443   2.319  20.729 -0.1859 -0.1999  0.2055
 3947TIP3    H136036   2.436   2.402  20.776  0.6409  0.2196 -0.3822
 3947TIP3    H236037   2.377   2.325  20.660  0.9898  0.7122 -0.8897
 3948TIP3   OH236038   4.401   5.814  17.723  0.1333  0.1429 -0.2280
 3948TIP3    H136039   4.480   5.766  17.749 -0.1281 -1.9830 -2.8788
 3948TIP3    H236040   4.339   5.745  17.699 -1.9312  1.8023  0.1080
 3949TIP3   OH236041   1.617   4.261  20.719 -0.1947  0.0669  0.2361
 3949TIP3    H136042   1.535   4.309  20.727 -1.0217 -1.1190 -0.8393
 3949TIP3    H236043   1.678   4.325  20.682 -1.0151  0.5597 -0.2930
 3950TIP3   OH236044   4.531   3.633  20.604  0.2012  0.9456 -0.1318
 3950TIP3    H136045   4.603   3.573  20.621 -0.1891  0.6979  0.6918
 3950TIP3    H236046   4.481   3.592  20.534  0.7758  1.0568 -0.6204
 3951TIP3   OH236047   5.341   2.337  19.957 -0.3416  0.2206  0.0521
 3951TIP3    H136048   5.376   2.425  19.970  1.3400 -0.5564  1.1116
 3951TIP3    H236049   5.398   2.281  20.009 -0.6909 -1.6450 -1.4717
 3952TIP3   OH236050   4.051   6.453  19.369  0.5294  0.1940  0.2328
 3952TIP3    H136051   4.085   6.535  19.333 -0.6984  1.1473  1.1868
 3952TIP3    H236052   4.073   6.456  19.462 -0.1401 -0.2310  0.4130
 3953TIP3   OH236053   1.103   2.397  18.520  0.3950  0.3277  0.1880
 3953TIP3    H136054   1.164   2.466  18.495 -1.1418  1.5578 -0.3712
 3953TIP3    H236055   1.136   2.319  18.476  1.5989  0.9391 -0.0259
 3954TIP3   OH236056   3.556   0.880  18.202  0.3848  0.0319 -0.0082
 3954TIP3    H136057   3.600   0.796  18.219  1.0257  0.5202  0.7577
 3954TIP3    H236058   3.566   0.892  18.107  0.3749 -0.6971 -0.1154
 3955TIP3   OH236059   5.022   4.770  19.030 -1.1734 -0.5775  0.2498
 3955TIP3    H136060   4.973   4.757  18.949 -1.8181 -0.0692  0.5523
 3955TIP3    H236061   5.003   4.861  19.055 -0.4791 -0.5326  0.6384
 3956TIP3   OH236062   3.890   4.620  20.929  0.3347  0.4234  0.2854
 3956TIP3    H136063   3.943   4.546  20.899  1.2615  0.8727  0.7721
 3956TIP3    H236064   3.954   4.688  20.952 -0.4342  0.8627  1.2047
 3957TIP3   OH236065   4.084   3.400  20.668  0.1811 -0.8410 -0.5106
 3957TIP3    H136066   4.005   3.354  20.696  1.0623 -1.3920  1.2440
 3957TIP3    H236067   4.066   3.493  20.686 -1.1787 -0.5263 -3.0284
 3958TIP3   OH236068   0.508   3.144  17.995 -0.0711 -0.0839 -0.0948
 3958TIP3    H136069   0.596   3.128  17.960  0.2203  0.2710  0.4658
 3958TIP3    H236070   0.517   3.133  18.089 -0.0139  2.4211  0.2800
 3959TIP3   OH236071   2.442   1.781  19.719  0.0622 -0.1285  0.5634
 3959TIP3    H136072   2.371   1.722  19.743  0.1249 -0.8599 -0.9329
 3959TIP3    H236073   2.501   1.779  19.794 -0.2230 -1.5313  0.7872
 3960TIP3   OH236074   1.115   5.470  20.786 -0.1628 -1.1775 -0.2944
 3960TIP3    H136075   1.134   5.520  20.865 -1.2172 -1.2822  0.0310
 3960TIP3    H236076   1.196   5.422  20.769 -0.3294 -2.1609  1.4805
 3961TIP3   OH236077   1.502   5.103  17.690  0.0276 -0.5219  0.1351
 3961TIP3    H136078   1.425   5.100  17.632 -0.3495  1.4356  0.4794
 3961TIP3    H236079   1.506   5.193  17.720  1.2022 -1.1101  1.8729
 3962TIP3   OH236080   2.693   4.482  17.863  0.1515  0.4441 -0.1265
 3962TIP3    H136081   2.704   4.574  17.885 -0.5818  0.4864  0.0744
 3962TIP3    H236082   2.724   4.475  17.772  1.4696  0.6158  0.2931
 3963TIP3   OH236083   0.211   6.106  19.353  0.0819 -0.0214 -0.1927
 3963TIP3    H136084   0.242   6.088  19.264 -0.0434 -0.0796 -0.2249
 3963TIP3    H236085   0.165   6.190  19.346 -0.4293 -0.3076 -0.3037
 3964TIP3   OH236086   3.593   1.329  18.499 -0.1850  0.1647  0.2053
 3964TIP3    H136087   3.497   1.331  18.496 -0.2200  1.8963  1.0717
 3964TIP3    H236088   3.614   1.240  18.525 -1.7985  0.6621  3.9050
 3965TIP3   OH236089   5.341   1.434  17.662 -0.0896 -0.1812  0.0221
 3965TIP3    H136090   5.422   1.481  17.641  0.6911 -1.5477 -0.1321
 3965TIP3    H236091   5.276   1.471  17.602  0.7785 -0.0817 -0.8927
 3966TIP3   OH236092   2.634   1.394  19.071  0.0896 -0.3766 -0.2959
 3966TIP3    H136093   2.714   1.356  19.036  0.0737  0.0518 -0.8186
 3966TIP3    H236094   2.634   1.371  19.163  0.5240 -0.8726 -0.4207
 3967TIP3   OH236095   1.502   6.144  19.771 -0.1426 -0.2178 -0.3223
 3967TIP3    H136096   1.512   6.239  19.769  3.3133 -0.4822 -0.7450
 3967TIP3    H236097   1.434   6.129  19.837  0.6047  2.4895  1.2197
 3968TIP3   OH236098   1.017   6.177  19.434 -0.4606  0.3075 -0.8758
 3968TIP3    H136099   0.966   6.247  19.393 -0.1669  0.6920 -0.5899
 3968TIP3    H236100   1.058   6.218  19.510 -0.8106 -0.3426 -0.3240
 3969TIP3   OH236101   1.301   6.000  18.667 -0.1546 -0.1524  0.3727
 3969TIP3    H136102   1.206   6.001  18.657 -0.5165  0.4984  3.1772
 3969TIP3    H236103   1.331   6.070  18.608 -1.7340  1.6435  1.5775
 3970TIP3   OH236104   3.966   0.181  18.458  0.4685 -0.2353  0.4261
 3970TIP3    H136105   4.043   0.237  18.467  0.2669  0.3994 -1.4331
 3970TIP3    H236106   3.895   0.232  18.497  0.6197  0.0485  0.3347
 3971TIP3   OH236107   5.010   6.289  20.546 -0.0438 -0.3492  0.4139
 3971TIP3    H136108   4.946   6.242  20.492  0.1246  0.3461 -0.4151
 3971TIP3    H236109   5.022   6.233  20.623 -0.5934 -1.1721 -0.0787
 3972TIP3   OH236110   1.019   6.630  17.954 -0.1820  0.3064  0.7837
 3972TIP3    H136111   1.072   6.691  17.903  0.7533 -1.0307  0.0866
 3972TIP3    H236112   1.082   6.567  17.989 -1.2454 -1.0543  0.3403
 3973TIP3   OH236113   3.030   6.047  20.504  0.3077  0.1052  0.4137
 3973TIP3    H136114   2.958   6.046  20.442  0.8468 -0.6380 -0.2180
 3973TIP3    H236115   2.996   6.000  20.581  0.2932 -0.7522 -0.1040
 3974TIP3   OH236116   3.971   2.443  20.484 -0.6260  0.0186  0.2050
 3974TIP3    H136117   3.879   2.465  20.498 -0.1944  1.2716  1.2982
 3974TIP3    H236118   3.987   2.457  20.391 -1.5325 -0.2226  0.0108
 3975TIP3   OH236119   5.529   3.254  18.839  0.1276  0.1145 -0.7023
 3975TIP3    H136120   5.580   3.279  18.763 -2.4229 -1.5477 -3.1577
 3975TIP3    H236121   5.526   3.158  18.836 -2.5258  0.0957 -0.3883
 3976TIP3   OH236122   2.294   1.031  19.241 -0.2866 -0.0429 -0.2057
 3976TIP3    H136123   2.282   1.125  19.251 -0.8103 -0.0516 -0.6971
 3976TIP3    H236124   2.357   1.022  19.170 -1.5207 -0.0664 -1.3555
 3977TIP3   OH236125   2.992   3.176  18.038  0.1769 -0.0537  0.1492
 3977TIP3    H136126   3.013   3.086  18.063 -0.6933  0.0815  1.4454
 3977TIP3    H236127   2.943   3.211  18.112 -1.0309  0.9291 -1.0544
 3978TIP3   OH236128   4.113   5.235  20.658 -0.5502  0.7530  0.3312
 3978TIP3    H136129   4.162   5.165  20.614 -0.5024  1.3179 -0.5483
 3978TIP3    H236130   4.157   5.245  20.742 -0.5770 -0.2922  0.4862
 3979TIP3   OH236131   2.712   5.479  17.866 -0.2984  0.1529  0.0765
 3979TIP3    H136132   2.764   5.469  17.787 -0.8810  2.0263 -0.6090
 3979TIP3    H236133   2.684   5.390  17.888  1.4910 -0.6352 -0.6712
 3980TIP3   OH236134   6.301   2.210  20.450  0.3907  0.3664  0.4827
 3980TIP3    H136135   6.311   2.162  20.532 -0.8484  0.0688  0.4877
 3980TIP3    H236136   6.336   2.297  20.467  0.7081  0.1122  1.1318
 3981TIP3   OH236137   4.473   6.306  19.843 -0.0945 -0.0779  0.7098
 3981TIP3    H136138   4.430   6.233  19.886  0.3441 -0.2329  0.8902
 3981TIP3    H236139   4.430   6.384  19.878  0.2745 -0.1982  1.4539
 3982TIP3   OH236140   5.399   4.150  20.507 -0.3576 -0.6936  0.1292
 3982TIP3    H136141   5.354   4.232  20.525  0.1617 -0.4170  0.1680
 3982TIP3    H236142   5.442   4.164  20.423 -0.4884 -1.0199  0.0049
 3983TIP3   OH236143   2.615   4.997  19.843 -0.0558 -0.1475  0.4846
 3983TIP3    H136144   2.563   4.951  19.777 -0.3162  1.1613 -0.2679
 3983TIP3    H236145   2.703   5.001  19.806 -0.4845  1.7558 -0.4708
 3984TIP3   OH236146   4.306   0.326  19.669  0.3363 -0.1583 -0.1206
 3984TIP3    H136147   4.387   0.331  19.721  0.6726  1.5415 -0.7258
 3984TIP3    H236148   4.250   0.394  19.706 -0.3370 -0.5004 -0.5014
 3985TIP3   OH236149   0.700   4.319  18.840 -0.0998 -0.5567  0.5072
 3985TIP3    H136150   0.617   4.319  18.888 -0.5719 -0.8360 -0.2915
 3985TIP3    H236151   0.753   4.252  18.883 -0.4832 -0.7354  0.7061
 3986TIP3   OH236152   5.317   4.036  19.215  0.3034  0.1630  0.2555
 3986TIP3    H136153   5.359   3.993  19.289  3.0953 -0.5943 -1.5732
 3986TIP3    H236154   5.238   4.075  19.251  1.1968 -0.6638  3.4590
 3987TIP3   OH236155   6.241   5.197  20.078  0.4424  0.1172 -0.4720
 3987TIP3    H136156   6.206   5.118  20.037  0.4431  0.9239 -2.1028
 3987TIP3    H236157   6.331   5.203  20.046  1.2669 -0.4990  1.5819
 3988TIP3   OH236158   4.659   2.744  20.873 -0.4868 -0.6195 -0.0851
 3988TIP3    H136159   4.643   2.832  20.837  1.1045 -0.1063  0.3720
 3988TIP3    H236160   4.711   2.700  20.806  0.4017 -0.5061  0.5116
 3989TIP3   OH236161   3.597   0.084  17.911  0.4853  0.5943  0.5554
 3989TIP3    H136162   3.575   0.132  17.831  0.0605  0.4261  0.5686
 3989TIP3    H236163   3.575  -0.007  17.892  2.9235  0.0855 -0.0896
 3990TIP3   OH236164   1.459   0.430  19.086  0.2466 -0.4774 -0.5874
 3990TIP3    H136165   1.379   0.411  19.136  1.0927 -0.1742  0.9415
 3990TIP3    H236166   1.481   0.347  19.043 -0.5478 -0.7192 -0.5380
 3991TIP3   OH236167   4.584   3.901  20.691  0.1081  0.1611 -0.4231
 3991TIP3    H136168   4.551   3.813  20.673  0.7966 -0.3574  0.7752
 3991TIP3    H236169   4.668   3.888  20.735 -0.2622  1.3892  0.7410
 3992TIP3   OH236170   5.524   1.945  18.688 -0.4268  0.3405 -0.1214
 3992TIP3    H136171   5.541   1.901  18.771  0.8856  1.0556  0.0212
 3992TIP3    H236172   5.457   1.892  18.645  0.0354 -0.9273  0.6897
 3993TIP3   OH236173   4.946   0.868  20.080 -0.0509  0.0759 -0.4281
 3993TIP3    H136174   4.852   0.872  20.067 -0.1151 -1.5803 -0.6653
 3993TIP3    H236175   4.972   0.959  20.097 -1.5131  0.7145 -1.4331
 3994TIP3   OH236176   2.358   2.725  19.763 -0.1635  0.0410  0.1230
 3994TIP3    H136177   2.269   2.744  19.792 -0.6168  1.5259 -1.9566
 3994TIP3    H236178   2.407   2.706  19.843 -1.6786  2.1117  1.6472
 3995TIP3   OH236179   6.129   5.769  19.652  0.2967  0.2765 -0.3559
 3995TIP3    H136180   6.172   5.684  19.637 -0.8132  0.0361 -2.6091
 3995TIP3    H236181   6.170   5.828  19.589 -1.0990  0.5653 -1.0474
 3996TIP3   OH236182   0.826   0.768  19.365  0.7498  0.3812  0.3638
 3996TIP3    H136183   0.753   0.775  19.304  0.4098  0.3189  0.7607
 3996TIP3    H236184   0.895   0.821  19.325  0.8741 -0.4355 -0.5575
 3997TIP3   OH236185   2.791   2.618  20.834 -0.0379  0.1583 -0.6570
 3997TIP3    H136186   2.698   2.601  20.821 -0.4601 -1.1145  2.8854
 3997TIP3    H236187   2.797   2.713  20.844 -0.5504  0.4887 -2.9901
 3998TIP3   OH236188   1.199   3.259  19.782 -0.1898 -0.3909  0.3102
 3998TIP3    H136189   1.196   3.164  19.771  2.3288 -0.4821 -0.2728
 3998TIP3    H236190   1.246   3.273  19.864  0.5028  0.3213 -0.1847
 3999TIP3   OH236191   4.390   5.663  18.879 -0.6475  0.0836 -0.0294
 3999TIP3    H136192   4.383   5.751  18.840  1.2617  0.3924  0.2644
 3999TIP3    H236193   4.371   5.677  18.972  0.3579  0.3300  0.1498
 4000TIP3   OH236194   3.410   1.249  19.566 -0.5497 -0.1520 -0.2705
 4000TIP3    H136195   3.468   1.324  19.572 -0.8793  0.1189 -0.4105
 4000TIP3    H236196   3.331   1.283  19.524 -0.2353 -0.8536 -1.4876
 4001TIP3   OH236197   2.520   2.757  18.911 -0.0144  0.3255  0.1695
 4001TIP3    H136198   2.447   2.718  18.864  1.1832 -0.9831 -0.7074
 4001TIP3    H236199   2.543   2.692  18.978 -0.2892  1.1847  1.1203
 4002TIP3   OH236200   6.611   2.192  18.231 -0.6377  0.5261  0.3132
 4002TIP3    H136201   6.686   2.201  18.172 -0.5120 -2.8690 -0.2715
 4002TIP3    H236202   6.598   2.097  18.239 -1.6884  0.7966  4.4679
 4003TIP3   OH236203   3.913   1.983  19.814 -0.1328 -0.4074 -0.0189
 4003TIP3    H136204   3.838   2.030  19.853  0.2648  0.0167  0.2511
 4003TIP3    H236205   3.982   1.992  19.879  0.6399  0.5598 -0.9349
 4004TIP3   OH236206   1.179   1.281  16.507  0.5533  0.2715  0.3771
 4004TIP3    H136207   1.137   1.365  16.487  3.4220  1.3712 -1.9681
 4004TIP3    H236208   1.126   1.216  16.461  0.0415  1.2473 -0.4504
 4005TIP3   OH236209   6.543   0.406  20.404 -0.1132  0.2510  0.1044
 4005TIP3    H136210   6.615   0.397  20.467 -0.4588 -0.0095  0.4718
 4005TIP3    H236211   6.571   0.355  20.329  0.8852  1.6275 -0.4982
 4006TIP3   OH236212   0.482   3.935  18.922 -0.0112 -0.0191  0.1829
 4006TIP3    H136213   0.548   3.976  18.978 -0.5421 -1.3195  1.8255
 4006TIP3    H236214   0.412   4.000  18.916  0.3074  0.3616  0.5532
 4007TIP3   OH236215   0.163   5.020  20.594 -0.3763 -0.2536 -0.1605
 4007TIP3    H136216   0.237   5.060  20.548  1.3428 -1.6479  1.2296
 4007TIP3    H236217   0.098   5.089  20.600  0.8477  1.0693 -1.3550
 4008TIP3   OH236218   2.068   6.741  19.955  0.1582 -0.2751  0.0010
 4008TIP3    H136219   2.047   6.681  20.027  1.4039  0.0065  0.6289
 4008TIP3    H236220   2.045   6.828  19.989 -0.0720 -0.2242 -0.2812
 4009TIP3   OH236221   0.016   2.881  18.849  0.1227 -0.2747 -0.2300
 4009TIP3    H136222   0.092   2.921  18.891  0.1443 -0.7243  0.1707
 4009TIP3    H236223  -0.052   2.882  18.917  0.0165 -0.5972 -0.3314
 4010TIP3   OH236224   0.792   0.220  18.756  0.1578 -1.0107 -0.6623
 4010TIP3    H136225   0.799   0.167  18.677  0.3784  0.6745 -1.8314
 4010TIP3    H236226   0.701   0.251  18.757  0.2281 -0.8057 -0.4019
 4011TIP3   OH236227   3.111   4.840  18.830  0.5325 -0.2039 -0.1590
 4011TIP3    H136228   3.174   4.802  18.768 -0.0484 -0.3121 -0.7004
 4011TIP3    H236229   3.033   4.856  18.776 -0.9475 -2.7094  1.0490
 4012TIP3   OH236230   3.148   1.027  18.949 -0.0819 -0.5450  0.9746
 4012TIP3    H136231   3.060   0.996  18.969 -0.2139 -0.3491  0.7079
 4012TIP3    H236232   3.153   1.022  18.853 -0.0548  0.1239  0.9380
 4013TIP3   OH236233   3.067   3.959  19.751 -0.1397 -0.0059  0.1351
 4013TIP3    H136234   3.139   4.012  19.784 -1.2787  1.6440  0.0605
 4013TIP3    H236235   3.084   3.950  19.658  0.2923 -0.1656  0.2275
 4014TIP3   OH236236   3.771   2.438  18.227  0.5943 -0.4890  0.2886
 4014TIP3    H136237   3.856   2.432  18.181  0.5765  0.4797  0.1219
 4014TIP3    H236238   3.731   2.352  18.212  2.3089 -1.6630  1.9067
 4015TIP3   OH236239   1.877   6.527  18.251  0.1104 -0.3704  0.0590
 4015TIP3    H136240   1.968   6.541  18.277  0.3681 -0.1742 -0.9241
 4015TIP3    H236241   1.857   6.438  18.281  1.2843 -1.2106 -1.5262
 4016TIP3   OH236242   6.375   3.715  18.861 -0.3208  1.0339  0.0470
 4016TIP3    H136243   6.339   3.697  18.948 -0.0510 -1.4892 -0.2788
 4016TIP3    H236244   6.437   3.786  18.875 -0.9200  1.2702  1.7445
 4017TIP3   OH236245   5.674   2.692  18.687 -0.4611 -0.2120  0.2818
 4017TIP3    H136246   5.710   2.721  18.771  0.8450  0.7966 -0.5902
 4017TIP3    H236247   5.674   2.596  18.693 -1.2653 -0.1439  1.7654
 4018TIP3   OH236248   3.731   5.175  18.235 -0.6215  0.1206 -0.2483
 4018TIP3    H136249   3.731   5.094  18.285 -0.0480  0.5822  0.5238
 4018TIP3    H236250   3.641   5.207  18.242 -0.3758  0.6053  1.2431
 4019TIP3   OH236251   0.878   5.890  20.449 -0.2504  0.7721 -0.1021
 4019TIP3    H136252   0.931   5.945  20.507  2.5752 -1.5872 -0.2250
 4019TIP3    H236253   0.878   5.936  20.365  0.8300  1.2841  0.1683
 4020TIP3   OH236254   0.977   4.184  17.961  0.2082 -0.4998  0.0282
 4020TIP3    H136255   1.005   4.110  18.014  4.2069  0.5867 -0.2508
 4020TIP3    H236256   1.005   4.261  18.011  0.1168  0.6720 -1.6368
 4021TIP3   OH236257   0.162   2.812  19.163 -0.0212  0.1678  0.3632
 4021TIP3    H136258   0.210   2.759  19.227 -1.6746 -0.1661  1.3990
 4021TIP3    H236259   0.096   2.752  19.127 -0.1728  0.8037 -0.4488
 4022TIP3   OH236260   1.296   3.869  19.105  0.0896  0.5130  0.4451
 4022TIP3    H136261   1.330   3.816  19.177 -1.3015  0.8330  1.3842
 4022TIP3    H236262   1.361   3.860  19.035  0.4416 -1.5010  0.9840
 4023TIP3   OH236263   4.860   4.642  20.858  0.5221  0.7022  0.4130
 4023TIP3    H136264   4.903   4.688  20.930 -0.6460  2.1985  0.2118
 4023TIP3    H236265   4.932   4.601  20.809  1.3634  0.0222  2.1433
 4024TIP3   OH236266   6.721   5.052  20.322 -0.1131 -0.3142 -0.0200
 4024TIP3    H136267   6.649   4.992  20.307  0.9734 -1.7806  0.3887
 4024TIP3    H236268   6.770   5.051  20.239  0.7703 -1.2415  0.4897
 4025TIP3   OH236269   3.175   6.008  19.839  0.4350  0.0161 -0.3877
 4025TIP3    H136270   3.251   5.950  19.849  0.0606 -0.6876 -1.5064
 4025TIP3    H236271   3.164   6.047  19.926 -1.4572 -4.2790  1.6211
 4026TIP3   OH236272   5.825   0.898  16.902  0.1780 -0.1200 -0.7019
 4026TIP3    H136273   5.870   0.981  16.919 -0.6041  0.4914 -1.4945
 4026TIP3    H236274   5.809   0.898  16.808  0.3367 -1.2765 -0.7443
 4027TIP3   OH236275   0.022   0.701  19.399  0.1254 -0.4808 -0.8571
 4027TIP3    H136276  -0.046   0.767  19.413  0.9889  0.0282  1.2605
 4027TIP3    H236277   0.044   0.670  19.486  2.6909 -0.5420 -1.4417
 4028TIP3   OH236278   3.666   3.154  17.969  0.0135  0.1680 -1.0792
 4028TIP3    H136279   3.597   3.176  17.907  1.0330 -1.0722 -2.7342
 4028TIP3    H236280   3.746   3.156  17.918  1.1178  0.7098  0.6034
 4029TIP3   OH236281   0.735   6.651  20.237 -0.3622 -0.1119 -0.7546
 4029TIP3    H136282   0.665   6.585  20.244 -0.3711 -0.1370 -1.0664
 4029TIP3    H236283   0.798   6.626  20.304  0.3228 -1.2694 -1.8042
 4030TIP3   OH236284   6.089   6.572  19.149 -0.1503 -0.0472  0.1238
 4030TIP3    H136285   6.180   6.542  19.156 -0.1561  0.0006  0.4274
 4030TIP3    H236286   6.038   6.492  19.134 -0.1150 -0.1357  0.4795
 4031TIP3   OH236287   4.863   0.743  18.861  0.3567 -0.6994 -0.1423
 4031TIP3    H136288   4.887   0.670  18.919  0.2554 -0.6168  0.0022
 4031TIP3    H236289   4.936   0.749  18.799 -0.0801 -1.5664 -0.7782
 4032TIP3   OH236290   5.507   2.604  17.681 -0.0903  0.0965  0.2381
 4032TIP3    H136291   5.587   2.656  17.679 -0.8850  1.7745  3.7213
 4032TIP3    H236292   5.537   2.516  17.703  0.8445  0.7468  1.7366
 4033TIP3   OH236293   4.054   0.128  18.210  0.2653  0.0312 -0.2552
 4033TIP3    H136294   3.983   0.147  18.148  1.3316  2.4738 -0.8277
 4033TIP3    H236295   4.014   0.137  18.296 -0.9172 -2.0972 -0.5189
 4034TIP3   OH236296   3.232   1.521  18.825 -0.7057  0.0823 -0.5352
 4034TIP3    H136297   3.148   1.556  18.855 -0.5957  0.4834 -0.6802
 4034TIP3    H236298   3.247   1.444  18.880 -2.0200 -1.0628 -1.7386
 4035TIP3   OH236299   3.391   1.196  16.538 -0.0038  0.3842 -0.3114
 4035TIP3    H136300   3.476   1.216  16.577  1.0238  1.8987 -3.0102
 4035TIP3    H236301   3.394   1.103  16.518  0.5877  0.2116  0.5793
 4036TIP3   OH236302   5.228   4.605  18.730  0.0989  0.3416 -0.2945
 4036TIP3    H136303   5.257   4.623  18.640  0.0222  0.6776 -0.2515
 4036TIP3    H236304   5.202   4.690  18.765  0.6935  0.3017  0.2578
 4037TIP3   OH236305   0.079   0.954  18.161 -0.1831 -0.1015  0.0560
 4037TIP3    H136306   0.098   0.916  18.075 -1.1220  0.2322 -0.2974
 4037TIP3    H236307   0.123   0.894  18.222 -0.0858 -0.7257 -0.6047
 4038TIP3   OH236308   1.463   1.720  20.324  0.0156 -0.1038  0.4681
 4038TIP3    H136309   1.427   1.633  20.304  0.7903 -0.6086  1.1774
 4038TIP3    H236310   1.555   1.714  20.298  0.0494  0.5406  0.4254
 4039TIP3   OH236311   4.234   5.159  19.860 -0.2158 -0.1729  0.1639
 4039TIP3    H136312   4.230   5.090  19.926 -1.6808  0.6616  1.0001
 4039TIP3    H236313   4.325   5.159  19.831  0.2433 -1.1881  1.5026
 4040TIP3   OH236314   5.082   5.732  20.908  0.4624  0.0025 -0.1565
 4040TIP3    H136315   5.118   5.679  20.836  0.3253  0.3326 -0.4668
 4040TIP3    H236316   5.140   5.808  20.913  0.4809 -0.0280  0.0947
 4041TIP3   OH236317   5.880   0.084  20.066  0.3709 -0.0014 -0.2294
 4041TIP3    H136318   5.891   0.090  19.971  0.5247  1.0170 -0.1519
 4041TIP3    H236319   5.912   0.167  20.099 -2.0974  0.7175  0.5107
 4042TIP3   OH236320   0.963   5.602  19.561 -0.0003  0.1016 -0.7412
 4042TIP3    H136321   0.911   5.678  19.535  1.2045  0.8399 -1.0755
 4042TIP3    H236322   0.957   5.600  19.656 -0.7373  0.0934 -0.7799
 4043TIP3   OH236323   1.985   3.742  17.625  0.4224 -0.0952 -0.3759
 4043TIP3    H136324   2.035   3.820  17.602 -1.4393  1.0192 -0.8837
 4043TIP3    H236325   1.984   3.689  17.546 -0.5188  0.6593 -0.8960
 4044TIP3   OH236326   3.922   3.146  18.458  0.5560  0.6384  0.4705
 4044TIP3    H136327   3.986   3.213  18.434 -1.7581  2.6780 -0.4729
 4044TIP3    H236328   3.837   3.190  18.449 -1.0055 -1.9196  1.6214
 4045TIP3   OH236329   5.765   3.764  20.165 -0.4159  0.7491  0.2919
 4045TIP3    H136330   5.738   3.856  20.163 -1.1903  0.5586  1.4650
 4045TIP3    H236331   5.711   3.722  20.098  3.0540  1.8565 -3.6841
 4046TIP3   OH236332   2.011   4.762  20.087  1.2874 -0.3079 -0.1014
 4046TIP3    H136333   2.081   4.821  20.060  2.1408  0.7125  3.7223
 4046TIP3    H236334   2.053   4.701  20.148 -0.9592  0.0225  1.9425
 4047TIP3   OH236335   3.442   2.066  17.186  1.0163  0.3602  0.5930
 4047TIP3    H136336   3.516   2.126  17.189  0.6554  0.9909 -1.6577
 4047TIP3    H236337   3.478   1.984  17.152  1.0592 -0.0053  1.4853
 4048TIP3   OH236338   6.363   3.418  20.274 -0.5046  0.0392  0.0100
 4048TIP3    H136339   6.430   3.434  20.209 -0.1834  1.2466  0.6173
 4048TIP3    H236340   6.316   3.341  20.241  2.1345 -1.8773  0.3305
 4049TIP3   OH236341   6.282   6.446  19.971  0.2787  0.9419  0.0084
 4049TIP3    H136342   6.259   6.388  20.044 -1.1922 -0.0333 -1.1658
 4049TIP3    H236343   6.215   6.515  19.973 -1.3647 -0.4854 -1.8777
 4050TIP3   OH236344   5.829   3.075  18.717 -0.6403  0.4110  0.7786
 4050TIP3    H136345   5.812   3.161  18.678  1.4572  0.9403  0.9345
 4050TIP3    H236346   5.924   3.070  18.725 -0.7503 -1.6555  1.4284
 4051TIP3   OH236347   4.714   0.694  18.392 -0.2540  0.0476 -0.2738
 4051TIP3    H136348   4.800   0.659  18.371 -0.2671 -0.2758  0.1886
 4051TIP3    H236349   4.704   0.769  18.333 -0.1509 -0.6058 -1.1503
 4052TIP3   OH236350   1.092   4.466  18.056  0.1869  0.2387  0.3056
 4052TIP3    H136351   1.092   4.560  18.072 -0.4627  0.0873  1.2809
 4052TIP3    H236352   1.145   4.430  18.126 -1.4875 -0.3115  1.3497
 4053TIP3   OH236353   0.784   5.720  17.730  0.1910  0.2584  0.3105
 4053TIP3    H136354   0.764   5.658  17.800 -1.5127 -1.9998 -1.9675
 4053TIP3    H236355   0.705   5.774  17.724 -0.9609 -1.4620 -1.5821
 4054TIP3   OH236356   0.642   1.529  20.028 -0.3139 -0.7869  0.4588
 4054TIP3    H136357   0.714   1.576  20.070  0.7060  2.0276 -3.7592
 4054TIP3    H236358   0.685   1.464  19.973 -1.0967 -0.6114 -0.3880
 4055TIP3   OH236359   2.950   6.185  19.369 -0.5818  0.0686  0.0334
 4055TIP3    H136360   3.036   6.154  19.397 -0.1194  2.2666  1.2642
 4055TIP3    H236361   2.923   6.123  19.302  3.3710  0.9173 -2.7203
 4056TIP3   OH236362   4.930   5.000  20.709 -0.3714 -0.2067 -0.1436
 4056TIP3    H136363   4.999   4.970  20.648 -1.1976 -0.8756 -0.7723
 4056TIP3    H236364   4.867   4.928  20.710 -0.9338  0.2896  0.6456
 4057TIP3   OH236365   2.783   6.176  17.094  0.5304  0.1160 -0.0117
 4057TIP3    H136366   2.865   6.160  17.141  1.1701 -2.3997 -1.7611
 4057TIP3    H236367   2.716   6.134  17.147  0.7745 -0.1067  0.1232
 4058TIP3   OH236368   2.785   4.483  19.348 -0.1729  0.0827 -0.1286
 4058TIP3    H136369   2.836   4.549  19.301 -1.7323  1.4467  0.0113
 4058TIP3    H236370   2.694   4.511  19.340 -0.9783 -2.3306 -0.4661
 4059TIP3   OH236371   5.104   6.433  18.270  0.3507  0.1559 -0.1912
 4059TIP3    H136372   5.108   6.473  18.357  0.6127 -0.4554  0.0835
 4059TIP3    H236373   5.011   6.427  18.250  0.2341 -0.8291  0.5848
 4060TIP3   OH236374   0.090   3.961  19.440  0.0047  0.3055 -0.3942
 4060TIP3    H136375  -0.005   3.950  19.432  0.1455 -0.7482 -0.8567
 4060TIP3    H236376   0.126   3.904  19.372  1.0143 -0.5062  0.7764
 4061TIP3   OH236377   3.432   4.976  19.158  0.3385  0.1200  0.0889
 4061TIP3    H136378   3.398   5.032  19.088 -0.4229 -1.4429 -0.8443
 4061TIP3    H236379   3.512   4.939  19.122  0.8973  0.6383  0.7471
 4062TIP3   OH236380   4.667   3.660  19.679 -0.5248 -0.1599  0.6417
 4062TIP3    H136381   4.669   3.756  19.675  0.7931 -0.1748  0.4259
 4062TIP3    H236382   4.611   3.640  19.755 -2.0061  0.7280 -0.1810
 4063TIP3   OH236383   4.144   6.173  18.525 -0.3427  0.3192 -0.4257
 4063TIP3    H136384   4.230   6.213  18.530 -0.6239  1.0484 -1.1590
 4063TIP3    H236385   4.133   6.152  18.432 -0.4417 -0.9410 -0.1488
 4064TIP3   OH236386   1.063   4.735  18.119 -0.0923  0.7468  0.3013
 4064TIP3    H136387   1.001   4.744  18.046  0.3927  1.2107 -0.0583
 4064TIP3    H236388   1.122   4.809  18.110  0.7889  0.0732  0.3722
 4065TIP3   OH236389   6.599   5.411  19.057 -0.3169 -0.0625  0.3147
 4065TIP3    H136390   6.536   5.412  19.128  0.5489  2.0336  1.1371
 4065TIP3    H236391   6.681   5.442  19.096  0.9270 -1.4751 -1.0007
 4066TIP3   OH236392   0.215   4.767  18.510  0.1127 -0.5392  0.2137
 4066TIP3    H136393   0.266   4.746  18.588 -0.3420  0.4967  0.8156
 4066TIP3    H236394   0.140   4.707  18.514  1.1213 -1.8839 -0.5358
 4067TIP3   OH236395   3.485   2.257  20.572 -0.2766 -0.3980 -0.0419
 4067TIP3    H136396   3.518   2.178  20.616  1.8968  0.8303  0.7400
 4067TIP3    H236397   3.416   2.289  20.630  1.0087 -0.0467  1.3961
 4068TIP3   OH236398   2.739   0.955  19.279 -0.0104 -0.1926  0.3421
 4068TIP3    H136399   2.762   1.036  19.325  2.2546 -0.3252 -0.4180
 4068TIP3    H236400   2.725   0.891  19.349  0.7256  0.2560  0.9160
 4069TIP3   OH236401   2.963   3.656  20.575 -0.9495 -0.3231  0.3922
 4069TIP3    H136402   2.996   3.743  20.599  2.9489 -1.3923 -0.4524
 4069TIP3    H236403   2.944   3.662  20.482 -0.6320 -0.3660  0.3217
 4070TIP3   OH236404   0.890   1.523  18.608 -0.3219 -0.0279 -0.2130
 4070TIP3    H136405   0.855   1.576  18.679 -0.1130 -2.8407  2.2123
 4070TIP3    H236406   0.974   1.490  18.642  0.6456 -0.0884 -2.5033
 4071TIP3   OH236407   1.235   0.495  20.330 -0.0324 -0.3132 -0.4772
 4071TIP3    H136408   1.168   0.445  20.377  0.9918 -1.1839  0.1051
 4071TIP3    H236409   1.258   0.566  20.391 -0.7139  0.2613 -0.8629
 4072TIP3   OH236410   4.742   3.143  17.955  0.2942 -0.4410 -0.1489
 4072TIP3    H136411   4.758   3.236  17.966 -2.4709  0.3889 -2.1307
 4072TIP3    H236412   4.824   3.108  17.921  0.6422  1.7644 -1.7748
 4073TIP3   OH236413   6.518   0.205  18.301  0.1544  0.2691 -0.2693
 4073TIP3    H136414   6.441   0.234  18.351 -0.3564  0.4222 -1.1338
 4073TIP3    H236415   6.564   0.286  18.277 -1.9773  0.6274 -3.8285
 4074TIP3   OH236416   5.905   1.667  18.042  0.6007  0.7106 -1.0430
 4074TIP3    H136417   5.867   1.641  18.126  3.2688 -0.4568 -0.0977
 4074TIP3    H236418   5.831   1.665  17.981 -0.8139 -1.6445  0.5845
 4075TIP3   OH236419   2.606   6.041  17.603 -0.3081 -0.4097  0.3012
 4075TIP3    H136420   2.512   6.034  17.588 -0.5871  0.7389  1.3506
 4075TIP3    H236421   2.640   6.077  17.521 -1.1398  1.3888  0.6939
 4076TIP3   OH236422   3.011   1.366  20.294  0.4380 -0.2743  0.3857
 4076TIP3    H136423   2.949   1.341  20.363  1.3000  0.3433  1.4081
 4076TIP3    H236424   2.975   1.447  20.258 -0.4974 -1.0603 -0.5627
 4077TIP3   OH236425   1.536   6.311  18.501  0.4571  0.1086 -0.1813
 4077TIP3    H136426   1.576   6.336  18.418  1.8059  1.8244  0.9216
 4077TIP3    H236427   1.609   6.311  18.564 -0.8069  0.5490  1.3396
 4078TIP3   OH236428   4.107   6.475  19.902  0.1403 -0.0999  0.1170
 4078TIP3    H136429   4.015   6.503  19.901 -0.0492 -0.4587  2.4779
 4078TIP3    H236430   4.145   6.521  19.977  1.7509 -0.4114 -0.4869
 4079TIP3   OH236431   4.698   6.561  19.315  0.1091  0.1222 -0.1269
 4079TIP3    H136432   4.751   6.632  19.278  1.0701  1.0012  2.6941
 4079TIP3    H236433   4.710   6.568  19.410 -3.2839 -1.0983  0.5503
 4080TIP3   OH236434   3.156   6.542  20.618  0.3145  0.5256 -0.2869
 4080TIP3    H136435   3.145   6.508  20.529  0.8379  0.1610 -0.2106
 4080TIP3    H236436   3.223   6.487  20.658 -0.5094  0.1456  0.6179
 4081TIP3   OH236437   4.147   4.428  19.485  0.3382  0.3756 -0.2904
 4081TIP3    H136438   4.099   4.505  19.455  1.3295  1.6004  1.0993
 4081TIP3    H236439   4.218   4.417  19.421 -0.6198 -0.3077 -1.2903
 4082TIP3   OH236440   6.328   1.532  19.514  0.1671 -0.3419  0.2233
 4082TIP3    H136441   6.380   1.554  19.590 -0.0343  1.4079 -0.1003
 4082TIP3    H236442   6.240   1.514  19.549  0.2478 -0.2517  0.4733
 4083TIP3   OH236443   3.852   5.961  19.724  0.3789 -0.1514  0.3263
 4083TIP3    H136444   3.807   5.880  19.700  1.3061 -0.7137  0.4233
 4083TIP3    H236445   3.782   6.024  19.739 -0.3252 -0.6153 -0.8676
 4084TIP3   OH236446   0.120   4.703  18.187 -0.2072  0.1542 -0.0818
 4084TIP3    H136447   0.090   4.728  18.274 -0.0100  0.1752 -0.0184
 4084TIP3    H236448   0.042   4.670  18.143 -0.5406  1.1473 -0.2703
 4085TIP3   OH236449   4.360   2.369  17.996 -0.1873  0.0032 -0.2237
 4085TIP3    H136450   4.438   2.361  18.050  0.4839 -1.5691 -1.3406
 4085TIP3    H236451   4.289   2.339  18.052  0.2771 -0.2162  0.2577
 4086TIP3   OH236452   1.387   4.123  20.929 -0.4463  0.5228 -0.5067
 4086TIP3    H136453   1.457   4.187  20.939 -0.2586  0.6199 -2.1217
 4086TIP3    H236454   1.318   4.169  20.881 -1.0869  0.0540 -0.0594
 4087TIP3   OH236455   2.909   5.777  19.434 -0.3923 -0.5700 -0.4807
 4087TIP3    H136456   2.951   5.813  19.512 -2.0382  0.2447  0.0703
 4087TIP3    H236457   2.857   5.849  19.399  0.1248 -0.9976 -2.2258
 4088TIP3   OH236458   3.315   0.436  18.766  0.4857 -0.1257  0.1302
 4088TIP3    H136459   3.224   0.427  18.793 -0.2173  1.9087 -1.3014
 4088TIP3    H236460   3.341   0.523  18.798  1.2542  0.1662 -1.2192
 4089TIP3   OH236461   6.447   0.528  17.480  0.3479  0.0208 -0.4908
 4089TIP3    H136462   6.492   0.504  17.561  0.2299  0.0283 -0.4238
 4089TIP3    H236463   6.472   0.459  17.418  1.3486  0.6092 -0.7787
 4090TIP3   OH236464   3.605   4.296  18.505 -0.5301 -0.3544 -0.6187
 4090TIP3    H136465   3.653   4.289  18.588 -1.0588  0.5740 -0.2187
 4090TIP3    H236466   3.602   4.390  18.487  0.3169 -0.5891 -2.1419
 4091TIP3   OH236467   1.150   5.625  17.607  0.2249 -0.2182 -0.4322
 4091TIP3    H136468   1.210   5.646  17.535  1.8220  0.5819  1.0784
 4091TIP3    H236469   1.097   5.553  17.573  0.7100  0.3325 -2.5197
 4092TIP3   OH236470   3.680   4.974  20.009 -0.4445  0.3513  0.0973
 4092TIP3    H136471   3.658   4.881  20.015  0.0161  0.2408  0.0916
 4092TIP3    H236472   3.775   4.976  20.007 -0.4532  0.8254  0.0873
 4093TIP3   OH236473   5.529   5.785  19.533  0.0281  0.5010 -0.0541
 4093TIP3    H136474   5.596   5.717  19.523  0.5467  1.0440 -0.3752
 4093TIP3    H236475   5.489   5.768  19.617  0.6445  0.2178  0.1856
 4094TIP3   OH236476   3.449   1.204  18.060  0.5305 -0.2293  0.1564
 4094TIP3    H136477   3.374   1.237  18.012  0.9129 -0.1301 -0.3833
 4094TIP3    H236478   3.427   1.217  18.152  0.1031  0.2554 -0.0141
 4095TIP3   OH236479   6.264   3.115  20.545 -0.0060  0.0401 -0.2866
 4095TIP3    H136480   6.194   3.180  20.547 -1.0879 -1.0404 -1.4323
 4095TIP3    H236481   6.238   3.049  20.609 -0.3551 -0.6399 -1.1015
 4096TIP3   OH236482   4.386   2.414  18.874  0.3423 -0.2690 -0.4887
 4096TIP3    H136483   4.318   2.450  18.931  0.9447  0.7789 -0.4259
 4096TIP3    H236484   4.430   2.348  18.928 -0.1219 -0.4170 -0.2819
 4097TIP3   OH236485   6.472   3.005  18.994 -0.0206  0.2851  0.3503
 4097TIP3    H136486   6.455   2.917  19.027  1.8783 -0.6620 -0.9997
 4097TIP3    H236487   6.444   3.063  19.065  1.2273 -1.5294  2.4520
 4098TIP3   OH236488   1.338   0.603  18.868  0.7795  0.1072 -0.1109
 4098TIP3    H136489   1.354   0.562  18.953  1.5514  1.0751  0.2384
 4098TIP3    H236490   1.302   0.533  18.813  0.7510 -0.6596  0.8588
 4099TIP3   OH236491   6.283   3.919  19.437  0.3816  0.1639 -0.1415
 4099TIP3    H136492   6.251   3.850  19.496  1.5147  0.4781  0.8872
 4099TIP3    H236493   6.313   3.872  19.359  2.7144 -0.7496  1.2182
 4100TIP3   OH236494   0.332   6.010  17.968 -0.2734  0.0779 -0.8261
 4100TIP3    H136495   0.289   6.011  17.882 -1.4082 -0.4992 -0.2904
 4100TIP3    H236496   0.262   6.029  18.030  0.0098 -1.8019  0.1490
 4101TIP3   OH236497   2.549   1.548  20.624  0.1394  0.3305  0.0324
 4101TIP3    H136498   2.476   1.608  20.639 -0.1574  0.5370 -1.9406
 4101TIP3    H236499   2.616   1.603  20.583  1.0822 -0.0544  0.9963
 4102TIP3   OH236500   1.304   0.245  18.313  0.1037 -0.0376  0.4379
 4102TIP3    H136501   1.220   0.238  18.359  0.1746 -0.7800  0.4589
 4102TIP3    H236502   1.313   0.339  18.295 -0.4529  0.1240  0.9536
 4103TIP3   OH236503   5.906   5.225  19.548 -0.2823 -0.3757 -0.4138
 4103TIP3    H136504   5.966   5.161  19.586 -0.5984  0.0326  0.8346
 4103TIP3    H236505   5.963   5.288  19.504  0.1106 -0.7809 -0.4923
 4104TIP3   OH236506   4.454   2.331  20.518  0.0263  0.1678 -0.0458
 4104TIP3    H136507   4.433   2.363  20.605  0.3214  1.1553 -0.3198
 4104TIP3    H236508   4.371   2.300  20.483 -0.1286 -0.0507  0.5088
 4105TIP3   OH236509   3.477   1.699  19.081  0.3056 -0.4054 -0.6143
 4105TIP3    H136510   3.410   1.689  19.148  0.4982 -1.1766 -0.5250
 4105TIP3    H236511   3.559   1.702  19.129  0.3932 -0.2705 -0.7727
 4106TIP3   OH236512   3.579   0.195  17.113 -0.7224  0.4102 -0.1000
 4106TIP3    H136513   3.486   0.197  17.136 -0.7842  0.9796 -0.3687
 4106TIP3    H236514   3.591   0.110  17.071 -1.5295  1.0136 -1.6368
 4107TIP3   OH236515   5.547   5.523  20.729 -0.0543 -0.3825 -0.1502
 4107TIP3    H136516   5.608   5.594  20.714  0.3767 -0.5888  0.6085
 4107TIP3    H236517   5.488   5.555  20.797  0.7196 -1.0820  0.8793
 4108TIP3   OH236518   0.230   4.199  19.518  0.1307 -0.1826 -0.0487
 4108TIP3    H136519   0.183   4.279  19.542  1.2251  0.5566 -0.2548
 4108TIP3    H236520   0.176   4.128  19.551 -1.7948  0.5533 -1.4358
 4109TIP3   OH236521   2.927   3.930  17.880 -0.0369  0.3402  0.2814
 4109TIP3    H136522   2.999   3.983  17.848  0.0523 -1.2786 -2.5223
 4109TIP3    H236523   2.961   3.841  17.883 -1.6583 -0.3550 -0.3953
 4110TIP3   OH236524   1.250   3.187  20.080  0.3757 -0.1118 -0.1155
 4110TIP3    H136525   1.261   3.108  20.132  0.8041 -0.5061 -0.7878
 4110TIP3    H236526   1.339   3.219  20.064  0.1881  0.9626  0.8081
 4111TIP3   OH236527   6.398   2.821  18.267  0.2825 -0.1399 -0.3940
 4111TIP3    H136528   6.319   2.865  18.298 -0.4657  0.1933 -2.5433
 4111TIP3    H236529   6.389   2.731  18.297  0.0598  0.3221  1.0050
 4112TIP3   OH236530   1.285   3.862  20.509  0.3060  0.1441 -0.3345
 4112TIP3    H136531   1.270   3.869  20.604  0.1438  2.4040 -0.4789
 4112TIP3    H236532   1.198   3.872  20.470  0.5579  0.8549 -0.7433
 4113TIP3   OH236533   5.699   0.128  18.493 -0.7266  0.0517  0.3687
 4113TIP3    H136534   5.650   0.210  18.490  0.7531  0.9793  0.7353
 4113TIP3    H236535   5.641   0.068  18.540 -0.7969  1.6451  2.5093
 4114TIP3   OH236536   2.206   4.321  18.516 -0.1811  0.1256 -0.2099
 4114TIP3    H136537   2.287   4.304  18.565  0.6234  0.6629 -1.2975
 4114TIP3    H236538   2.220   4.408  18.477 -1.2489  0.1861 -0.4826
 4115TIP3   OH236539   0.452   4.617  19.909  0.6819  0.0568 -0.7063
 4115TIP3    H136540   0.398   4.625  19.988  0.5957 -2.7196 -0.4133
 4115TIP3    H236541   0.432   4.696  19.859 -2.1351  0.1104  0.3223
 4116TIP3   OH236542   4.169   2.672  20.617 -0.2092 -0.3287 -0.2993
 4116TIP3    H136543   4.127   2.595  20.655 -1.5650  1.7261  2.7977
 4116TIP3    H236544   4.251   2.639  20.580 -0.7990 -3.2598  0.7509
 4117TIP3   OH236545   3.464   2.456  18.556  0.0801  0.5091  0.0000
 4117TIP3    H136546   3.370   2.461  18.539 -0.2178 -1.2607  0.8804
 4117TIP3    H236547   3.485   2.363  18.549  1.5621  0.7440  0.8294
 4118TIP3   OH236548   4.854   4.458  18.087 -0.5061 -0.6500  0.2296
 4118TIP3    H136549   4.911   4.428  18.016 -0.5937 -1.6423  0.5620
 4118TIP3    H236550   4.792   4.517  18.045  0.7856  0.5088 -0.1289
 4119TIP3   OH236551   0.987   3.147  20.399  0.3769  0.4510  0.0707
 4119TIP3    H136552   0.908   3.199  20.408 -0.3333 -0.6649  0.5255
 4119TIP3    H236553   1.028   3.178  20.318 -0.7878  0.6934 -0.4349
 4120TIP3   OH236554   5.574   4.193  19.662 -0.6115  0.0808 -0.1318
 4120TIP3    H136555   5.609   4.196  19.573  0.5170  1.5412  0.3329
 4120TIP3    H236556   5.634   4.246  19.714 -0.8085 -1.3517  1.6807
 4121TIP3   OH236557   5.215   0.838  20.025 -0.4314 -0.0655 -0.7078
 4121TIP3    H136558   5.236   0.837  19.932 -2.5442 -0.3865 -1.2197
 4121TIP3    H236559   5.122   0.859  20.030 -0.1159  1.2098  1.4190
 4122TIP3   OH236560   6.412   1.432  17.892 -0.3544  0.1360  0.3174
 4122TIP3    H136561   6.359   1.353  17.902  0.7096 -0.4642  1.4776
 4122TIP3    H236562   6.420   1.444  17.797 -2.2829  0.0801  0.1206
 4123TIP3   OH236563   0.256   6.461  20.321 -0.0477  0.4537 -0.4799
 4123TIP3    H136564   0.216   6.543  20.294  0.4217  1.1804  0.9362
 4123TIP3    H236565   0.206   6.433  20.398  0.3541 -0.1115 -0.4118
 4124TIP3   OH236566   2.588   6.541  18.778  0.3326  0.6239  0.6534
 4124TIP3    H136567   2.656   6.514  18.716  0.3057 -0.3701  1.0386
 4124TIP3    H236568   2.506   6.532  18.730  0.4178  1.2663  0.3750
 4125TIP3   OH236569   5.603   3.524  17.750  0.7840 -0.5601  0.1913
 4125TIP3    H136570   5.514   3.506  17.720  0.0501 -1.3552  2.6248
 4125TIP3    H236571   5.616   3.618  17.734 -1.6900  0.2916  2.5285
 4126TIP3   OH236572   2.571   4.162  18.432 -0.4029  0.3634  0.0265
 4126TIP3    H136573   2.503   4.166  18.499 -0.4085 -0.0259  0.0463
 4126TIP3    H236574   2.531   4.202  18.355 -1.1183 -1.0145 -0.3476
 4127TIP3   OH236575   0.074   3.449  20.407  0.0462  0.0410  0.2188
 4127TIP3    H136576  -0.017   3.478  20.415 -0.0579 -0.5422  1.2643
 4127TIP3    H236577   0.076   3.362  20.446  1.2844  0.5008  1.2496
 4128TIP3   OH236578   3.339   1.527  20.564 -0.3151 -0.4810 -0.2561
 4128TIP3    H136579   3.350   1.521  20.469 -1.7221  3.6649 -0.8822
 4128TIP3    H236580   3.401   1.595  20.592 -0.4874 -1.0418  1.6860
 4129TIP3   OH236581   1.407   2.494  18.768  0.3138 -0.1432 -0.6638
 4129TIP3    H136582   1.362   2.524  18.689  0.2413  1.2737 -0.0993
 4129TIP3    H236583   1.499   2.485  18.741  0.0069 -1.3818 -1.3608
 4130TIP3   OH236584   2.561   2.257  18.035 -0.1548  0.5373 -0.0644
 4130TIP3    H136585   2.597   2.345  18.039 -0.1633  0.5058  2.1858
 4130TIP3    H236586   2.626   2.205  17.989  0.8235  1.3081  0.4261
 4131TIP3   OH236587   0.487   1.136  18.120 -0.2178 -0.3397  0.6558
 4131TIP3    H136588   0.450   1.118  18.034  1.4468 -2.3023  0.2532
 4131TIP3    H236589   0.476   1.230  18.132 -0.3640  0.0125 -1.7761
 4132TIP3   OH236590   2.160   2.175  19.966  0.4964  0.1538 -0.1624
 4132TIP3    H136591   2.098   2.233  20.011 -0.5489 -0.9487 -0.1089
 4132TIP3    H236592   2.106   2.102  19.936  1.1126  0.8151 -3.2536
 4133TIP3   OH236593   0.837   0.491  18.551 -0.6694  0.2154 -0.0837
 4133TIP3    H136594   0.802   0.544  18.622  1.3413 -0.6434  1.6375
 4133TIP3    H236595   0.810   0.402  18.571 -0.2135 -0.0171 -0.4781
 4134TIP3   OH236596   5.292   5.936  19.555  0.2165 -0.6975 -0.0654
 4134TIP3    H136597   5.375   5.900  19.525 -0.1236  0.1307 -2.1852
 4134TIP3    H236598   5.229   5.864  19.545  0.4113 -0.9113  0.2342
 4135TIP3   OH236599   3.850   3.365  18.707  0.2083  0.2271  0.1306
 4135TIP3    H136600   3.782   3.430  18.697 -0.9160 -0.6673  1.5053
 4135TIP3    H236601   3.922   3.411  18.750  0.2899  1.0651 -0.8980
 4136TIP3   OH236602   3.691   1.302  17.904 -0.6115 -0.3569  0.4717
 4136TIP3    H136603   3.676   1.319  17.997 -0.2466 -0.7642  0.6083
 4136TIP3    H236604   3.717   1.387  17.868 -0.7100 -0.2069  0.7494
 4137TIP3   OH236605   5.540   3.690  19.902 -0.1842  0.1971 -0.0824
 4137TIP3    H136606   5.444   3.694  19.902 -0.2373 -0.2296 -2.4127
 4137TIP3    H236607   5.567   3.754  19.837  1.0018 -1.1831 -1.0140
 4138TIP3   OH236608   1.274   6.007  18.221  0.0924 -0.0396 -0.3528
 4138TIP3    H136609   1.350   6.038  18.172  0.7014 -0.6244  0.1828
 4138TIP3    H236610   1.312   5.955  18.292 -0.8155 -0.3940 -0.1117
 4139TIP3   OH236611   5.901   2.300  17.749 -0.8603  0.7773  0.6317
 4139TIP3    H136612   5.876   2.356  17.676 -1.4358 -1.2419 -0.8157
 4139TIP3    H236613   5.828   2.238  17.759  0.4589 -0.7936  1.0049
 4140TIP3   OH236614   0.086   5.356  18.294 -0.7359  0.6277  0.1148
 4140TIP3    H136615   0.059   5.325  18.207 -0.1938  2.3824 -0.7134
 4140TIP3    H236616   0.012   5.407  18.326  0.4355  3.2725 -1.0603
 4141TIP3   OH236617   5.877   0.231  18.285 -0.1182 -0.2795  0.2941
 4141TIP3    H136618   5.809   0.231  18.353 -0.4245  1.1179  0.0250
 4141TIP3    H236619   5.903   0.139  18.277 -0.3937 -0.5418  1.9802
 4142TIP3   OH236620   4.220   0.786  17.415 -0.3624  0.2954 -0.5596
 4142TIP3    H136621   4.229   0.788  17.320 -0.4158  1.0397 -0.5494
 4142TIP3    H236622   4.156   0.717  17.431  0.0281 -0.1928 -1.0261
 4143TIP3   OH236623   0.791   6.211  19.886 -0.0041 -0.0420 -0.5667
 4143TIP3    H136624   0.858   6.161  19.840 -1.0044 -1.4091 -0.6099
 4143TIP3    H236625   0.710   6.162  19.871 -0.4950 -0.2248  2.1176
 4144TIP3   OH236626   0.607   0.375  17.944  0.1789 -0.3376  0.4602
 4144TIP3    H136627   0.637   0.465  17.927  1.0640 -0.7819 -0.4064
 4144TIP3    H236628   0.521   0.386  17.985  0.2510  0.9038  0.3180
 4145TIP3   OH236629   3.980   4.508  18.483  0.2885  0.0134  0.0242
 4145TIP3    H136630   3.999   4.482  18.573 -0.2130 -0.5350 -0.0203
 4145TIP3    H236631   4.054   4.477  18.432 -0.1523 -1.0845  0.0191
 4146TIP3   OH236632   2.728   1.694  18.212  0.1934 -0.3206  0.6711
 4146TIP3    H136633   2.752   1.781  18.245  1.4522 -0.5608  0.4535
 4146TIP3    H236634   2.681   1.712  18.130 -1.2675  0.2066  1.5980
 4147TIP3   OH236635   1.267   1.641  20.508  0.0205  0.1527  0.1126
 4147TIP3    H136636   1.312   1.690  20.439  1.6183 -0.7558  0.4892
 4147TIP3    H236637   1.335   1.591  20.551 -1.3484 -1.2378  0.7498
 4148TIP3   OH236638   5.508   4.393  18.250 -0.3668  0.2232  0.1826
 4148TIP3    H136639   5.566   4.440  18.190 -0.2783 -0.4174 -0.2440
 4148TIP3    H236640   5.543   4.411  18.337  0.7916 -0.5700 -0.0957
 4149TIP3   OH236641   3.756   5.092  18.830 -0.6139 -0.4655  0.0873
 4149TIP3    H136642   3.735   5.072  18.739 -1.0968  0.4592 -0.0236
 4149TIP3    H236643   3.737   5.185  18.838  0.6918 -0.2387  0.7922
 4150TIP3   OH236644   0.454   1.844  19.115  0.4021 -0.2509 -0.6491
 4150TIP3    H136645   0.406   1.784  19.057 -1.7968  1.5953 -0.8748
 4150TIP3    H236646   0.393   1.861  19.188  0.4795  2.4239 -1.0999
 4151TIP3   OH236647   1.044   3.158  17.794 -0.1605 -0.2392 -0.1231
 4151TIP3    H136648   1.038   3.203  17.710 -0.0238 -1.2148 -0.6724
 4151TIP3    H236649   1.136   3.133  17.801 -0.5441 -1.8704 -0.6131
 4152TIP3   OH236650   4.410   4.005  18.821 -0.0708 -0.4469 -0.7804
 4152TIP3    H136651   4.316   3.989  18.814 -0.7957  2.3153  0.9128
 4152TIP3    H236652   4.417   4.099  18.840  2.8064 -1.0648  2.2436
 4153TIP3   OH236653   2.396   5.713  17.412 -0.0019 -0.8647  0.0178
 4153TIP3    H136654   2.307   5.678  17.422 -0.6577  0.7179 -0.0482
 4153TIP3    H236655   2.389   5.804  17.438  0.9898  0.0804 -2.6957
 4154TIP3   OH236656   6.129   5.764  20.171 -0.3286 -0.2529  0.6419
 4154TIP3    H136657   6.127   5.803  20.084  1.5007 -0.6270  0.3887
 4154TIP3    H236658   6.064   5.694  20.168  0.2351 -0.7377 -0.6729
 4155TIP3   OH236659   6.167   4.915  19.941 -0.6464  1.0890 -0.2916
 4155TIP3    H136660   6.116   4.838  19.917 -0.6416  1.2773 -0.9154
 4155TIP3    H236661   6.146   4.929  20.033  0.2463 -0.3445  0.1675
 4156TIP3   OH236662   2.488   2.682  19.990  0.3253  0.0874  0.0666
 4156TIP3    H136663   2.583   2.672  19.990  0.5389  0.0776  4.5025
 4156TIP3    H236664   2.472   2.751  20.054 -2.6705  1.6487 -2.1422
 4157TIP3   OH236665   1.567   0.331  20.802 -0.2470 -0.0641  0.2855
 4157TIP3    H136666   1.576   0.348  20.708 -0.5105 -0.4358  0.1921
 4157TIP3    H236667   1.484   0.373  20.826  0.0244  0.3970  0.4430
 4158TIP3   OH236668   5.898   0.103  19.787 -0.1719 -0.4395 -0.3960
 4158TIP3    H136669   5.829   0.088  19.722  0.4350 -1.3609 -0.8537
 4158TIP3    H236670   5.971   0.049  19.757 -0.1760 -1.5865  1.5221
 4159TIP3   OH236671   5.601   4.413  17.529 -0.6130  0.2360 -0.0001
 4159TIP3    H136672   5.593   4.376  17.441 -1.0841  0.3143  0.0093
 4159TIP3    H236673   5.539   4.363  17.582  0.2474 -0.3608  0.4746
 4160TIP3   OH236674   6.156   5.739  18.371 -0.3623  0.5038  0.1406
 4160TIP3    H136675   6.196   5.675  18.431 -0.1750  2.3676  2.1221
 4160TIP3    H236676   6.062   5.724  18.380 -0.3193 -1.3179 -1.6085
 4161TIP3   OH236677   1.839   4.929  18.606  0.5126  0.0658  0.0885
 4161TIP3    H136678   1.856   4.930  18.700 -1.6039  0.2920  0.5117
 4161TIP3    H236679   1.806   5.017  18.587 -0.6486 -0.4964 -0.5385
 4162TIP3   OH236680   0.915   4.730  20.462  0.4817 -0.0306 -0.0462
 4162TIP3    H136681   0.884   4.652  20.416  1.1622 -0.4325  0.1632
 4162TIP3    H236682   0.839   4.761  20.511 -0.0805  0.0512 -0.9531
 4163TIP3   OH236683   0.314   4.569  17.242  0.2643 -0.6279  0.0227
 4163TIP3    H136684   0.393   4.540  17.197  0.4544  0.5848 -0.4626
 4163TIP3    H236685   0.258   4.604  17.173  0.5138  1.1582  0.6812
 4164TIP3   OH236686   2.140   4.858  18.963  0.1135 -0.0522  0.2133
 4164TIP3    H136687   2.083   4.913  19.015  0.4321  0.1268  0.3729
 4164TIP3    H236688   2.100   4.771  18.967 -0.4025  0.1673 -0.0617
 4165TIP3   OH236689   3.509   5.320  20.439  0.3276  0.2126 -0.0171
 4165TIP3    H136690   3.552   5.240  20.409  0.1665  0.5946 -1.3132
 4165TIP3    H236691   3.537   5.330  20.531  1.1613 -0.7687 -0.1555
 4166TIP3   OH236692   4.158   0.957  19.614  0.4685  0.0709 -0.0604
 4166TIP3    H136693   4.092   0.888  19.620 -0.2936  0.7305 -0.5665
 4166TIP3    H236694   4.159   0.997  19.701 -0.1310  0.3345 -0.1635
 4167TIP3   OH236695   6.695   5.905  18.135 -0.0384 -0.0306  0.1129
 4167TIP3    H136696   6.730   5.893  18.046  0.9189 -1.0344  0.5922
 4167TIP3    H236697   6.739   5.983  18.167 -1.6312  1.3160 -0.8526
 4168TIP3   OH236698   4.471   0.805  16.898 -0.0618  0.3853  0.1290
 4168TIP3    H136699   4.489   0.895  16.923  1.7247  0.3341 -0.8614
 4168TIP3    H236700   4.473   0.805  16.802  0.5737 -0.8039  0.1167
 4169TIP3   OH236701   1.432   1.724  17.193  0.2425  0.4448  0.0841
 4169TIP3    H136702   1.453   1.735  17.100 -0.5599 -1.6837 -0.4054
 4169TIP3    H236703   1.460   1.634  17.212 -0.3424  0.5939  1.7007
 4170TIP3   OH236704   0.819   3.466  18.116  0.6690  0.0948  0.8813
 4170TIP3    H136705   0.757   3.445  18.186  1.6198 -0.2098  1.6615
 4170TIP3    H236706   0.905   3.453  18.156  1.2371  0.1111 -0.2928
 4171TIP3   OH236707   0.488   0.802  19.414  0.5261  0.7788 -0.4095
 4171TIP3    H136708   0.417   0.767  19.360 -0.5659  2.7747 -0.3562
 4171TIP3    H236709   0.445   0.832  19.494  1.8571 -0.4027  0.8003
 4172TIP3   OH236710   1.776   4.194  20.129  0.1208  0.1476 -0.1017
 4172TIP3    H136711   1.755   4.276  20.174 -0.3886  0.3764 -0.7390
 4172TIP3    H236712   1.831   4.221  20.056 -0.6853  0.0311 -0.7728
 4173TIP3   OH236713   3.040   6.170  17.721 -0.2369 -0.0063 -0.5308
 4173TIP3    H136714   3.119   6.116  17.722 -0.1834  0.0676 -0.8432
 4173TIP3    H236715   2.968   6.107  17.720 -0.2157 -0.0981  1.0662
 4174TIP3   OH236716   6.259   5.976  18.238  0.2665  0.1191 -0.3564
 4174TIP3    H136717   6.311   5.924  18.177  1.7011  1.5682 -0.4580
 4174TIP3    H236718   6.237   5.916  18.309  0.8362 -0.9177 -1.0399
 4175TIP3   OH236719   3.085   0.724  20.669  0.3434  0.2280 -0.0420
 4175TIP3    H136720   3.122   0.637  20.655  0.4910  0.3402 -0.3724
 4175TIP3    H236721   3.156   0.784  20.644  0.2350  0.4419  0.1595
 4176TIP3   OH236722   2.320   0.689  17.490 -0.0721  0.0033  0.3573
 4176TIP3    H136723   2.398   0.711  17.439 -0.0524 -1.1670 -0.1708
 4176TIP3    H236724   2.354   0.657  17.573 -0.0921  1.5957  1.0115
 4177TIP3   OH236725   5.027   2.455  19.461  0.1933  0.0124 -0.5892
 4177TIP3    H136726   4.978   2.536  19.469 -0.8612 -0.4218 -2.1578
 4177TIP3    H236727   5.062   2.457  19.372  0.1976 -1.2114 -0.6346
 4178TIP3   OH236728   1.275   0.977  18.148 -0.2013 -0.2093 -0.1311
 4178TIP3    H136729   1.269   0.957  18.242  0.7978 -0.3047 -0.0841
 4178TIP3    H236730   1.208   0.921  18.108 -1.8291  1.0349  0.6828
 4179TIP3   OH236731   5.242   5.595  19.317  0.0744 -0.0875  0.1459
 4179TIP3    H136732   5.270   5.661  19.254 -0.1002  0.3399  0.5169
 4179TIP3    H236733   5.323   5.565  19.358  0.0499  0.8137  0.8845
 4180TIP3   OH236734   6.468   3.950  18.983 -0.1838  0.2603  0.2475
 4180TIP3    H136735   6.391   3.971  19.037 -1.0824 -0.2843 -0.7878
 4180TIP3    H236736   6.437   3.959  18.893 -1.0115 -5.9912 -0.5042
 4181TIP3   OH236737   0.299   6.322  20.082  0.0871 -0.4152  0.0464
 4181TIP3    H136738   0.392   6.301  20.096  0.3273  1.1509  1.0876
 4181TIP3    H236739   0.269   6.356  20.167 -1.2732 -0.3039 -0.4564
 4182TIP3   OH236740   2.746   0.321  19.484 -0.2511 -0.1086  0.0658
 4182TIP3    H136741   2.764   0.403  19.529  0.0764 -0.3958  0.4645
 4182TIP3    H236742   2.830   0.295  19.446 -0.7272  0.6299 -1.5631
 4183TIP3   OH236743   0.661   0.472  19.100 -0.6113  0.0168  0.1965
 4183TIP3    H136744   0.627   0.543  19.045  0.7183 -0.6140 -1.5103
 4183TIP3    H236745   0.753   0.495  19.114  0.6059 -2.5844 -2.6039
 4184TIP3   OH236746   2.203   4.791  17.974  0.4356 -0.0243 -0.3930
 4184TIP3    H136747   2.163   4.795  17.887 -1.1029  1.4968  0.3339
 4184TIP3    H236748   2.287   4.836  17.964  0.1530  0.3742 -1.0470
 4185TIP3   OH236749   6.538   1.847  17.756  0.2183 -0.1451 -0.4454
 4185TIP3    H136750   6.583   1.783  17.812 -0.1861  0.8150  1.0262
 4185TIP3    H236751   6.513   1.797  17.679  1.9043 -1.2184 -0.3533
 4186TIP3   OH236752   1.719   5.350  19.788 -0.2156  0.8416 -0.0724
 4186TIP3    H136753   1.793   5.291  19.781  0.5176  1.6260  0.7608
 4186TIP3    H236754   1.671   5.339  19.706 -0.3994 -1.2753  0.2641
 4187TIP3   OH236755   3.311   3.728  19.179 -0.4030 -0.5508 -0.8097
 4187TIP3    H136756   3.397   3.694  19.152  0.7360  0.4233  1.3694
 4187TIP3    H236757   3.286   3.787  19.108  0.5788 -1.0395 -1.6011
 4188TIP3   OH236758   0.079   1.224  18.079 -0.5830  0.4089  0.3018
 4188TIP3    H136759   0.123   1.235  17.995 -0.4787  2.3347  0.5621
 4188TIP3    H236760   0.085   1.130  18.098 -0.7089 -0.0782 -1.8659
 4189TIP3   OH236761   0.014   3.071  17.933 -0.2675  0.0488  0.4479
 4189TIP3    H136762   0.043   3.032  18.015  1.4869  0.5458  0.1241
 4189TIP3    H236763   0.047   3.012  17.865 -1.4637 -0.2164  0.0744
 4190TIP3   OH236764   3.417   3.037  17.307 -0.3640 -0.0060 -0.0345
 4190TIP3    H136765   3.456   2.960  17.267 -0.5319 -1.3500  2.2424
 4190TIP3    H236766   3.334   3.048  17.262 -0.2441 -1.0359 -0.5359
 4191TIP3   OH236767   4.793   5.222  20.895 -0.0608 -0.4540 -0.0516
 4191TIP3    H136768   4.829   5.311  20.897 -0.0167 -0.4577 -0.6621
 4191TIP3    H236769   4.866   5.166  20.920  0.5591 -0.5185 -1.8664
 4192TIP3   OH236770   3.781   2.227  17.988  0.1698 -0.1867 -0.1162
 4192TIP3    H136771   3.800   2.133  17.987 -1.3056 -0.6677 -4.0856
 4192TIP3    H236772   3.696   2.234  18.031  0.8767 -0.4593  1.3592
 4193TIP3   OH236773   0.808   6.333  19.598 -0.4090  0.8628  0.3235
 4193TIP3    H136774   0.821   6.406  19.537 -0.8199  0.7952  0.1480
 4193TIP3    H236775   0.728   6.356  19.645 -0.8963  0.2279 -0.1760
 4194TIP3   OH236776   2.330   0.079  19.330 -0.3962 -0.2520 -0.8389
 4194TIP3    H136777   2.310   0.017  19.259 -1.6402  0.6699 -1.3151
 4194TIP3    H236778   2.387   0.144  19.289 -1.4735  0.5244 -1.1258
 4195TIP3   OH236779   2.882   1.798  19.560  0.5893 -0.2454  0.0931
 4195TIP3    H136780   2.880   1.892  19.572  2.5304 -0.0385 -0.8637
 4195TIP3    H236781   2.929   1.784  19.478  2.0054 -2.0840  1.1219
 4196TIP3   OH236782   2.337   6.279  20.609  0.1054  0.1645 -0.3653
 4196TIP3    H136783   2.390   6.200  20.603 -0.3027 -0.0261 -1.9914
 4196TIP3    H236784   2.335   6.313  20.519 -1.9773  0.5152 -0.2279
 4197TIP3   OH236785   4.679   6.082  17.869 -0.7918  0.3798  0.2047
 4197TIP3    H136786   4.619   6.082  17.795 -0.8622  1.7586  0.2277
 4197TIP3    H236787   4.737   6.157  17.853 -2.4261  2.3402  2.7684
 4198TIP3   OH236788   6.451   0.753  16.706 -0.3216  0.0526  0.5465
 4198TIP3    H136789   6.505   0.820  16.666 -2.2374  0.7777 -0.9892
 4198TIP3    H236790   6.509   0.678  16.718  0.7957  0.4540 -1.9167
 4199TIP3   OH236791   6.358   6.366  17.901  0.1879 -0.2985 -0.3870
 4199TIP3    H136792   6.387   6.282  17.936 -1.2773 -0.0468  1.5712
 4199TIP3    H236793   6.432   6.397  17.848  1.7031 -1.6710  0.8443
 4200TIP3   OH236794   1.234   3.059  18.341  0.1551  0.1327 -0.0808
 4200TIP3    H136795   1.242   3.109  18.260 -0.3374  1.0466  0.4112
 4200TIP3    H236796   1.215   3.125  18.408 -2.5595 -0.8812  0.2798
 4201TIP3   OH236797   2.204   3.270  19.319 -0.0374 -0.4134  0.1607
 4201TIP3    H136798   2.180   3.216  19.394 -0.8236 -0.0405  0.1867
 4201TIP3    H236799   2.251   3.210  19.260 -0.4185 -0.9898  0.4339
 4202TIP3   OH236800   3.834   0.833  18.573 -0.0926  0.5917 -0.4610
 4202TIP3    H136801   3.845   0.834  18.668  0.6992  0.7421 -0.5497
 4202TIP3    H236802   3.922   0.849  18.539 -0.7916  3.1323 -1.2103
 4203TIP3   OH236803   0.448   0.865  18.210 -0.8202  0.0108  0.1405
 4203TIP3    H136804   0.500   0.796  18.169  0.4968 -0.9668  3.1839
 4203TIP3    H236805   0.489   0.947  18.182 -0.2289 -0.5906 -0.7851
 4204TIP3   OH236806   4.591   0.342  20.439 -0.6851  0.4886  0.6417
 4204TIP3    H136807   4.622   0.432  20.450  0.9130  0.0798 -0.0858
 4204TIP3    H236808   4.508   0.351  20.393 -1.9078  1.6687  2.9068
 4205TIP3   OH236809   2.041   3.046  18.562 -0.1541  0.5711 -0.4048
 4205TIP3    H136810   1.989   3.125  18.576  0.6061  0.9871  0.1059
 4205TIP3    H236811   2.089   3.033  18.644 -1.4538 -1.3359  0.1330
 4206TIP3   OH236812   0.278   0.217  18.629  0.2759  0.1828  0.4906
 4206TIP3    H136813   0.217   0.153  18.665 -0.2728  0.6326  0.3754
 4206TIP3    H236814   0.236   0.301  18.645 -0.6271  0.3598 -2.2824
 4207TIP3   OH236815   5.195   3.622  18.586  0.5885  0.2215  0.8068
 4207TIP3    H136816   5.161   3.590  18.669  1.7692 -2.8923  0.1927
 4207TIP3    H236817   5.264   3.561  18.562  0.6805  1.3268 -2.2144
 4208TIP3   OH236818   4.450   3.807  18.402 -0.2804  0.0624  0.2320
 4208TIP3    H136819   4.519   3.871  18.385 -0.4757  0.3307  0.4499
 4208TIP3    H236820   4.383   3.826  18.337  0.5499 -1.2617 -1.0820
 4209TIP3   OH236821   4.175   1.825  18.017 -0.5740  0.1481  0.2960
 4209TIP3    H136822   4.243   1.778  18.065 -0.8417 -0.0077  0.5249
 4209TIP3    H236823   4.117   1.858  18.085 -1.4659 -0.8411  0.0384
 4210TIP3   OH236824   2.539   0.059  18.890 -0.1317 -0.2421 -0.0296
 4210TIP3    H136825   2.598   0.115  18.839 -1.0008 -0.4929 -1.3727
 4210TIP3    H236826   2.566  -0.030  18.868  0.4395 -0.3783  1.1366
 4211TIP3   OH236827   3.212   4.779  18.100  0.2185 -0.7095 -0.5290
 4211TIP3    H136828   3.274   4.842  18.063  1.0604 -0.4588  1.1903
 4211TIP3    H236829   3.267   4.712  18.139 -0.6306 -1.1845 -0.1158
 4212TIP3   OH236830   1.999   4.153  19.182 -0.0663  0.2821  0.0384
 4212TIP3    H136831   2.053   4.142  19.260  0.3285  0.8848 -0.1502
 4212TIP3    H236832   1.912   4.176  19.216  0.6989  3.1241  0.2726
 4213TIP3   OH236833   5.931   0.032  18.616  0.3723  0.4780 -0.1666
 4213TIP3    H136834   5.853   0.071  18.575  0.9247  0.5119 -1.2110
 4213TIP3    H236835   5.964  -0.030  18.552  1.0691  0.2735  0.3730
 4214TIP3   OH236836   4.682   3.166  20.425  0.4325  0.6175  0.0684
 4214TIP3    H136837   4.645   3.185  20.511 -1.2361  0.2986 -0.5408
 4214TIP3    H236838   4.714   3.076  20.432 -1.2873 -0.0403 -0.1222
 4215TIP3   OH236839   0.344   1.400  19.736 -0.0986 -0.0099 -0.1649
 4215TIP3    H136840   0.401   1.464  19.779  0.8555 -1.7082  1.1892
 4215TIP3    H236841   0.340   1.326  19.796 -1.5706 -1.0559 -1.4629
 4216TIP3   OH236842   1.978   5.629  17.804  0.3685 -0.4195  0.2855
 4216TIP3    H136843   1.912   5.563  17.820  1.1859 -1.4702 -0.5434
 4216TIP3    H236844   2.004   5.617  17.713  1.2813  0.3522  0.4197
 4217TIP3   OH236845   5.387   3.701  18.012  0.0862 -0.1762  0.3415
 4217TIP3    H136846   5.327   3.724  18.082 -1.2132 -1.0451 -0.4448
 4217TIP3    H236847   5.351   3.744  17.934 -0.2821 -1.7283 -0.3935
 4218TIP3   OH236848   3.151   5.275  18.323  0.2679 -0.0833  0.3055
 4218TIP3    H136849   3.160   5.237  18.411  0.4544  2.1267  1.3113
 4218TIP3    H236850   3.065   5.247  18.293 -0.0134 -0.4686  1.4249
 4219TIP3   OH236851   1.794   0.625  16.823  0.0200 -0.3630 -0.2235
 4219TIP3    H136852   1.717   0.680  16.832  0.5684  0.2340  1.3146
 4219TIP3    H236853   1.773   0.546  16.873  0.4146 -0.1699  0.2574
 4220TIP3   OH236854   5.591   0.389  19.261  0.5412 -0.0069  0.3168
 4220TIP3    H136855   5.683   0.360  19.263  0.2006 -1.2037  2.8173
 4220TIP3    H236856   5.564   0.387  19.352 -1.8975  0.7043 -0.3278
 4221TIP3   OH236857   0.883   4.898  18.641  0.7333  0.3659 -0.1687
 4221TIP3    H136858   0.931   4.965  18.591  0.0340  0.1667 -1.1420
 4221TIP3    H236859   0.939   4.820  18.637  0.3686  0.1393 -1.2909
 4222TIP3   OH236860   1.076   4.058  20.015 -0.2343 -0.0908  0.0505
 4222TIP3    H136861   1.098   4.101  19.932 -0.7231 -1.8601 -1.0532
 4222TIP3    H236862   0.985   4.085  20.032  0.1492  0.9645  0.4865
 4223TIP3   OH236863   5.548   2.835  19.654 -0.4601 -0.6277 -0.0216
 4223TIP3    H136864   5.605   2.821  19.579 -0.1486 -0.0987  0.1129
 4223TIP3    H236865   5.463   2.801  19.626  0.0840 -2.1461  0.0489
 4224TIP3   OH236866   4.915   3.869  18.496  0.1891  0.2007 -0.3701
 4224TIP3    H136867   4.906   3.832  18.583  1.4836 -2.5002 -1.2709
 4224TIP3    H236868   4.828   3.861  18.457  0.1779 -0.9049 -0.1485
 4225TIP3   OH236869   4.797   1.537  16.666  0.3904 -0.3612 -0.0076
 4225TIP3    H136870   4.704   1.522  16.682  0.4367 -1.3271 -0.5826
 4225TIP3    H236871   4.840   1.504  16.745  0.3150 -0.9664 -0.2147
 4226TIP3   OH236872   1.370   3.597  19.592  0.1026  0.9308  0.6955
 4226TIP3    H136873   1.360   3.691  19.578 -0.7591  1.0814  2.2041
 4226TIP3    H236874   1.318   3.577  19.670  1.5481 -0.5183  1.3726
 4227TIP3   OH236875   6.603   1.934  19.027 -0.6165  0.4747 -0.4687
 4227TIP3    H136876   6.551   2.015  19.028 -0.7174  0.5523 -3.2480
 4227TIP3    H236877   6.551   1.873  18.974  0.3357 -0.7744 -0.0124
 4228TIP3   OH236878   3.909   3.224  19.551 -0.3651  0.5358 -0.2199
 4228TIP3    H136879   3.819   3.194  19.548 -0.1646 -0.1247  0.1656
 4228TIP3    H236880   3.941   3.199  19.638  0.7173 -0.8540 -0.9741
 4229TIP3   OH236881   2.453   6.563  20.424 -0.1064  0.0565  0.8026
 4229TIP3    H136882   2.437   6.485  20.371  1.9582 -0.2454  0.5209
 4229TIP3    H236883   2.535   6.544  20.470  0.1817  1.8456  1.0999
 4230TIP3   OH236884   5.062   3.321  18.581  0.7472  0.3243  0.1169
 4230TIP3    H136885   5.103   3.307  18.666  2.1768 -1.4750 -0.7874
 4230TIP3    H236886   4.969   3.329  18.600  0.9109 -1.1584  1.7615
 4231TIP3   OH236887   5.672   4.421  20.109 -0.0462  0.2251 -0.0871
 4231TIP3    H136888   5.604   4.378  20.057  0.5958 -0.8315 -0.0852
 4231TIP3    H236889   5.675   4.371  20.191 -0.5331  1.4138  0.6809
 4232TIP3   OH236890   0.709   2.279  20.583 -0.6514 -0.6683  0.4629
 4232TIP3    H136891   0.793   2.237  20.604 -0.5010  0.6483  2.9009
 4232TIP3    H236892   0.729   2.340  20.513 -0.1082 -2.0195 -0.6022
 4233TIP3   OH236893   3.002   2.046  19.433 -0.2632 -0.0942 -0.0884
 4233TIP3    H136894   2.921   2.064  19.480  0.1926 -1.7592  1.4376
 4233TIP3    H236895   3.065   2.021  19.500  0.7045 -1.5894 -1.4619
 4234TIP3   OH236896   3.148   5.181  18.830  0.2170  0.0511  0.7824
 4234TIP3    H136897   3.097   5.142  18.901 -0.0744  0.4917  0.8244
 4234TIP3    H236898   3.163   5.271  18.859 -0.4974  0.4470 -0.0103
 4235TIP3   OH236899   0.608   4.139  19.865 -0.3236 -0.0408  1.0040
 4235TIP3    H136900   0.636   4.161  19.776  1.3432 -0.2625  1.4454
 4235TIP3    H236901   0.530   4.193  19.879 -1.2081 -0.7185 -0.9204
 4236TIP3   OH236902   5.138   3.217  17.306 -0.3919 -0.1260  0.0220
 4236TIP3    H136903   5.151   3.123  17.319 -0.0836  0.0450  1.0269
 4236TIP3    H236904   5.188   3.258  17.376 -1.2732  0.7554  0.1540
 4237TIP3   OH236905   4.639   0.448  19.260  0.4308 -0.5035  0.0400
 4237TIP3    H136906   4.632   0.469  19.354 -2.3415 -3.4464  0.6831
 4237TIP3    H236907   4.595   0.521  19.216 -0.5890 -0.3145  1.3070
 4238TIP3   OH236908   3.303   3.064  20.282  0.1831  0.0282 -0.1213
 4238TIP3    H136909   3.277   3.083  20.192  1.2349  1.9778 -0.0702
 4238TIP3    H236910   3.253   2.986  20.305 -0.3741 -0.3229 -2.2626
 4239TIP3   OH236911   3.839   4.344  19.221  0.7180  0.4795  0.6081
 4239TIP3    H136912   3.760   4.358  19.168  2.1988 -0.3103 -1.9858
 4239TIP3    H236913   3.822   4.262  19.268 -0.2983  0.7273  0.6993
 4240TIP3   OH236914   2.342   6.681  20.664  0.4249 -0.2113 -0.7639
 4240TIP3    H136915   2.352   6.627  20.585  0.6844 -0.3515 -0.6359
 4240TIP3    H236916   2.257   6.723  20.654  0.8280  0.4446 -1.5210
 4241TIP3   OH236917   3.708   4.990  18.004  0.6989 -0.4271  0.5677
 4241TIP3    H136918   3.762   5.027  18.073  1.1503 -0.3557  0.1841
 4241TIP3    H236919   3.621   5.028  18.018  0.8907 -0.0877  0.8355
 4242TIP3   OH236920   0.252   6.412  19.547  0.2406 -0.3624  0.1780
 4242TIP3    H136921   0.333   6.403  19.497  0.6094 -0.8833  0.8425
 4242TIP3    H236922   0.280   6.446  19.632 -0.5704  2.2345 -0.5200
 4243TIP3   OH236923   1.547   6.100  17.275 -0.9211  0.6035 -0.2485
 4243TIP3    H136924   1.485   6.136  17.212  0.2194  1.8077 -0.7261
 4243TIP3    H236925   1.504   6.110  17.360 -1.5047  1.1464 -0.6032
 4244TIP3   OH236926   2.781   0.622  18.511 -0.0733 -0.1315 -0.4150
 4244TIP3    H136927   2.865   0.580  18.492  0.3987 -0.2620  1.6896
 4244TIP3    H236928   2.737   0.562  18.571 -0.7937  0.8524  0.0718
 4245TIP3   OH236929   3.032   3.970  20.311 -0.3591  0.1884 -0.3627
 4245TIP3    H136930   2.948   3.925  20.307  0.3135 -1.0840 -0.9797
 4245TIP3    H236931   3.072   3.952  20.226  0.4856  0.8716 -0.1215
 4246TIP3   OH236932   1.812   6.550  19.614  0.5494  0.7955  0.2788
 4246TIP3    H136933   1.896   6.595  19.625  1.2671 -0.1975 -0.8148
 4246TIP3    H236934   1.751   6.619  19.590  1.8743  1.1508 -2.5228
 4247TIP3   OH236935   0.013   3.945  18.861 -0.3622  0.2611  0.4494
 4247TIP3    H136936   0.005   3.897  18.944 -0.7828 -0.8863 -0.2409
 4247TIP3    H236937  -0.059   4.008  18.864 -0.3055  0.3106  1.0085
 4248TIP3   OH236938   5.423   6.241  18.466 -0.1748 -0.0785 -0.1728
 4248TIP3    H136939   5.446   6.274  18.379  1.4175  0.4639  0.4080
 4248TIP3    H236940   5.444   6.313  18.525  0.4450 -1.0357  0.8194
 4249TIP3   OH236941   4.646   1.499  17.115 -0.2743 -0.0377  0.3512
 4249TIP3    H136942   4.584   1.557  17.070 -1.5122 -0.4059  1.5242
 4249TIP3    H236943   4.731   1.520  17.075 -0.7230  2.3563  0.4839
 4250TIP3   OH236944   3.274   5.708  18.864 -0.2889 -0.0566 -0.1511
 4250TIP3    H136945   3.351   5.718  18.920 -0.2590 -1.5478  0.1126
 4250TIP3    H236946   3.280   5.780  18.802  1.0291  0.1682  0.2096
 4251TIP3   OH236947   2.805   5.423  18.557 -0.4432  0.0207  0.3656
 4251TIP3    H136948   2.720   5.448  18.520 -0.0175  0.7867 -0.1297
 4251TIP3    H236949   2.869   5.456  18.494  0.2718  0.6514  1.3891
 4252TIP3   OH236950   5.881   4.891  19.785 -0.7122  0.0667  0.1297
 4252TIP3    H136951   5.886   4.887  19.690  0.3089 -0.1161  0.1792
 4252TIP3    H236952   5.885   4.800  19.813 -0.4429  0.1497  0.3660
 4253TIP3   OH236953   6.057   5.073  18.049  0.0116  0.4322 -0.0426
 4253TIP3    H136954   6.119   5.001  18.054  0.4166  0.8183  0.6915
 4253TIP3    H236955   6.073   5.112  17.963  1.4179  1.0545  0.4623
 4254TIP3   OH236956   3.342   4.645  19.188 -0.0209 -0.1149 -0.2722
 4254TIP3    H136957   3.339   4.640  19.283 -1.2133  2.4397 -0.0798
 4254TIP3    H236958   3.432   4.670  19.168 -0.0903  0.6322  0.3023
 4255TIP3   OH236959   6.555   4.246  18.924  0.0388 -0.5984  0.3607
 4255TIP3    H136960   6.514   4.256  19.010  0.1637 -0.7008  0.4325
 4255TIP3    H236961   6.483   4.256  18.862 -0.5918 -3.1254  0.5399
 4256TIP3   OH236962   5.310   5.985  20.529 -0.3438 -0.5866 -1.0641
 4256TIP3    H136963   5.375   6.010  20.463 -0.3815 -0.6876 -1.1383
 4256TIP3    H236964   5.226   6.006  20.490 -0.2883  1.8959 -0.0106
 4257TIP3   OH236965   3.637   0.863  19.846  0.0302  0.1792  0.6438
 4257TIP3    H136966   3.632   0.945  19.797  1.0013  0.3810  0.8457
 4257TIP3    H236967   3.582   0.801  19.798  0.2444  0.6261 -0.1787
 4258TIP3   OH236968   0.812   5.632  18.731  0.5753  0.4807  0.1011
 4258TIP3    H136969   0.834   5.643  18.638  0.9628 -1.2596 -0.0557
 4258TIP3    H236970   0.830   5.540  18.748 -2.0099  0.1045  1.2242
 4259TIP3   OH236971   5.845   1.208  18.405 -0.0894 -0.7417  0.0600
 4259TIP3    H136972   5.751   1.203  18.418  0.0175 -2.5635  0.3367
 4259TIP3    H236973   5.880   1.240  18.488 -0.2312 -3.1043  1.0956
 4260TIP3   OH236974   5.529   3.902  18.367 -0.2755 -0.0330  0.5443
 4260TIP3    H136975   5.503   3.810  18.375 -2.0552  0.4504  0.6495
 4260TIP3    H236976   5.526   3.936  18.457 -0.8188  0.4254  0.3563
 4261TIP3   OH236977   5.934   2.740  19.383 -0.1243  0.2523 -0.3294
 4261TIP3    H136978   5.890   2.815  19.343 -2.6757 -1.1597 -0.3714
 4261TIP3    H236979   6.022   2.741  19.346 -0.4413  2.5411 -1.1837
 4262TIP3   OH236980   3.127   4.791  19.111 -0.3028 -0.4174  0.1984
 4262TIP3    H136981   3.138   4.813  19.018 -1.6433 -0.9085 -0.1012
 4262TIP3    H236982   3.208   4.746  19.135  0.2031  0.0183 -0.6344
 4263TIP3   OH236983   0.817   0.022  18.527  0.1178 -0.5922 -0.1364
 4263TIP3    H136984   0.804   0.007  18.433 -1.0405  0.1237 -0.1099
 4263TIP3    H236985   0.755  -0.037  18.570 -0.0435 -0.2262  0.1419
 4264TIP3   OH236986   6.592   5.318  18.570 -0.2843  0.3594  0.0519
 4264TIP3    H136987   6.570   5.313  18.477  0.9325  0.3529 -0.2543
 4264TIP3    H236988   6.511   5.295  18.615 -0.8900  0.3578 -1.0037
 4265TIP3   OH236989   6.384   0.147  18.595 -0.0107 -0.1667  0.5562
 4265TIP3    H136990   6.293   0.175  18.587 -0.0252 -0.2601  0.4001
 4265TIP3    H236991   6.397   0.133  18.688  0.2286  1.1752  0.7490
 4266TIP3   OH236992   5.464   1.837  17.772  0.1216  0.0788  0.1418
 4266TIP3    H136993   5.434   1.897  17.840  0.2657 -0.1086  0.3760
 4266TIP3    H236994   5.385   1.813  17.724  0.1681  1.0556 -0.4514
 4267TIP3   OH236995   1.467   4.999  17.247 -0.6049  0.0617 -0.1512
 4267TIP3    H136996   1.418   5.080  17.258  1.3444  1.5219 -1.3119
 4267TIP3    H236997   1.404   4.937  17.211 -1.7516  1.6535 -1.0344
 4268TIP3   OH236998   4.127   2.068  19.118  0.2545  0.3305 -0.6540
 4268TIP3    H136999   4.166   1.986  19.148  0.6495  0.2691 -1.3211
 4268TIP3    H237000   4.106   2.053  19.026 -1.1593  0.4423 -0.3753
 4269TIP3   OH237001   3.983   5.242  17.901 -0.5361 -0.0387 -0.3718
 4269TIP3    H137002   3.930   5.318  17.879 -0.6489 -0.7727 -2.9347
 4269TIP3    H237003   4.061   5.278  17.943 -0.1344  1.6368 -2.3745
 4270TIP3   OH237004   0.367   3.744  19.795 -0.3875 -0.7768  0.2064
 4270TIP3    H137005   0.361   3.804  19.869  0.2942 -0.5227  0.0649
 4270TIP3    H237006   0.312   3.784  19.728 -0.3032 -0.5445  0.2747
 4271TIP3   OH237007   1.902   5.856  20.397 -0.0930 -1.0105 -0.4334
 4271TIP3    H137008   1.838   5.842  20.328  0.6684 -0.9565 -1.1793
 4271TIP3    H237009   1.948   5.773  20.406 -1.1852 -1.4844  1.0960
 4272TIP3   OH237010   4.810   3.855  17.693  0.3459 -0.4928 -0.1461
 4272TIP3    H137011   4.754   3.933  17.690  0.1051 -0.4554  2.7032
 4272TIP3    H237012   4.892   3.883  17.654 -1.3604 -0.4598 -4.2145
 4273TIP3   OH237013   5.288   5.678  20.171  0.2390 -0.1362  0.2767
 4273TIP3    H137014   5.269   5.588  20.142 -1.5820  0.6651 -1.1884
 4273TIP3    H237015   5.269   5.732  20.095  0.8898  1.5664  1.2812
 4274TIP3   OH237016   2.275   6.216  20.886 -0.0886  0.3846  0.1151
 4274TIP3    H137017   2.353   6.243  20.936  0.1529  0.0709 -0.0941
 4274TIP3    H237018   2.280   6.265  20.804  0.5940 -0.6195 -0.4626
 4275TIP3   OH237019   1.225   5.688  19.423  0.2230  0.7239  0.2658
 4275TIP3    H137020   1.171   5.666  19.499 -0.3823 -0.8998 -0.5732
 4275TIP3    H237021   1.171   5.748  19.371  0.2315  1.0345  0.6101
 4276TIP3   OH237022   4.082   5.033  18.055 -0.1332  0.2351 -0.1211
 4276TIP3    H137023   4.031   5.109  18.027  0.9160  1.8130  1.9492
 4276TIP3    H237024   4.112   4.993  17.973 -0.6705  2.0812 -1.2921
 4277TIP3   OH237025   2.526   4.737  20.513  0.4451  0.0951  0.4529
 4277TIP3    H137026   2.464   4.671  20.484 -0.5252  1.4093 -0.5742
 4277TIP3    H237027   2.609   4.712  20.472 -0.2143  0.2237 -1.0160
 4278TIP3   OH237028   2.710   3.473  20.149  0.5437  0.1940  0.5454
 4278TIP3    H137029   2.635   3.524  20.177  0.4201  0.1942  0.2242
 4278TIP3    H237030   2.784   3.534  20.153  0.6675 -0.0127  1.5883
 4279TIP3   OH237031   5.072   1.858  18.048  0.2869 -0.0941 -0.0984
 4279TIP3    H137032   5.112   1.804  17.980  0.8696 -1.6346  1.3945
 4279TIP3    H237033   5.056   1.943  18.006  2.0624 -0.4897 -1.6847
 4280TIP3   OH237034   2.425   2.599  18.689 -0.0754  0.3331 -0.4704
 4280TIP3    H137035   2.518   2.594  18.667 -0.4328 -0.5965 -1.9771
 4280TIP3    H237036   2.392   2.673  18.638 -0.2752  0.2519 -0.4594
 4281TIP3   OH237037   5.302   4.744  20.609  0.2629 -0.0145 -0.0926
 4281TIP3    H137038   5.273   4.781  20.526 -0.1071 -1.2885 -0.5528
 4281TIP3    H237039   5.343   4.661  20.585 -1.7592 -1.4639  1.1344
 4282TIP3   OH237040   3.607   4.709  19.119 -0.6800 -0.1468  0.1245
 4282TIP3    H137041   3.628   4.645  19.187 -1.4650  0.0038  0.5261
 4282TIP3    H237042   3.690   4.752  19.099 -0.2235 -1.0142  0.1397
 4283TIP3   OH237043   5.749   3.187  19.813  0.2424  0.1498  0.0185
 4283TIP3    H137044   5.824   3.176  19.870  0.1469 -0.6720 -0.0077
 4283TIP3    H237045   5.691   3.247  19.861  0.4182 -0.0828  0.5266
 4284TIP3   OH237046   1.234   4.295  18.579 -0.1151 -0.3380 -0.4287
 4284TIP3    H137047   1.271   4.343  18.653 -0.1272  0.1617 -0.7446
 4284TIP3    H237048   1.241   4.203  18.605 -0.1881 -0.1662  0.2270
 4285TIP3   OH237049   1.862   4.780  19.329 -0.8939 -0.0252  0.1861
 4285TIP3    H137050   1.924   4.707  19.330 -0.7669  0.0667  1.5106
 4285TIP3    H237051   1.892   4.837  19.400 -3.0741 -0.4813  1.5689
 4286TIP3   OH237052   2.450   1.045  19.612  0.7184 -0.2758  0.3204
 4286TIP3    H137053   2.470   1.027  19.704 -0.5744  0.6174  0.7955
 4286TIP3    H237054   2.485   0.969  19.565  0.4574 -1.2502  1.6500
 4287TIP3   OH237055   3.625   3.208  18.922  0.2935 -0.2439  0.1346
 4287TIP3    H137056   3.616   3.150  18.846 -0.0287 -0.8396  0.6215
 4287TIP3    H237057   3.649   3.293  18.884 -2.3496  0.1480 -0.8422
 4288TIP3   OH237058   5.885   5.046  19.108 -0.5376 -0.3058  0.0212
 4288TIP3    H137059   5.816   5.000  19.060 -0.3108  1.2095 -1.8839
 4288TIP3    H237060   5.965   5.028  19.059  0.6944 -2.7156  2.6692
 4289TIP3   OH237061   0.307   3.605  19.444  0.2074  0.5394  0.1030
 4289TIP3    H137062   0.402   3.590  19.450  0.2938  1.0062 -0.0430
 4289TIP3    H237063   0.284   3.575  19.356  0.4734  1.7386 -0.3839
 4290TIP3   OH237064   2.594   5.745  18.592  0.1736  0.0881  0.4289
 4290TIP3    H137065   2.609   5.664  18.542  0.5332 -0.6426  1.6890
 4290TIP3    H237066   2.500   5.761  18.583 -0.1825 -1.3165  1.3860
 4291TIP3   OH237067   3.716   4.618  20.692 -0.2328 -0.5014 -0.1524
 4291TIP3    H137068   3.750   4.626  20.782  0.8862  1.4444 -0.6874
 4291TIP3    H237069   3.791   4.641  20.637 -0.6485 -2.5315 -1.6622
 4292TIP3   OH237070   6.094   3.944  20.548 -0.1170  0.2584 -0.0871
 4292TIP3    H137071   6.103   3.913  20.458  1.0833  0.6627 -0.1263
 4292TIP3    H237072   6.002   3.929  20.569  0.1012 -2.0713 -0.5382
 4293TIP3   OH237073   6.603   4.630  18.094  0.5691  0.3121  0.3843
 4293TIP3    H137074   6.607   4.649  18.000  0.5985 -0.2405  0.2737
 4293TIP3    H237075   6.558   4.546  18.099  0.4418  0.4108  0.8752
 4294TIP3   OH237076   4.796   3.856  20.868 -0.1542 -0.0895 -0.3069
 4294TIP3    H137077   4.843   3.940  20.868 -1.6363  0.7815 -0.6128
 4294TIP3    H237078   4.805   3.823  20.958  1.1154 -0.0110 -0.3914
 4295TIP3   OH237079   3.814   0.709  20.652  0.1186  0.0823  0.1565
 4295TIP3    H137080   3.753   0.723  20.580  2.1113  0.8142 -1.4971
 4295TIP3    H237081   3.807   0.787  20.706 -0.7546 -0.0776  0.2824
 4296TIP3   OH237082   0.773   1.532  20.282  0.0334  0.0353 -0.7580
 4296TIP3    H137083   0.818   1.568  20.205  0.3839 -0.1459 -0.6405
 4296TIP3    H237084   0.792   1.595  20.351 -0.0854  0.0756 -0.7631
 4297TIP3   OH237085   0.974   1.009  19.281 -0.1980  0.2215  0.0430
 4297TIP3    H137086   1.011   1.007  19.193  0.5398  0.8767  0.3236
 4297TIP3    H237087   1.017   1.084  19.324 -1.1302  0.4039  0.7044
 4298TIP3   OH237088   5.881   1.357  17.425  0.1455 -0.5203 -0.6106
 4298TIP3    H137089   5.886   1.385  17.334  0.5296  0.1940 -0.3779
 4298TIP3    H237090   5.870   1.262  17.421  0.5468 -0.5383 -1.3894
 4299TIP3   OH237091   6.601   3.439  19.454 -0.2628  0.1906  0.6791
 4299TIP3    H137092   6.584   3.351  19.422  0.6267 -0.0304  0.7919
 4299TIP3    H237093   6.538   3.451  19.525 -0.4053 -0.3456  0.6488
 4300TIP3   OH237094   3.046   1.943  19.908  0.3985  0.3098 -0.5052
 4300TIP3    H137095   3.044   1.881  19.980 -0.0098  0.7481 -0.1386
 4300TIP3    H237096   3.000   2.021  19.941  0.1729  0.4992 -1.2411
 4301TIP3   OH237097   4.826   0.202  19.718 -0.1206 -0.0034 -0.2612
 4301TIP3    H137098   4.891   0.181  19.652 -0.8578 -1.0862 -0.6773
 4301TIP3    H237099   4.858   0.160  19.798 -0.8475 -1.5408 -0.7403
 4302TIP3   OH237100   1.645   4.639  18.278 -0.5019  0.4732 -0.8224
 4302TIP3    H137101   1.557   4.658  18.243 -0.2681  0.3985 -1.4560
 4302TIP3    H237102   1.696   4.613  18.202 -0.1868 -0.4667 -0.3073
 4303TIP3   OH237103   1.466   1.105  18.950  0.1337 -0.3845  0.1628
 4303TIP3    H137104   1.557   1.075  18.955 -0.0839 -0.8741  2.3667
 4303TIP3    H237105   1.414   1.024  18.955 -0.4365 -0.0850 -0.7559
 4304TIP3   OH237106   0.109   2.880  18.170  0.3107  0.5794 -0.0457
 4304TIP3    H137107   0.182   2.862  18.230  0.2188  0.6422  0.0856
 4304TIP3    H237108   0.079   2.793  18.142  0.3882  0.5513 -0.0408
 4305TIP3   OH237109   6.738   1.938  18.710 -0.0572 -0.1342  0.8364
 4305TIP3    H137110   6.646   1.962  18.697 -0.0404 -0.6481 -0.4270
 4305TIP3    H237111   6.781   2.020  18.735 -0.0708  1.2394 -2.9290
 4306TIP3   OH237112   6.311   1.521  19.221 -0.5990  0.2140 -0.2697
 4306TIP3    H137113   6.321   1.520  19.316 -0.6278  1.5790 -0.2362
 4306TIP3    H237114   6.226   1.479  19.206  0.3576 -1.9904  0.1291
 4307TIP3   OH237115   3.519   6.208  20.052  0.1639 -0.4342  0.0677
 4307TIP3    H137116   3.531   6.147  20.125  1.2085  0.7931  0.9741
 4307TIP3    H237117   3.518   6.294  20.094  3.7374  0.5788 -1.5723
 4308TIP3   OH237118   1.555   5.271  20.584  0.4623  0.5644 -0.4272
 4308TIP3    H137119   1.640   5.227  20.584 -0.4353 -1.3050 -0.7463
 4308TIP3    H237120   1.536   5.286  20.491  0.6005  1.3154 -0.3371
 4309TIP3   OH237121   5.203   2.472  18.715 -0.3627 -0.0209  0.0529
 4309TIP3    H137122   5.243   2.457  18.629  0.2115 -0.6739  0.4183
 4309TIP3    H237123   5.276   2.491  18.773 -0.7060  0.0354  0.4748
 4310TIP3   OH237124   3.503   2.540  20.799  0.3815 -0.2818  0.2442
 4310TIP3    H137125   3.453   2.546  20.717 -1.1014  1.0291  1.1681
 4310TIP3    H237126   3.489   2.625  20.841  1.6897 -0.6725  1.5387
 4311TIP3   OH237127   0.153   6.093  20.100 -0.4102 -0.0307 -0.2124
 4311TIP3    H137128   0.206   6.173  20.099 -1.7200  0.8788 -0.2439
 4311TIP3    H237129   0.120   6.085  20.010  2.0115 -2.2730 -1.0228
 4312TIP3   OH237130   2.440   4.649  18.772 -0.3547 -0.3170 -0.8093
 4312TIP3    H137131   2.455   4.724  18.714  0.9340 -1.5566 -2.1561
 4312TIP3    H237132   2.346   4.633  18.768 -0.2977 -0.3643 -2.5796
 4313TIP3   OH237133   2.299   5.634  19.275  0.0552  0.0712  0.3240
 4313TIP3    H137134   2.339   5.606  19.358  2.4866  1.0661 -0.4119
 4313TIP3    H237135   2.321   5.564  19.214 -0.9041 -0.2016  0.2742
 4314TIP3   OH237136   1.496   5.362  19.596 -0.1454  0.1191 -0.0411
 4314TIP3    H137137   1.438   5.369  19.520 -0.2472  1.9300  0.1415
 4314TIP3    H237138   1.445   5.314  19.661 -0.4663 -0.4967 -0.7339
 4315TIP3   OH237139   1.084   1.466  19.910 -0.3313 -0.7444 -0.0169
 4315TIP3    H137140   1.085   1.388  19.855 -0.3014 -0.8893  0.1866
 4315TIP3    H237141   1.167   1.463  19.958 -0.5719 -0.8858  0.3997
 4316TIP3   OH237142   4.829   3.415  18.596 -0.0678  0.3859 -1.1418
 4316TIP3    H137143   4.802   3.397  18.686 -1.3958  0.6978 -1.4601
 4316TIP3    H237144   4.832   3.511  18.591  0.3768  0.3634 -1.3322
 4317TIP3   OH237145   1.543   0.897  18.095 -0.0415 -0.4286  0.5766
 4317TIP3    H137146   1.508   0.897  18.185 -1.0764 -1.0115  0.1823
 4317TIP3    H237147   1.470   0.868  18.041  0.6361 -0.2576 -0.4453
 4318TIP3   OH237148   4.962   3.441  19.763  0.6825 -0.0200  0.4788
 4318TIP3    H137149   4.931   3.493  19.689  0.6983 -1.0652 -0.2833
 4318TIP3    H237150   4.892   3.378  19.780  0.2854  0.7519  1.9476
 4319TIP3   OH237151   2.286   1.107  17.474 -0.1320  0.2026 -0.2263
 4319TIP3    H137152   2.369   1.153  17.462 -0.9520  1.7529 -0.2340
 4319TIP3    H237153   2.277   1.054  17.395  0.4245  0.7233 -0.6565
 4320TIP3   OH237154   2.622   0.865  18.767  0.2059  0.2848 -0.1446
 4320TIP3    H137155   2.717   0.866  18.758  0.3526 -1.2765  0.9243
 4320TIP3    H237156   2.600   0.953  18.799  1.2977  0.5829 -0.1781
 4321TIP3   OH237157   6.058   2.097  19.777 -0.3201  0.2179  0.5205
 4321TIP3    H137158   6.078   2.063  19.864 -0.7142 -2.2976 -0.2807
 4321TIP3    H237159   6.119   2.169  19.765  2.7652 -2.0215  1.2821
 4322TIP3   OH237160   4.085   1.431  18.883  0.3232 -0.1240  0.5201
 4322TIP3    H137161   4.131   1.365  18.936  1.0352  0.5173  0.7262
 4322TIP3    H237162   4.004   1.448  18.931  0.6907  0.0202  1.1098
 4323TIP3   OH237163   2.653   1.760  20.478 -0.1391 -0.0962  0.4689
 4323TIP3    H137164   2.717   1.827  20.501 -2.1646  2.0980  0.1091
 4323TIP3    H237165   2.664   1.747  20.384 -1.4569  1.8201 -0.0231
 4324TIP3   OH237166   1.296   5.833  17.450  0.4406 -0.1178  0.3941
 4324TIP3    H137167   1.391   5.831  17.437  0.1741  0.5070 -2.4888
 4324TIP3    H237168   1.262   5.766  17.390 -0.9643  0.1161  0.8912
 4325TIP3   OH237169   3.301   2.237  19.500 -0.0916 -0.5224 -0.1025
 4325TIP3    H137170   3.372   2.173  19.489 -1.1477 -1.7545  0.0529
 4325TIP3    H237171   3.328   2.289  19.576  0.5013 -1.1722  0.1478
 4326TIP3   OH237172   2.831   6.475  17.974 -0.4419 -0.3940 -0.2633
 4326TIP3    H137173   2.759   6.538  17.960 -0.4689 -0.3477  0.0651
 4326TIP3    H237174   2.795   6.391  17.947 -0.3608 -0.2474 -0.8382
 4327TIP3   OH237175   2.555   1.495  16.912 -0.1598 -0.1866  0.3965
 4327TIP3    H137176   2.620   1.448  16.860  0.5236  0.8861  0.2476
 4327TIP3    H237177   2.471   1.474  16.871  0.3942  1.0011 -1.4760
 4328TIP3   OH237178   2.066   1.224  17.881  0.3362  0.6252  0.2770
 4328TIP3    H137179   2.152   1.187  17.863  0.0150  0.0917 -0.2250
 4328TIP3    H237180   2.027   1.237  17.794 -0.8856 -1.0854  0.4954
 4329TIP3   OH237181   6.217   5.979  20.349 -0.5788 -0.3569  0.7310
 4329TIP3    H137182   6.127   6.011  20.341 -0.7749 -0.8262  1.0366
 4329TIP3    H237183   6.225   5.911  20.282  0.3791  1.4758 -1.1459
 4330TIP3   OH237184   1.154   0.038  17.786  0.3379 -0.4875  0.2381
 4330TIP3    H137185   1.120   0.070  17.703  0.2425  1.0099  0.8262
 4330TIP3    H237186   1.233   0.089  17.802  0.3409 -0.7300  1.0702
 4331TIP3   OH237187   2.084   5.630  20.354 -0.1457  0.5039  0.5871
 4331TIP3    H137188   2.124   5.576  20.422 -2.0769 -3.2109 -0.9216
 4331TIP3    H237189   2.132   5.607  20.274 -2.9969 -1.6797 -0.6736
 4332TIP3   OH237190   5.805   3.984  18.256  0.1098  0.1887 -0.1857
 4332TIP3    H137191   5.849   3.913  18.209 -0.6262 -0.0183 -0.5881
 4332TIP3    H237192   5.712   3.970  18.238 -0.0350  1.3644 -0.4253
 4333TIP3   OH237193   5.701   2.267  19.808  0.3053  0.3553  0.3030
 4333TIP3    H137194   5.624   2.317  19.834  0.0293 -0.1079  0.3985
 4333TIP3    H237195   5.744   2.321  19.742 -0.4894  0.3019 -0.2668
 4334TIP3   OH237196   5.005   0.914  19.395 -0.2065 -0.3999 -0.0138
 4334TIP3    H137197   5.058   0.877  19.325 -1.5362 -1.0600 -0.7113
 4334TIP3    H237198   4.918   0.876  19.382 -0.5896 -0.2541  1.7670
 4335TIP3   OH237199   0.742   5.679  20.061  0.3625  0.2907  0.4721
 4335TIP3    H137200   0.788   5.650  20.140  2.4139 -1.6788 -1.2784
 4335TIP3    H237201   0.652   5.648  20.073  0.3000  1.1017  2.4941
 4336TIP3   OH237202   3.748   4.297  18.772 -0.5063 -0.2000 -0.1944
 4336TIP3    H137203   3.738   4.270  18.863 -0.7057  1.1393  0.2057
 4336TIP3    H237204   3.816   4.239  18.737  1.4467  0.9126  1.5398
 4337TIP3   OH237205   5.922   5.766  17.720  0.3513  0.7148 -0.3862
 4337TIP3    H137206   5.892   5.840  17.667 -1.4532  0.1865 -0.1932
 4337TIP3    H237207   5.842   5.734  17.763  1.2231 -0.8410  0.1632
 4338TIP3   OH237208   6.203   6.732  17.398  0.5232  0.1535 -0.1528
 4338TIP3    H137209   6.164   6.787  17.330  1.8966  0.6150 -0.5929
 4338TIP3    H237210   6.130   6.713  17.458 -0.2973  1.2606 -0.7649
 4339TIP3   OH237211   1.128   5.320  18.483  0.0514 -0.0645 -0.3352
 4339TIP3    H137212   1.129   5.415  18.500  0.3049 -0.0494 -0.4481
 4339TIP3    H237213   1.187   5.307  18.410  0.1987 -0.3428 -0.1696
 4340TIP3   OH237214   1.374   0.249  20.415 -0.1894  0.7458  0.4112
 4340TIP3    H137215   1.314   0.320  20.392 -1.3305 -0.2831  0.1057
 4340TIP3    H237216   1.317   0.179  20.445  0.9608  0.1891  1.3812
 4341TIP3   OH237217   4.756   0.822  19.332 -0.1085 -0.3150  0.1043
 4341TIP3    H137218   4.704   0.747  19.361  0.0074 -1.2232 -1.8916
 4341TIP3    H237219   4.693   0.879  19.288  0.1034 -0.0661  0.1225
 4342TIP3   OH237220   0.057   2.673  20.486  0.5435 -0.4808  0.6511
 4342TIP3    H137221   0.078   2.604  20.423 -0.2960 -0.4658  0.3374
 4342TIP3    H237222  -0.032   2.700  20.463  1.2988  1.6336 -0.1193
 4343TIP3   OH237223   4.418   2.501  17.455 -0.3174 -0.1318  0.3317
 4343TIP3    H137224   4.386   2.468  17.539 -1.0477 -1.0378 -0.2791
 4343TIP3    H237225   4.403   2.595  17.458 -0.8950 -0.2387  0.9831
 4344TIP3   OH237226   2.014   2.484  18.112 -0.6617 -0.1454 -0.2494
 4344TIP3    H137227   1.935   2.440  18.081 -0.8717 -0.2141  0.3767
 4344TIP3    H237228   1.989   2.576  18.118 -0.5131 -0.0808 -0.6318
 4345TIP3   OH237229   3.904   2.787  20.213 -0.1037  0.1427  0.4379
 4345TIP3    H137230   3.814   2.817  20.199  0.4504  0.9208 -1.7205
 4345TIP3    H237231   3.913   2.711  20.156  1.2041  1.3129 -0.9854
 4346TIP3   OH237232   6.717   3.949  18.332  0.1477 -0.7552 -0.2242
 4346TIP3    H137233   6.679   3.870  18.295  0.0314 -0.0828 -1.6031
 4346TIP3    H237234   6.805   3.954  18.294  1.3832 -1.8201  2.2416
 4347TIP3   OH237235   6.550   5.385  17.763 -0.7369  0.1547 -0.0571
 4347TIP3    H137236   6.466   5.370  17.807  0.5199 -1.8116  1.8898
 4347TIP3    H237237   6.581   5.469  17.799 -0.7737 -0.3217  1.1303
 4348TIP3   OH237238   4.624   6.512  20.901 -0.0972 -0.5040  0.2836
 4348TIP3    H137239   4.547   6.558  20.868  0.9772 -0.6617 -2.8596
 4348TIP3    H237240   4.611   6.421  20.876  0.2048 -0.9368  1.6093
 4349TIP3   OH237241   1.463   5.466  20.261  0.3361  0.1147 -0.3624
 4349TIP3    H137242   1.380   5.504  20.232 -0.9061 -0.8942  1.5917
 4349TIP3    H237243   1.488   5.406  20.190  0.0672  1.3466 -1.5317
 4350TIP3   OH237244   4.791   0.264  18.824  0.4334  0.2634 -0.5099
 4350TIP3    H137245   4.724   0.232  18.762 -0.7826 -1.0354  1.3619
 4350TIP3    H237246   4.747   0.334  18.872  0.2815 -0.7782  0.9209
 4351TIP3   OH237247   2.646   5.771  19.013  0.3431  0.1559 -0.1133
 4351TIP3    H137248   2.554   5.777  19.040 -0.2514 -0.4010 -1.8769
 4351TIP3    H237249   2.645   5.791  18.919  1.8954 -0.6870 -0.3444
 4352TIP3   OH237250   3.487   3.754  20.446  0.2854 -0.1869 -0.4681
 4352TIP3    H137251   3.460   3.782  20.533  0.2476  1.0459 -0.8607
 4352TIP3    H237252   3.426   3.684  20.423 -0.5791  0.4129 -0.0526
 4353TIP3   OH237253   0.791   4.605  18.794 -0.4370  0.1227 -0.1796
 4353TIP3    H137254   0.872   4.632  18.751 -1.9349  0.8187 -2.7765
 4353TIP3    H237255   0.789   4.510  18.784 -0.5819  0.2393 -1.3748
 4354TIP3   OH237256   6.303   5.126  20.507  0.0135 -0.0731  0.0622
 4354TIP3    H137257   6.366   5.187  20.468  1.3384 -0.0202  2.0868
 4354TIP3    H237258   6.263   5.177  20.578 -0.5598 -0.8535  0.3070
 4355TIP3   OH237259   4.101   2.217  17.168  0.0101  0.0717 -0.4348
 4355TIP3    H137260   4.012   2.238  17.197 -0.2697  0.6525 -1.6327
 4355TIP3    H237261   4.088   2.163  17.090  0.7188 -0.3090 -0.2942
 4356TIP3   OH237262   1.006   3.326  18.470  0.6746  0.0286  0.4534
 4356TIP3    H137263   1.099   3.314  18.490  0.1931 -3.2987  1.3279
 4356TIP3    H237264   0.974   3.381  18.542  1.4930 -1.1413  1.7869
 4357TIP3   OH237265   0.646   5.610  18.951  0.3978  0.2593  0.1882
 4357TIP3    H137266   0.565   5.647  18.916  0.1504  1.0435  1.4814
 4357TIP3    H237267   0.705   5.603  18.876  0.3156  2.9747 -0.2324
 4358TIP3   OH237268   2.924   2.426  19.666 -0.3236 -0.4833  0.3749
 4358TIP3    H137269   2.843   2.419  19.715 -0.0635  0.6914  1.0129
 4358TIP3    H237270   2.989   2.379  19.719 -0.3506 -0.4890  0.4027
 4359TIP3   OH237271   6.406   1.679  20.462 -0.6532  0.2053  0.8195
 4359TIP3    H137272   6.433   1.593  20.494 -1.0259 -0.4089 -0.4271
 4359TIP3    H237273   6.312   1.683  20.483 -1.2013 -0.7287 -1.1657
 4360TIP3   OH237274   1.565   3.804  20.753 -0.6219 -0.2997 -0.3279
 4360TIP3    H137275   1.491   3.821  20.812 -0.4761 -0.2142 -0.1676
 4360TIP3    H237276   1.532   3.740  20.690 -0.2542 -1.7597  0.8927
 4361TIP3   OH237277   5.468   5.249  19.765  0.0686 -0.0087  0.0817
 4361TIP3    H137278   5.499   5.161  19.743 -0.9679 -0.1504 -0.8888
 4361TIP3    H237279   5.548   5.302  19.771  0.6378 -0.8076 -0.2662
 4362TIP3   OH237280   4.844   3.150  20.005  0.6381  0.5279 -0.2550
 4362TIP3    H137281   4.800   3.081  20.055  0.8224  0.5086 -0.1173
 4362TIP3    H237282   4.882   3.208  20.071  2.3212 -0.4118 -0.3337
 4363TIP3   OH237283   3.323   5.477  18.273 -0.4315  0.4727 -0.3542
 4363TIP3    H137284   3.284   5.549  18.223 -1.4689 -0.1356 -0.4506
 4363TIP3    H237285   3.251   5.415  18.286  0.5768 -0.8143 -0.7465
 4364TIP3   OH237286   3.916   6.612  19.071  0.5899  0.6574 -0.4728
 4364TIP3    H137287   3.897   6.519  19.063  1.3230  0.4022  0.5588
 4364TIP3    H237288   3.959   6.635  18.988 -0.6816  0.3760 -1.2342
 4365TIP3   OH237289   6.371   3.661  18.459  0.0368  0.3397 -0.1970
 4365TIP3    H137290   6.285   3.641  18.421 -0.6763 -0.2750  1.6245
 4365TIP3    H237291   6.370   3.756  18.472 -1.1426  0.1495  1.4510
 4366TIP3   OH237292   2.914   6.579  19.966  0.8008  0.4758  0.4726
 4366TIP3    H137293   2.974   6.653  19.972 -0.6500  1.7029  0.5211
 4366TIP3    H237294   2.895   6.570  19.873 -1.6604  2.4931  0.6389
 4367TIP3   OH237295   1.804   6.164  18.510 -0.7118  0.5262  0.3893
 4367TIP3    H137296   1.766   6.148  18.424  3.3159  1.0383 -1.7108
 4367TIP3    H237297   1.858   6.242  18.498  1.4839 -0.4699  2.8203
 4368TIP3   OH237298   2.893   2.442  17.979  0.0098  0.1895 -0.4126
 4368TIP3    H137299   2.809   2.471  17.945  0.4530  1.5295 -0.4620
 4368TIP3    H237300   2.933   2.394  17.907 -0.9239 -0.9221 -0.2017
 4369TIP3   OH237301   1.710   4.014  19.719  0.1173 -0.3794 -0.2162
 4369TIP3    H137302   1.672   3.965  19.646 -1.8584  0.3419  0.2861
 4369TIP3    H237303   1.675   3.972  19.798 -0.1689  0.7125  0.2556
 4370TIP3   OH237304   0.692   0.668  18.389 -0.2721 -0.0080 -0.7012
 4370TIP3    H137305   0.736   0.589  18.422  1.5883  0.6305 -1.5249
 4370TIP3    H237306   0.718   0.673  18.297 -0.6410  1.3856 -0.7449
 4371TIP3   OH237307   3.840   0.154  19.046 -0.4480 -0.0605 -0.1472
 4371TIP3    H137308   3.899   0.078  19.050  0.1078  0.3442 -0.5137
 4371TIP3    H237309   3.894   0.224  19.009 -1.3715  0.1118 -1.2193
 4372TIP3   OH237310   1.583   2.888  19.996 -0.3722  0.4416 -0.3598
 4372TIP3    H137311   1.517   2.851  19.937 -1.5433  2.6012 -0.4709
 4372TIP3    H237312   1.666   2.872  19.950 -0.9936 -0.3378 -1.2750
 4373TIP3   OH237313   3.768   0.575  19.775 -0.3211 -0.1845 -0.4484
 4373TIP3    H137314   3.675   0.555  19.771 -0.6778  1.2293  0.3790
 4373TIP3    H237315   3.796   0.546  19.862 -0.0554 -0.3112 -0.5741
 4374TIP3   OH237316   2.206   4.082  18.339 -0.0497  0.1636  0.0579
 4374TIP3    H137317   2.144   4.123  18.279  0.8731  0.5951 -0.6200
 4374TIP3    H237318   2.221   4.147  18.407 -0.3686  0.0429  0.2449
 4375TIP3   OH237319   4.545   4.447  19.731  0.6712  0.1174  0.4750
 4375TIP3    H137320   4.520   4.460  19.823 -1.2773 -1.6095  0.2543
 4375TIP3    H237321   4.466   4.414  19.689  1.9554 -0.6279 -1.5072
 4376TIP3   OH237322   2.845   0.415  17.674 -0.1143 -0.6016 -0.1395
 4376TIP3    H137323   2.852   0.396  17.580  0.1091 -1.2309  0.0059
 4376TIP3    H237324   2.755   0.448  17.685 -0.0210 -0.1662 -0.6322
 4377TIP3   OH237325   6.278   6.280  18.646  0.0468 -0.0269  0.2068
 4377TIP3    H137326   6.280   6.358  18.590 -2.5972 -0.8375 -1.2021
 4377TIP3    H237327   6.355   6.229  18.618  0.7396  1.1742 -0.1825
 4378TIP3   OH237328   6.131   0.695  19.648  0.1827  0.7181  0.1249
 4378TIP3    H137329   6.107   0.603  19.648 -0.3313  0.8465 -0.4039
 4378TIP3    H237330   6.216   0.698  19.692 -0.4050  0.1504  1.3661
 4379TIP3   OH237331   0.505   6.705  19.290  0.9631  0.1833 -0.0808
 4379TIP3    H137332   0.564   6.776  19.317  1.8628 -0.2683 -0.7648
 4379TIP3    H237333   0.515   6.638  19.357  0.0707  0.7197  0.5949
 4380TIP3   OH237334   0.735   6.650  18.252  0.0106  0.2280 -0.1851
 4380TIP3    H137335   0.780   6.685  18.175 -0.6524 -1.9098 -1.6253
 4380TIP3    H237336   0.643   6.674  18.239  0.1922  1.8989  1.1971
 4381TIP3   OH237337   1.059   5.305  19.660  0.1529 -0.1775 -0.4544
 4381TIP3    H137338   1.019   5.356  19.590 -0.2110 -0.5588 -0.5344
 4381TIP3    H237339   0.993   5.305  19.730  0.3600 -0.1103 -0.2569
 4382TIP3   OH237340   2.828   0.444  20.667  0.0676 -0.6239 -0.3094
 4382TIP3    H137341   2.843   0.482  20.754  2.2603  0.8553 -1.2380
 4382TIP3    H237342   2.916   0.431  20.631 -0.7795 -0.3358 -2.6525
 4383TIP3   OH237343   1.753   1.900  17.477 -0.1126 -0.6615 -0.4664
 4383TIP3    H137344   1.773   1.909  17.570  0.6166 -3.3016 -0.2721
 4383TIP3    H237345   1.657   1.904  17.472 -0.2298 -1.6746  0.5940
 4384TIP3   OH237346   6.065   3.758  18.762 -0.2842 -0.1470  0.6941
 4384TIP3    H137347   6.006   3.794  18.828 -0.9296  0.9333 -0.4293
 4384TIP3    H237348   6.151   3.793  18.784 -0.5787  0.5815  0.6830
 4385TIP3   OH237349   6.003   4.996  20.448  0.3821 -0.5349 -0.0726
 4385TIP3    H137350   5.962   5.076  20.415 -1.1288 -1.3153 -0.1840
 4385TIP3    H237351   6.083   5.026  20.492 -1.9815  1.5558  3.2972
 4386TIP3   OH237352   4.411   1.653  20.877 -0.6132  0.0953  0.0049
 4386TIP3    H137353   4.405   1.737  20.922  0.5334  0.4078 -0.3840
 4386TIP3    H237354   4.498   1.654  20.836 -0.9131 -0.9302 -0.7023
 4387TIP3   OH237355   3.197   2.298  20.131 -0.1457  0.6538  0.0703
 4387TIP3    H137356   3.117   2.306  20.183 -0.3575 -1.4397  0.1228
 4387TIP3    H237357   3.169   2.322  20.042 -0.5424  1.0609  0.2952
 4388TIP3   OH237358   4.501   1.222  19.922  0.0016 -0.0586  0.0029
 4388TIP3    H137359   4.414   1.257  19.943  0.2319 -0.8668  2.6843
 4388TIP3    H237360   4.486   1.129  19.910  0.3526 -0.0454 -0.5227
 4389TIP3   OH237361   0.780   5.087  20.053 -0.1018 -0.0793  0.3284
 4389TIP3    H137362   0.777   5.134  20.136 -1.4117 -0.1102  0.3300
 4389TIP3    H237363   0.688   5.084  20.024  0.5605  2.6325 -2.6483
 4390TIP3   OH237364   1.104   1.200  20.129  0.0945 -0.0242  0.2042
 4390TIP3    H137365   1.147   1.250  20.059 -1.7934  2.8568  0.8979
 4390TIP3    H237366   1.030   1.158  20.086 -0.2428  0.5823  0.1728
 4391TIP3   OH237367   3.330   5.796  18.478 -0.6192 -0.1916  0.3283
 4391TIP3    H137368   3.295   5.722  18.527  1.0665 -1.7845 -0.7096
 4391TIP3    H237369   3.423   5.776  18.467  0.0387  2.3663  0.4277
 4392TIP3   OH237370   4.378   2.031  19.356 -0.0246  0.4426 -0.3369
 4392TIP3    H137371   4.416   2.060  19.439  1.1001 -0.0206 -0.6735
 4392TIP3    H237372   4.426   2.079  19.289  0.4016 -0.5877 -0.7969
 4393TIP3   OH237373   5.691   2.942  20.673 -0.1496 -0.1383  0.7565
 4393TIP3    H137374   5.699   3.021  20.620 -1.0149 -0.7049 -0.2550
 4393TIP3    H237375   5.597   2.927  20.681  0.0024 -0.9624  1.0897
 4394TIP3   OH237376   4.138   1.740  19.727 -0.0952 -0.3318  0.7459
 4394TIP3    H137377   4.084   1.818  19.740  0.9025  0.3901  0.7274
 4394TIP3    H237378   4.226   1.775  19.710  0.5490 -1.4781  1.5806
 4395TIP3   OH237379   6.173   5.348  19.537 -0.4480  0.2371  0.0376
 4395TIP3    H137380   6.237   5.355  19.607  2.6347  0.7777 -2.6101
 4395TIP3    H237381   6.175   5.255  19.511 -1.9834 -0.0830  0.9115
 4396TIP3   OH237382   4.997   4.061  20.096 -0.7099 -0.2509  0.0514
 4396TIP3    H137383   4.969   4.104  20.015 -2.0250 -0.1155  0.5668
 4396TIP3    H237384   5.005   3.969  20.074  2.7170  0.1962 -1.2335
 4397TIP3   OH237385   5.420   2.377  17.207 -0.3226  0.3770  0.3137
 4397TIP3    H137386   5.332   2.357  17.175 -0.0581  1.2905 -1.1099
 4397TIP3    H237387   5.410   2.459  17.255 -0.2540  0.5092  0.1062
 4398TIP3   OH237388   2.974   2.422  20.230 -0.2716 -0.0685 -0.0632
 4398TIP3    H137389   2.958   2.343  20.281 -1.9288 -1.4612 -2.4875
 4398TIP3    H237390   2.894   2.474  20.240  0.1329  0.5149  0.1979
 4399TIP3   OH237391   5.768   3.236  19.075  0.4274 -0.9215 -0.2286
 4399TIP3    H137392   5.716   3.215  19.152 -1.2915  0.6996 -0.8794
 4399TIP3    H237393   5.704   3.255  19.007  1.8936 -0.3014 -1.4984
 4400TIP3   OH237394   4.688   4.875  19.085  1.0456 -0.2292 -0.1508
 4400TIP3    H137395   4.770   4.827  19.093  1.8880  1.1919  0.0740
 4400TIP3    H237396   4.641   4.857  19.166  2.9183  2.0973  1.5790
 4401TIP3   OH237397   4.838   0.472  17.124 -0.2262 -0.5897  0.6622
 4401TIP3    H137398   4.901   0.528  17.169 -1.5789  0.2617  1.5617
 4401TIP3    H237399   4.772   0.533  17.090  0.3359 -1.2724 -1.8716
 4402TIP3   OH237400   4.130   3.655  20.501  0.5572  0.1266 -0.1718
 4402TIP3    H137401   4.063   3.640  20.568 -1.5246 -0.0518 -2.1670
 4402TIP3    H237402   4.151   3.568  20.468  0.2486  0.3281 -0.9181
 4403TIP3   OH237403   6.130   0.618  17.127  0.1200  0.2830 -0.0820
 4403TIP3    H137404   6.150   0.667  17.047 -2.1300  1.0396 -0.2489
 4403TIP3    H237405   6.104   0.531  17.097  1.8435 -0.3058  0.0506
 4404TIP3   OH237406   4.511   3.042  18.063  0.2693  0.1833 -0.4186
 4404TIP3    H137407   4.532   2.952  18.037 -1.3465  0.2611 -2.2286
 4404TIP3    H237408   4.595   3.087  18.064  1.0365 -1.2204 -0.0564
 4405TIP3   OH237409   1.059   3.752  19.346  0.1166 -0.3080  0.3331
 4405TIP3    H137410   0.992   3.706  19.396  0.3446 -1.1389 -0.0970
 4405TIP3    H237411   1.116   3.792  19.412  0.3299 -1.2641  0.7399
 4406TIP3   OH237412   6.012   1.296  19.394 -0.6903 -0.2708 -0.6508
 4406TIP3    H137413   5.951   1.224  19.381 -0.8833 -0.6016  1.5663
 4406TIP3    H237414   5.972   1.349  19.463  0.7571  0.3961 -0.2731
 4407TIP3   OH237415   2.805   1.071  17.728 -0.6533  0.1427 -0.6499
 4407TIP3    H137416   2.737   1.021  17.682 -0.4160 -0.3888 -0.4315
 4407TIP3    H237417   2.823   1.145  17.671 -0.2911 -0.5614 -1.4731
 4408TIP3   OH237418   4.678   0.464  19.522  0.4638 -0.1465 -0.3608
 4408TIP3    H137419   4.629   0.450  19.603 -1.2655  2.2136 -0.8963
 4408TIP3    H237420   4.766   0.489  19.551 -0.2154  0.9645  0.8207
 4409TIP3   OH237421   0.814   3.061  18.945  0.2978 -0.1579  0.0238
 4409TIP3    H137422   0.859   3.112  18.878  0.0800 -0.6153 -0.4808
 4409TIP3    H237423   0.793   2.978  18.902  0.5317 -0.6246  0.7867
 4410TIP3   OH237424   2.620   5.663  19.561 -0.2227  0.5921  0.0574
 4410TIP3    H137425   2.606   5.736  19.500  1.8398 -1.2701 -2.9567
 4410TIP3    H237426   2.694   5.615  19.524 -0.5205 -2.2264  2.6951
 4411TIP3   OH237427   3.309   2.640  19.287 -0.8338  0.1155 -0.3716
 4411TIP3    H137428   3.379   2.702  19.309  1.3811 -2.7957  1.5308
 4411TIP3    H237429   3.236   2.667  19.342  0.0203  1.1667  0.2991
 4412TIP3   OH237430   2.631   2.790  18.193  0.1098 -0.3236 -0.1634
 4412TIP3    H137431   2.619   2.797  18.288 -2.5726  1.0740 -0.4826
 4412TIP3    H237432   2.721   2.819  18.177  0.9863 -1.6415  1.9912
 4413TIP3   OH237433   1.806   4.513  18.802 -0.3092 -0.0003  0.2856
 4413TIP3    H137434   1.798   4.509  18.707  1.5131  1.9662 -0.0374
 4413TIP3    H237435   1.759   4.593  18.826  2.0341  1.4090  0.5366
 4414TIP3   OH237436   5.454   4.254  20.237 -0.1259 -0.0515 -0.0249
 4414TIP3    H137437   5.456   4.331  20.293 -0.2661 -0.0368 -0.0382
 4414TIP3    H237438   5.361   4.244  20.214 -0.1605 -0.4376  0.2705
 4415TIP3   OH237439   1.069   2.900  17.613  0.0694  0.3923 -0.1636
 4415TIP3    H137440   0.985   2.871  17.577  0.1296 -1.0405  0.7470
 4415TIP3    H237441   1.112   2.819  17.642  1.3921  1.1799  0.1705
 4416TIP3   OH237442   2.069   4.234  18.144  0.3690 -0.1688  0.4381
 4416TIP3    H137443   2.011   4.292  18.194 -0.2117 -0.8493  0.5637
 4416TIP3    H237444   2.011   4.186  18.085  0.6298 -1.6828  1.3571
 4417TIP3   OH237445   0.517   5.930  19.437 -0.3970  0.5525  0.1540
 4417TIP3    H137446   0.434   5.898  19.472  0.2855 -1.2579  0.2146
 4417TIP3    H237447   0.566   5.959  19.514  0.8111 -2.7335  0.7726
 4418TIP3   OH237448   3.108   5.571  18.499 -0.3976 -0.0191  0.3359
 4418TIP3    H137449   3.048   5.538  18.432 -1.6115 -1.1184  1.8608
 4418TIP3    H237450   3.053   5.624  18.556  0.5747  0.7737  0.5708
 4419TIP3   OH237451   3.037   1.594  17.521 -0.4899 -0.1806  0.1120
 4419TIP3    H137452   3.080   1.645  17.453  1.1943 -2.2090 -0.4485
 4419TIP3    H237453   2.960   1.557  17.477 -0.4475  0.0140 -0.1290
 4420TIP3   OH237454   5.684   1.329  19.197  0.0753  0.4238 -0.0616
 4420TIP3    H137455   5.671   1.273  19.274  0.0481 -0.6448 -0.8082
 4420TIP3    H237456   5.596   1.361  19.176  0.0970  0.7858  0.4041
 4421TIP3   OH237457   6.319   2.160  19.805  0.1337  0.3253 -0.5909
 4421TIP3    H137458   6.365   2.124  19.729  0.6617  1.5246 -0.8724
 4421TIP3    H237459   6.383   2.157  19.876 -0.3453 -0.7538 -0.1963
 4422TIP3   OH237460   1.022   5.877  17.668 -0.3918  0.2435  0.1519
 4422TIP3    H137461   1.080   5.802  17.655 -0.1249  0.2352  1.2755
 4422TIP3    H237462   0.934   5.840  17.667 -0.6014  0.5179 -3.5945
 4423TIP3   OH237463   4.301   5.108  18.203  0.6095  0.1133  0.0656
 4423TIP3    H137464   4.214   5.095  18.165  0.5186 -0.1965  0.3765
 4423TIP3    H237465   4.299   5.060  18.285  1.1855 -0.1650 -0.0772
 4424TIP3   OH237466   4.373   3.451  20.442 -0.6786 -0.3020 -0.2400
 4424TIP3    H137467   4.388   3.407  20.359 -2.1654 -1.9589  0.2972
 4424TIP3    H237468   4.352   3.380  20.503 -0.9643  0.9841  1.2288
 4425TIP3   OH237469   3.282   0.192  17.144 -0.3787 -0.7171  0.2505
 4425TIP3    H137470   3.228   0.232  17.213 -0.6732 -1.4244  0.4444
 4425TIP3    H237471   3.249   0.229  17.063 -0.9362 -0.8802  0.3965
 4426TIP3   OH237472   1.082   2.001  18.472  0.4037 -0.5244  0.5424
 4426TIP3    H137473   1.095   1.914  18.437  1.8144  0.0420 -0.4146
 4426TIP3    H237474   1.025   2.045  18.409 -0.4198 -0.7883  1.0946
 4427TIP3   OH237475   1.883   3.715  19.646  0.2811 -0.1012  0.1128
 4427TIP3    H137476   1.898   3.773  19.571 -0.4288  1.5264  1.1712
 4427TIP3    H237477   1.796   3.677  19.630  0.2091  0.1000  0.0209
 4428TIP3   OH237478   4.531   0.142  16.908 -0.1223  0.6269  0.2467
 4428TIP3    H137479   4.464   0.208  16.923 -1.3971 -0.6249  0.2611
 4428TIP3    H237480   4.613   0.191  16.903 -0.8924  2.0857  1.3187
 4429TIP3   OH237481   2.377   0.198  18.592  0.1417 -0.2361  0.3228
 4429TIP3    H137482   2.333   0.237  18.517 -3.0101 -2.5199  0.7699
 4429TIP3    H237483   2.325   0.225  18.667  0.7858 -1.2607  1.1654
 4430TIP3   OH237484   2.038   2.348  19.055  0.8724  0.4674  0.0035
 4430TIP3    H137485   2.086   2.266  19.062 -1.0062 -0.6286  0.8835
 4430TIP3    H237486   1.949   2.326  19.084  0.3911  2.8857  0.5594
 4431TIP3   OH237487   1.756   0.102  18.866  0.0638  0.2510 -0.0993
 4431TIP3    H137488   1.796   0.019  18.889  0.3972  0.4071 -0.1095
 4431TIP3    H237489   1.734   0.093  18.773 -1.2292 -0.3554  0.2502
 4432TIP3   OH237490   3.329   1.370  18.437 -0.0036 -0.0648 -0.1575
 4432TIP3    H137491   3.254   1.409  18.481  0.6004  0.5693  0.3214
 4432TIP3    H237492   3.292   1.300  18.383 -1.1212  1.3055 -1.2029
 4433TIP3   OH237493   3.037   1.084  20.202 -0.8719 -0.2735 -0.5717
 4433TIP3    H137494   3.046   1.179  20.213  0.2854 -0.3901 -0.4384
 4433TIP3    H237495   3.117   1.048  20.239 -0.9539 -1.2610 -1.3255
 4434TIP3   OH237496   4.913   0.880  16.692  0.1322 -0.3234 -0.1363
 4434TIP3    H137497   4.879   0.969  16.689 -1.8396 -1.0132  0.2333
 4434TIP3    H237498   4.954   0.873  16.778  1.4539  0.5750 -0.6521
 4435TIP3   OH237499   2.967   3.884  18.709 -0.1176  0.2228  0.4289
 4435TIP3    H137500   3.041   3.928  18.667  1.6763 -1.1662  1.9490
 4435TIP3    H237501   2.937   3.820  18.644 -1.1325  1.8708 -0.8208
 4436TIP3   OH237502   0.030   5.418  18.750  0.1327 -0.4960 -0.1195
 4436TIP3    H137503  -0.014   5.373  18.678  1.2703 -2.0451  0.1098
 4436TIP3    H237504   0.008   5.367  18.828 -0.3211  0.6242  0.5194
 4437TIP3   OH237505   4.655   2.178  19.256  0.1531  0.1492 -0.5101
 4437TIP3    H137506   4.601   2.245  19.298  0.6342 -0.5569  1.2978
 4437TIP3    H237507   4.726   2.228  19.216  0.3808  0.7581  0.6086
 4438TIP3   OH237508   3.581   4.182  19.547 -0.3576  0.7176 -0.1756
 4438TIP3    H137509   3.611   4.100  19.585  0.4654  1.2706  0.3916
 4438TIP3    H237510   3.487   4.169  19.532 -0.1373 -0.5047 -0.5829
 4439TIP3   OH237511   4.118   2.884  19.765 -0.1428 -0.5903 -0.1326
 4439TIP3    H137512   4.039   2.847  19.725 -0.5822  0.1418  0.0341
 4439TIP3    H237513   4.156   2.939  19.697 -1.0669  0.9122  0.5245
 4440TIP3   OH237514   1.524   1.038  19.748 -0.0806  0.4917  0.3144
 4440TIP3    H137515   1.544   1.060  19.839  0.4053  0.2784  0.2641
 4440TIP3    H237516   1.603   0.995  19.716  1.2837  3.9050 -1.3569
 4441TIP3   OH237517   6.435   1.240  18.602 -0.2594  0.1402 -0.7509
 4441TIP3    H137518   6.507   1.230  18.540  0.2121 -0.4823 -0.1143
 4441TIP3    H237519   6.463   1.192  18.680 -1.5101 -0.4268 -0.6186
 4442TIP3   OH237520   3.124   4.552  20.729  0.1664  0.2323 -0.1707
 4442TIP3    H137521   3.163   4.631  20.767  0.1496  0.4376 -0.5796
 4442TIP3    H237522   3.152   4.553  20.638 -2.1349  1.2650 -0.9427
 4443TIP3   OH237523   0.113   3.653  19.650  0.7077  0.6315 -0.1238
 4443TIP3    H137524   0.174   3.654  19.576  0.4203  1.6752 -0.3689
 4443TIP3    H237525   0.035   3.610  19.616  1.0920 -0.2034  0.0226
 4444TIP3   OH237526   5.532   6.517  18.968 -0.0527 -0.0953 -0.1142
 4444TIP3    H137527   5.535   6.601  18.922  2.1795 -0.0376  0.0510
 4444TIP3    H237528   5.606   6.468  18.933 -0.2082 -1.2738  1.1248
 4445TIP3   OH237529   5.944   0.445  18.528  0.1525 -0.4835  0.0460
 4445TIP3    H137530   5.911   0.420  18.442 -2.2280 -2.3122  1.3659
 4445TIP3    H237531   5.931   0.540  18.532  1.5618 -0.1201 -2.0234
 4446TIP3   OH237532   1.784   0.840  18.274 -0.1271  0.3047 -0.5499
 4446TIP3    H137533   1.692   0.818  18.258 -0.4713  1.2691 -0.0478
 4446TIP3    H237534   1.794   0.927  18.234  0.0764  0.9667  0.8745
 4447TIP3   OH237535   1.242   4.621  17.792 -0.2943  0.1952  0.3478
 4447TIP3    H137536   1.273   4.536  17.824 -1.2967 -0.1222  0.5144
 4447TIP3    H237537   1.309   4.683  17.821  0.0547 -0.4260  0.9206
 4448TIP3   OH237538   2.326   2.183  19.004  0.0096  0.3627 -0.1486
 4448TIP3    H137539   2.405   2.143  19.039 -0.0689  2.2972  2.4925
 4448TIP3    H237540   2.265   2.109  18.993  1.2075 -0.7715  0.5617
 4449TIP3   OH237541   0.704   0.234  18.309 -0.1768 -0.2585  0.2390
 4449TIP3    H137542   0.621   0.217  18.265  0.7175 -2.2884 -0.8097
 4449TIP3    H237543   0.681   0.241  18.402 -1.7789  1.6059 -0.2335
 4450TIP3   OH237544   2.090   0.108  19.043  0.2528  0.3238  0.2090
 4450TIP3    H137545   2.003   0.070  19.026  0.3706  0.5535 -0.9491
 4450TIP3    H237546   2.151   0.036  19.026  0.3271  0.2897  0.5992
 4451TIP3   OH237547   2.473   0.055  20.866  0.1877 -0.3026  0.3396
 4451TIP3    H137548   2.438   0.007  20.791 -0.0034 -0.0026  0.2366
 4451TIP3    H237549   2.486  -0.012  20.933  0.7288 -0.6387 -0.0876
 4452TIP3   OH237550   5.251   3.411  19.370  0.0623 -0.0419  0.1625
 4452TIP3    H137551   5.225   3.469  19.442  0.9428  0.2869  0.2357
 4452TIP3    H237552   5.316   3.353  19.409  1.1467  0.6623 -0.5446
 4453TIP3   OH237553   6.567   0.000  17.884  0.0133 -0.0508 -0.4144
 4453TIP3    H137554   6.480  -0.028  17.859 -0.5609 -0.1276  1.5442
 4453TIP3    H237555   6.561   0.096  17.886  0.5534  0.0665 -2.1060
 4454TIP3   OH237556   4.862   5.996  19.951 -0.1236  0.2323  0.4144
 4454TIP3    H137557   4.893   5.954  19.871 -1.6810  1.0281 -0.6640
 4454TIP3    H237558   4.803   6.065  19.921  0.8961  1.9890  2.1992
 4455TIP3   OH237559   6.433   5.496  18.071 -0.6374  0.5854  0.0558
 4455TIP3    H137560   6.495   5.548  18.020 -1.9456  3.3211  1.0016
 4455TIP3    H237561   6.399   5.431  18.010  2.1722 -0.2066 -0.8092
 4456TIP3   OH237562   3.927   4.595  18.765 -0.4327  0.1905  0.5514
 4456TIP3    H137563   3.856   4.531  18.764  0.3231 -0.6885  1.2459
 4456TIP3    H237564   3.955   4.598  18.857  1.4400 -0.6552  0.0397
 4457TIP3   OH237565   6.137   3.611  18.350 -0.4364  0.0688  0.2061
 4457TIP3    H137566   6.109   3.603  18.259 -0.0397  1.2056 -0.0361
 4457TIP3    H237567   6.056   3.624  18.399 -0.6225 -0.1675 -0.0384
 4458TIP3   OH237568   0.162   2.154  18.730  0.3099  0.7018 -0.0770
 4458TIP3    H137569   0.201   2.092  18.668  0.4992 -0.3776  1.0711
 4458TIP3    H237570   0.231   2.219  18.744  0.6089  0.4434 -0.3098
 4459TIP3   OH237571   3.546   5.990  19.273 -0.2444 -0.8418 -0.4568
 4459TIP3    H137572   3.513   6.064  19.224 -1.2241 -0.0339  1.3438
 4459TIP3    H237573   3.614   5.952  19.217 -0.6898  0.5561 -1.9967
 4460TIP3   OH237574   0.779   3.149  17.857 -0.4177 -0.1655  0.0614
 4460TIP3    H137575   0.792   3.244  17.854  1.7048 -0.4062  0.4990
 4460TIP3    H237576   0.860   3.113  17.823 -0.6934 -1.8594  1.1047
 4461TIP3   OH237577   1.303   4.150  17.483  0.0367  0.4696  0.4624
 4461TIP3    H137578   1.375   4.117  17.536 -0.1115  0.3913  0.6145
 4461TIP3    H237579   1.262   4.072  17.446 -1.5271  0.3122  2.3696
 4462TIP3   OH237580   0.278   0.949  17.646 -0.6610  0.5399 -0.5943
 4462TIP3    H137581   0.252   0.977  17.558 -1.2574  0.2693 -0.5032
 4462TIP3    H237582   0.329   0.869  17.631  0.2728  1.1419 -0.7796
 4463TIP3   OH237583   1.527   1.111  18.473  0.4663  0.6764 -0.4227
 4463TIP3    H137584   1.575   1.169  18.532  1.2445  0.3024 -0.6736
 4463TIP3    H237585   1.442   1.154  18.461  0.6085  1.1762  0.2981
 4464TIP3   OH237586   4.877   4.117  17.993 -0.4230  0.0495 -0.0245
 4464TIP3    H137587   4.972   4.121  17.980 -0.5393 -0.4562 -1.2340
 4464TIP3    H237588   4.854   4.027  17.967 -1.0869 -0.2056  1.3842
 4465TIP3   OH237589   1.792   2.095  18.337 -0.6054 -0.4183 -1.0431
 4465TIP3    H137590   1.759   2.065  18.252 -0.2454 -0.6348 -1.1126
 4465TIP3    H237591   1.723   2.151  18.372 -0.8576 -0.5213 -1.3730
 4466TIP3   OH237592   0.968   2.266  19.586 -0.5157  1.0826 -0.1593
 4466TIP3    H137593   0.948   2.234  19.498  0.3937  0.5596 -0.1919
 4466TIP3    H237594   0.883   2.287  19.624 -1.1732 -1.1011 -0.2686
 4467TIP3   OH237595   5.194   0.345  18.506  0.3012 -0.3158  0.5385
 4467TIP3    H137596   5.214   0.434  18.476 -0.8084 -0.3683 -0.4566
 4467TIP3    H237597   5.259   0.290  18.463  0.2104 -0.1142  0.1352
 4468TIP3   OH237598   5.656   1.257  19.497 -0.5158 -0.2170 -0.4202
 4468TIP3    H137599   5.720   1.194  19.530  1.1890  0.1702 -2.7310
 4468TIP3    H237600   5.657   1.328  19.561  0.5292 -0.7123  0.1427
 4469TIP3   OH237601   4.150   3.076  20.674  0.5178 -0.7857  0.0339
 4469TIP3    H137602   4.192   3.031  20.600 -0.2156 -1.4403  0.0033
 4469TIP3    H237603   4.067   3.107  20.638  1.4897  1.6374 -0.2706
 4470TIP3   OH237604   5.668   5.050  20.880 -0.1717 -0.2956 -0.7195
 4470TIP3    H137605   5.610   4.977  20.862 -0.6846 -0.2619  0.7236
 4470TIP3    H237606   5.620   5.128  20.851 -0.4431 -0.3551 -0.4279
 4471TIP3   OH237607   3.225   1.546  19.354 -0.3530 -0.1053 -0.0412
 4471TIP3    H137608   3.252   1.629  19.392  1.0263 -0.5870  0.0923
 4471TIP3    H237609   3.196   1.494  19.429 -0.2267 -0.1013  0.0114
 4472TIP3   OH237610   4.506   3.767  18.695 -0.7065 -0.0839 -0.3447
 4472TIP3    H137611   4.477   3.850  18.733  1.0824  0.4639 -0.1078
 4472TIP3    H237612   4.475   3.770  18.604 -1.7103  0.2868 -0.0034
 4473TIP3   OH237613   4.293   0.735  18.558 -0.0988  0.2274  0.6186
 4473TIP3    H137614   4.270   0.693  18.475  2.1294  0.0744  0.0031
 4473TIP3    H237615   4.225   0.707  18.619 -1.9110  0.4905 -1.1629
 4474TIP3   OH237616   2.862   0.180  18.987  0.7326 -0.1754 -0.5031
 4474TIP3    H137617   2.852   0.100  19.039 -1.2619  0.1382 -0.3141
 4474TIP3    H237618   2.801   0.242  19.027  1.9164  1.3272 -0.9276
 4475TIP3   OH237619   4.150   5.875  20.202 -0.1606  0.3250  0.8052
 4475TIP3    H137620   4.220   5.856  20.265 -0.6140 -1.0849  0.9234
 4475TIP3    H237621   4.183   5.841  20.119 -0.6124 -0.1547  0.8182
 4476TIP3   OH237622   1.010   6.309  20.025 -0.0599 -0.0739  0.0844
 4476TIP3    H137623   0.934   6.278  19.975  0.2945 -2.2993  0.8205
 4476TIP3    H237624   0.985   6.295  20.116  0.4714  1.0863  0.4219
 4477TIP3   OH237625   2.684   0.656  17.055 -0.3293  0.4429 -0.0244
 4477TIP3    H137626   2.741   0.637  16.980 -0.8711 -1.2274 -0.0314
 4477TIP3    H237627   2.607   0.601  17.042 -0.3548 -0.0328  1.8595
 4478TIP3   OH237628   3.018   1.063  19.516 -0.2659 -0.5069 -0.2660
 4478TIP3    H137629   2.926   1.068  19.543 -0.4414 -2.3142 -0.3910
 4478TIP3    H237630   3.037   0.969  19.514  1.8959 -0.1494  0.7446
 4479TIP3   OH237631   2.936   0.870  18.290  0.2303  0.5786 -0.3200
 4479TIP3    H137632   2.862   0.930  18.281  0.7937  1.2447 -0.5709
 4479TIP3    H237633   2.966   0.856  18.200 -0.2129 -0.5043 -0.3224
 4480TIP3   OH237634   1.033   2.857  18.135 -0.2172  0.2173  0.1938
 4480TIP3    H137635   1.101   2.883  18.073  0.5950 -1.0213  0.5234
 4480TIP3    H237636   1.041   2.762  18.141 -1.0046  0.2021  1.3714
 4481TIP3   OH237637   0.947   0.786  18.520  0.6842 -0.8890 -0.0713
 4481TIP3    H137638   0.945   0.691  18.508  2.0231 -0.8491 -0.8080
 4481TIP3    H237639   0.927   0.821  18.433 -1.0585 -0.4560  0.4680
 4482TIP3   OH237640   1.482   2.618  19.006  0.1393  0.4302 -0.6827
 4482TIP3    H137641   1.464   2.546  18.947  1.7840  0.5276 -1.3530
 4482TIP3    H237642   1.576   2.611  19.025  0.0380  1.5497  0.3726
 4483TIP3   OH237643   5.237   5.543  18.391  0.1974  0.2055  0.5404
 4483TIP3    H137644   5.171   5.554  18.460  1.2223 -2.8399  2.1804
 4483TIP3    H237645   5.186   5.541  18.310 -1.4526  0.3204  1.5267
 4484TIP3   OH237646   5.186   6.429  18.898  0.5499  0.7710 -0.1363
 4484TIP3    H137647   5.199   6.371  18.973 -0.6175  0.6427 -0.0221
 4484TIP3    H237648   5.153   6.511  18.936  0.7999  1.0163 -0.4354
 4485TIP3   OH237649   3.833   4.046  18.921 -0.4228 -0.9448 -0.0541
 4485TIP3    H137650   3.858   3.954  18.913  1.4984 -0.3996 -0.7090
 4485TIP3    H237651   3.866   4.073  19.007  0.9799 -0.3240 -0.7574
 4486TIP3   OH237652   1.465   6.561  18.159 -0.6627 -0.3129  0.1950
 4486TIP3    H137653   1.413   6.635  18.128  1.1416  2.2697  2.7691
 4486TIP3    H237654   1.414   6.525  18.232 -0.1845  0.4120  0.9050
 4487TIP3   OH237655   1.746   0.879  17.650  0.7711 -0.3030 -0.2174
 4487TIP3    H137656   1.655   0.858  17.629  0.7495 -0.7771  0.3232
 4487TIP3    H237657   1.753   0.863  17.744  0.7682  2.0673  0.2643
 4488TIP3   OH237658   5.827   0.878  18.593  0.3536 -0.3188  0.3536
 4488TIP3    H137659   5.781   0.869  18.509  2.8884  2.2640 -1.4984
 4488TIP3    H237660   5.766   0.927  18.649 -0.1932  0.7797 -1.1382
 4489TIP3   OH237661   1.789   4.656  19.688  0.3832 -0.2284  0.0663
 4489TIP3    H137662   1.878   4.671  19.660 -0.2522  2.6082 -0.6772
 4489TIP3    H237663   1.794   4.654  19.784  1.0028  2.0021  0.1182
 4490TIP3   OH237664   0.784   5.462  20.670 -0.1278 -0.1734  0.2688
 4490TIP3    H137665   0.793   5.374  20.707 -1.2736 -0.8923 -1.0556
 4490TIP3    H237666   0.860   5.471  20.612 -0.7103 -0.8426 -0.6173
 4491TIP3   OH237667   1.755   1.237  17.552 -0.1052  0.2304  0.4722
 4491TIP3    H137668   1.776   1.315  17.501  1.1805 -1.1727 -1.3060
 4491TIP3    H237669   1.840   1.197  17.571 -0.6933 -0.4302  1.8796
 4492TIP3   OH237670   4.715   2.538  21.080 -0.3248 -0.6962  0.3421
 4492TIP3    H137671   4.711   2.588  20.998 -1.7546  2.0345  1.9777
 4492TIP3    H237672   4.638   2.481  21.076 -0.9597  0.1439  0.1896
 4493TIP3   OH237673   4.504   1.124  20.364 -0.5900 -0.3477 -0.0782
 4493TIP3    H137674   4.437   1.080  20.415 -0.8970  0.4912  0.2468
 4493TIP3    H237675   4.579   1.132  20.424 -0.5343 -0.4221 -0.1372
 4494TIP3   OH237676   5.798   4.845  18.927  0.0240 -0.1241 -0.2292
 4494TIP3    H137677   5.878   4.801  18.957  0.3872  1.4408  1.2832
 4494TIP3    H237678   5.773   4.799  18.848  1.6954 -1.5001 -0.0085
 4495TIP3   OH237679   5.056   1.179  16.758 -0.2302  0.0456 -0.0918
 4495TIP3    H137680   5.108   1.259  16.759  0.5978 -0.4679 -0.8302
 4495TIP3    H237681   5.000   1.186  16.835 -0.9441  1.8335 -0.7170
 4496TIP3   OH237682   2.464   3.736  19.601 -0.1766  0.0687 -0.2997
 4496TIP3    H137683   2.413   3.664  19.639  0.1796  0.6574  1.3358
 4496TIP3    H237684   2.419   3.755  19.518 -2.6220  0.4933  1.0061
 4497TIP3   OH237685   1.608   1.979  18.638 -0.4811 -0.8580 -0.2546
 4497TIP3    H137686   1.540   1.915  18.661 -0.5355 -0.6026  0.3143
 4497TIP3    H237687   1.565   2.064  18.649  0.3961 -0.6263  1.7337
 4498TIP3   OH237688   2.360   6.061  18.817  0.7717  0.4509  0.5992
 4498TIP3    H137689   2.315   6.076  18.734  2.3477 -0.1951 -0.4227
 4498TIP3    H237690   2.326   6.129  18.876 -0.2838  0.9996 -0.6046
 4499TIP3   OH237691   3.828   5.180  20.626 -0.1499  0.0302 -0.3832
 4499TIP3    H137692   3.750   5.214  20.669 -0.3007 -1.3599  0.4958
 4499TIP3    H237693   3.900   5.202  20.684  0.2738  1.9362 -1.5231
 4500TIP3   OH237694   1.451   1.883  19.559  0.0075 -0.5358  0.2080
 4500TIP3    H137695   1.464   1.918  19.471 -1.1208 -1.2714 -0.2712
 4500TIP3    H237696   1.375   1.826  19.551 -0.8381  0.2877  1.9113
 4501TIP3   OH237697   4.925   0.799  17.626 -0.2753 -0.2225 -0.6256
 4501TIP3    H137698   4.886   0.715  17.647 -1.1446  0.5353  1.0741
 4501TIP3    H237699   5.006   0.778  17.580 -0.5275 -1.9654 -0.3282
 4502TIP3   OH237700   0.123   5.692  20.512 -1.1015  0.1133 -0.3362
 4502TIP3    H137701   0.045   5.744  20.493  0.3516  2.8468  0.7127
 4502TIP3    H237702   0.195   5.754  20.508  0.8897 -2.0304  0.1654
 4503TIP3   OH237703   5.897   4.731  18.462 -0.6853  0.5801  0.3089
 4503TIP3    H137704   5.967   4.777  18.507  0.4133  1.6287 -2.2989
 4503TIP3    H237705   5.844   4.800  18.421 -0.0251 -0.2796 -2.2136
 4504TIP3   OH237706   5.678   5.841  18.262  0.6359 -0.2446  0.4509
 4504TIP3    H137707   5.664   5.928  18.299 -0.1780  0.1213 -0.6576
 4504TIP3    H237708   5.765   5.816  18.293  0.6950  0.7654  1.1671
 4505TIP3   OH237709   4.303   5.107  18.969  0.5836 -0.3983 -0.8030
 4505TIP3    H137710   4.298   5.026  19.020  2.6923  0.0165  0.1549
 4505TIP3    H237711   4.266   5.174  19.027  1.8030 -0.1465 -0.2964
 4506TIP3   OH237712   2.963   1.077  19.907  0.5557 -0.4499  0.4325
 4506TIP3    H137713   2.942   0.993  19.866 -0.4598  0.3747 -0.8360
 4506TIP3    H237714   3.058   1.085  19.900  0.5325 -0.9346 -0.6093
 4507TIP3   OH237715   0.412   6.002  18.255  0.5936 -0.2003 -0.6797
 4507TIP3    H137716   0.405   6.045  18.169 -0.4107 -0.8525 -0.9461
 4507TIP3    H237717   0.397   5.910  18.237  1.5908 -0.5236  0.0501
 4508TIP3   OH237718   0.799   3.926  18.386 -0.2646  0.0278 -0.2769
 4508TIP3    H137719   0.752   3.977  18.452  0.3026  1.1576 -0.7321
 4508TIP3    H237720   0.733   3.904  18.320 -0.2789  1.1635 -0.6526
 4509TIP3   OH237721   0.254   4.103  18.832 -0.6310  0.4467 -0.4155
 4509TIP3    H137722   0.208   4.175  18.789 -1.1501  1.5528  1.8450
 4509TIP3    H237723   0.186   4.040  18.854 -0.3500 -0.1758 -1.2574
 4510TIP3   OH237724   4.231   0.429  19.987  0.7767 -0.2479 -0.5853
 4510TIP3    H137725   4.153   0.400  20.033  0.1102  0.6053 -1.1307
 4510TIP3    H237726   4.213   0.521  19.966  2.7783  0.6106  1.0833
 4511TIP3   OH237727   5.505   0.413  18.215  0.1412  0.2710  0.0784
 4511TIP3    H137728   5.456   0.489  18.184 -0.9517 -0.5898 -0.4013
 4511TIP3    H237729   5.569   0.396  18.146 -0.2585  0.1873 -0.2775
 4512TIP3   OH237730   3.973   6.690  17.983  0.7212 -0.0305  0.5947
 4512TIP3    H137731   3.928   6.734  18.055  0.8939 -0.6153  1.0725
 4512TIP3    H237732   4.008   6.761  17.930 -2.0955  0.5150 -0.7126
 4513TIP3   OH237733   2.058   0.062  16.941  0.0486  0.1736  0.3726
 4513TIP3    H137734   1.975   0.108  16.953  0.2443  0.8806 -0.8093
 4513TIP3    H237735   2.108   0.118  16.881  1.1751 -0.5011  0.6480
 4514TIP3   OH237736   6.096   5.803  18.065 -0.1863 -0.4968  0.1405
 4514TIP3    H137737   6.002   5.818  18.050 -0.3151 -1.2479  0.1580
 4514TIP3    H237738   6.103   5.794  18.160  0.2811  1.9492  0.3987
 4515TIP3   OH237739   0.839   4.821  19.091  0.0749  0.5218  0.6358
 4515TIP3    H137740   0.841   4.729  19.117 -0.6082 -0.0870 -1.2564
 4515TIP3    H237741   0.771   4.861  19.146 -2.5395 -1.0893 -1.1737
 4516TIP3   OH237742   4.075   2.487  17.319  0.6856 -0.9603  0.7003
 4516TIP3    H137743   4.012   2.434  17.271  0.7305 -0.2256 -0.2016
 4516TIP3    H237744   4.160   2.465  17.280  0.7476 -0.5039  0.5721
 4517TIP3   OH237745   1.921   0.519  19.357 -0.1264 -0.1275 -0.0964
 4517TIP3    H137746   1.933   0.600  19.306 -0.6269 -0.4737 -0.7826
 4517TIP3    H237747   1.834   0.488  19.331  0.6531 -1.6916 -0.9870
 4518TIP3   OH237748   6.036   4.665  19.911  0.1411  0.4584 -0.1370
 4518TIP3    H137749   5.979   4.638  19.983  0.2752  1.3340  0.3158
 4518TIP3    H237750   6.065   4.583  19.871 -0.1199 -0.0361  0.6678
 4519TIP3   OH237751   4.004   1.129  20.882 -0.0815 -0.0242  0.3499
 4519TIP3    H137752   4.021   1.177  20.963 -1.5760  2.4825 -0.6954
 4519TIP3    H237753   4.069   1.163  20.820 -0.2268 -0.4477 -0.0415
 4520TIP3   OH237754   3.261   4.574  20.114  0.0505 -0.3069  0.2925
 4520TIP3    H137755   3.252   4.650  20.172  3.4749  0.7903 -0.3481
 4520TIP3    H237756   3.184   4.577  20.058  0.3808  3.2213 -0.2228
 4521TIP3   OH237757   1.001   1.814  16.934 -0.1949 -0.1597 -0.0686
 4521TIP3    H137758   1.091   1.845  16.929 -0.3001  0.3184  0.9335
 4521TIP3    H237759   0.997   1.743  16.869  0.6854  0.3206 -0.6612
 4522TIP3   OH237760   6.693   2.633  19.099  1.0615  0.0156  0.4574
 4522TIP3    H137761   6.739   2.619  19.017 -1.4843 -2.3019 -0.7598
 4522TIP3    H237762   6.683   2.545  19.136 -0.3851  0.6651  1.7151
 4523TIP3   OH237763   4.876   1.344  19.086 -0.2036 -0.5479 -0.3846
 4523TIP3    H137764   4.850   1.264  19.132  2.3686 -0.8533  0.7676
 4523TIP3    H237765   4.866   1.414  19.151 -1.9289  0.0127 -1.2171
 4524TIP3   OH237766   4.189   1.854  20.692 -0.2090  0.4579  0.2409
 4524TIP3    H137767   4.195   1.760  20.673  0.1772  0.7362 -1.1134
 4524TIP3    H237768   4.268   1.891  20.652 -0.2467  1.3370  0.9638
 4525TIP3   OH237769   0.127   5.704  19.000  0.5498  0.0761 -0.4454
 4525TIP3    H137770   0.193   5.651  19.045  0.8690  0.8279 -0.0106
 4525TIP3    H237771   0.132   5.675  18.909  1.4560  0.0767 -0.4082
 4526TIP3   OH237772   4.495   1.475  18.111  0.4867  0.1487 -0.2878
 4526TIP3    H137773   4.533   1.388  18.101  0.1661  0.0085 -0.2913
 4526TIP3    H237774   4.401   1.459  18.120  0.3998  0.5121 -0.5400
 4527TIP3   OH237775   6.098   4.699  20.696  0.0711 -0.1711 -0.0549
 4527TIP3    H137776   6.160   4.635  20.661  1.2294  1.5048 -1.2271
 4527TIP3    H237777   6.151   4.777  20.714 -1.1210  0.2138  2.1736
 4528TIP3   OH237778   0.977   0.169  20.257 -0.5053  0.0452  0.5103
 4528TIP3    H137779   0.892   0.150  20.217 -0.3120  0.3705 -0.0557
 4528TIP3    H237780   1.030   0.091  20.240  0.4050  1.1213 -2.1218
 4529TIP3   OH237781   2.153   5.413  17.549  0.0189  0.1742  0.2225
 4529TIP3    H137782   2.106   5.360  17.485 -0.7340 -0.3416  1.1790
 4529TIP3    H237783   2.148   5.502  17.515 -0.4066 -0.0858 -0.4071
 4530TIP3   OH237784   3.228   1.012  18.106 -0.0154  0.2284 -0.7335
 4530TIP3    H137785   3.243   1.083  18.043  0.8192  1.0330  0.3096
 4530TIP3    H237786   3.158   1.045  18.162 -0.6146 -0.3970 -1.0986
 4531TIP3   OH237787   1.038   0.969  19.747 -0.6833 -0.4537  0.2887
 4531TIP3    H137788   1.019   0.916  19.824 -1.2886 -1.1726 -0.3421
 4531TIP3    H237789   0.952   0.989  19.710 -0.3690 -3.3077 -2.3251
 4532TIP3   OH237790   0.694   4.883  20.289  0.1423 -0.0018 -0.7817
 4532TIP3    H137791   0.654   4.967  20.312 -0.0451 -0.5225  0.9753
 4532TIP3    H237792   0.769   4.907  20.234 -1.4904  1.0945 -2.6231
 4533TIP3   OH237793   0.786   2.605  18.124  0.5229  0.1219  0.0842
 4533TIP3    H137794   0.840   2.618  18.201 -0.5313  0.4657  0.7942
 4533TIP3    H237795   0.842   2.629  18.050  1.0159  1.4818  0.8620
 4534TIP3   OH237796   4.634   4.676  20.224 -0.3203 -0.0275 -0.2907
 4534TIP3    H137797   4.642   4.614  20.297  0.1739 -1.5075 -1.5342
 4534TIP3    H237798   4.633   4.762  20.266  2.7524 -0.6299  1.3498
 4535TIP3   OH237799   1.774   1.478  17.461 -0.6029  0.7106  0.3585
 4535TIP3    H137800   1.833   1.483  17.536 -1.2063 -0.5446  0.9612
 4535TIP3    H237801   1.691   1.513  17.493 -0.8474  0.2253  0.2738
 4536TIP3   OH237802   4.873   4.582  19.601 -0.4182 -0.4732  0.2313
 4536TIP3    H137803   4.915   4.604  19.684 -1.2982 -0.4037  0.6683
 4536TIP3    H237804   4.926   4.625  19.535  0.7138 -1.1192  0.6944
 4537TIP3   OH237805   0.882   4.684  18.309  0.1395 -0.0807 -0.4244
 4537TIP3    H137806   0.878   4.590  18.324 -0.6428  0.3535  2.7223
 4537TIP3    H237807   0.962   4.696  18.257  0.8169 -2.3717 -0.0394
 4538TIP3   OH237808   2.587   4.436  20.703 -0.2723  0.8968  0.1338
 4538TIP3    H137809   2.570   4.501  20.772  0.5861  0.0188  1.2151
 4538TIP3    H237810   2.674   4.459  20.670  1.1456 -1.0372  2.1946
 4539TIP3   OH237811   4.584   0.873  18.779  0.5218 -0.5005 -0.2121
 4539TIP3    H137812   4.559   0.924  18.702  0.0012  0.2070  0.3980
 4539TIP3    H237813   4.669   0.835  18.757  0.3523 -0.3507 -1.1482
 4540TIP3   OH237814   1.275   4.480  19.470 -0.5971 -0.4760  0.7176
 4540TIP3    H137815   1.315   4.449  19.552  1.9001  2.8915  0.9558
 4540TIP3    H237816   1.208   4.541  19.498 -0.3488  0.0076  0.2700
 4541TIP3   OH237817   0.068   5.018  18.232 -0.1598  0.6568  0.2371
 4541TIP3    H137818   0.025   5.078  18.172 -0.7290 -0.2945 -0.3256
 4541TIP3    H237819   0.032   5.041  18.318  0.0254  1.4596  0.1073
 4542TIP3   OH237820   1.022   6.123  20.541  0.4581  0.6877  0.0324
 4542TIP3    H137821   1.102   6.140  20.590 -0.9809  1.9936  2.1218
 4542TIP3    H237822   0.954   6.168  20.591 -1.5870 -0.3650 -1.6545
 4543TIP3   OH237823   3.708   4.680  19.960 -0.4389  0.0248 -0.2538
 4543TIP3    H137824   3.790   4.673  20.008 -0.5769 -0.1482 -0.0441
 4543TIP3    H237825   3.655   4.607  19.991 -0.9807  0.6031  0.2056
 4544TIP3   OH237826   5.854   5.904  19.700 -0.2672  0.0419 -0.1007
 4544TIP3    H137827   5.795   5.848  19.750  0.2371 -0.0209  0.4383
 4544TIP3    H237828   5.931   5.849  19.683 -0.3947  0.0915 -0.8822
 4545TIP3   OH237829   5.063   6.227  18.679 -0.4473 -0.2104 -0.1810
 4545TIP3    H137830   5.094   6.264  18.761 -0.0064  0.9092 -0.8300
 4545TIP3    H237831   5.030   6.140  18.703 -0.5356  0.1797  1.2032
 4546TIP3   OH237832   4.105   3.645  20.033  0.8270 -0.4974  0.7213
 4546TIP3    H137833   4.017   3.650  19.997  0.6059 -1.1051  1.1649
 4546TIP3    H237834   4.136   3.735  20.032  0.4950 -0.3820 -0.1489
 4547TIP3   OH237835   2.418   0.975  18.101 -0.2548  0.4537 -0.4299
 4547TIP3    H137836   2.408   0.880  18.099 -0.2463  0.4580 -1.4319
 4547TIP3    H237837   2.482   0.994  18.031 -0.8112  1.2454 -0.7460
 4548TIP3   OH237838   2.775   3.724  20.888  0.0689 -0.0165  0.3973
 4548TIP3    H137839   2.859   3.699  20.849  0.4729  0.8586  0.6881
 4548TIP3    H237840   2.779   3.819  20.894 -0.8849  0.0179  0.5600
 4549TIP3   OH237841   1.633   0.559  17.387  0.3640 -0.2274 -0.2721
 4549TIP3    H137842   1.643   0.466  17.369 -0.2022 -0.2489 -0.5060
 4549TIP3    H237843   1.620   0.599  17.302 -0.9811 -0.1511 -0.0503
 4550TIP3   OH237844   2.703   4.940  18.386 -0.1364 -0.0939  0.3057
 4550TIP3    H137845   2.642   4.988  18.329 -1.6331 -0.8475  1.2186
 4550TIP3    H237846   2.772   5.004  18.406 -1.1741  1.1338  0.1127
 4551TIP3   OH237847   2.160   4.116  20.021 -0.7365 -0.7779  0.4384
 4551TIP3    H137848   2.179   4.209  20.028  0.8801 -0.7811 -2.3531
 4551TIP3    H237849   2.097   4.110  19.949  1.8294 -1.9403 -1.9072
 4552TIP3   OH237850   6.625   6.408  19.136 -0.4110 -0.3519 -0.3082
 4552TIP3    H137851   6.699   6.377  19.187 -1.1182 -2.5885 -0.5221
 4552TIP3    H237852   6.559   6.432  19.201  0.1948  0.9386 -0.1360
 4553TIP3   OH237853   5.283   1.412  19.831  0.3826  0.5485  0.1629
 4553TIP3    H137854   5.271   1.402  19.926  0.6052 -3.2559 -0.0621
 4553TIP3    H237855   5.362   1.466  19.823  0.3515  0.9836  2.1293
 4554TIP3   OH237856   5.196   6.212  19.159  0.0600  0.1493 -0.1076
 4554TIP3    H137857   5.284   6.250  19.166  0.9915 -2.1343  2.7411
 4554TIP3    H237858   5.182   6.169  19.244 -2.9784 -1.3519 -1.2214
 4555TIP3   OH237859   5.809   5.149  18.721  0.0851  0.1733 -0.2646
 4555TIP3    H137860   5.820   5.114  18.633  0.1541 -0.7062  0.0886
 4555TIP3    H237861   5.893   5.133  18.764 -0.3602 -0.5364  0.3535
 4556TIP3   OH237862   3.236   2.113  17.345  0.4140  0.3569  0.5227
 4556TIP3    H137863   3.316   2.111  17.293  1.1460  1.3552  1.5431
 4556TIP3    H237864   3.178   2.049  17.304  1.3523  0.3480 -0.8513
 4557TIP3   OH237865   1.375   0.031  20.172 -0.1677  0.5880  0.2652
 4557TIP3    H137866   1.329   0.078  20.242 -2.6555 -0.6920 -0.4022
 4557TIP3    H237867   1.405  -0.050  20.214  1.0560  1.1564  0.5464
 4558TIP3   OH237868   2.927   4.183  19.614  0.2985  0.0807  0.0689
 4558TIP3    H137869   2.978   4.257  19.580  1.2650 -0.5103  0.1870
 4558TIP3    H237870   2.893   4.139  19.536 -0.7665  0.9602  0.0130
 4559TIP3   OH237871   5.063   4.866  18.701 -0.1081 -0.4246  0.4386
 4559TIP3    H137872   4.970   4.872  18.682 -0.0509  0.1363  0.3269
 4559TIP3    H237873   5.078   4.930  18.771  0.3144 -0.0163 -0.0173
 4560TIP3   OH237874   6.055   5.092  18.861 -0.2123 -0.0618  0.3464
 4560TIP3    H137875   6.045   5.188  18.859 -1.9906 -0.2081 -0.5649
 4560TIP3    H237876   6.148   5.077  18.846  0.2304  1.5322  1.2136
 4561TIP3   OH237877   5.014   6.722  18.096  0.5480 -0.3108 -0.1680
 4561TIP3    H137878   4.975   6.699  18.180 -0.8186 -0.3893 -0.7974
 4561TIP3    H237879   5.005   6.643  18.043  1.3788 -0.2519 -0.4017
 4562TIP3   OH237880   2.500   2.357  17.640 -0.3733  0.4347 -0.5159
 4562TIP3    H137881   2.548   2.418  17.695 -0.9399  0.3533  0.0868
 4562TIP3    H237882   2.565   2.323  17.579  0.1835  0.8075 -0.1406
 4563TIP3   OH237883   5.526   1.858  18.176 -0.4179  0.0672  0.2226
 4563TIP3    H137884   5.540   1.921  18.105  1.4320 -0.4233  0.1013
 4563TIP3    H237885   5.606   1.862  18.228 -0.2497 -2.1569  0.2177
 4564TIP3   OH237886   2.401   5.543  18.901 -0.3430  0.3612  0.5037
 4564TIP3    H137887   2.317   5.509  18.870 -0.0510 -1.4604  1.5698
 4564TIP3    H237888   2.390   5.638  18.898 -2.0628  0.1857 -0.3648
 4565TIP3   OH237889   0.343   3.705  18.997  0.1075 -0.5741  0.6704
 4565TIP3    H137890   0.414   3.766  18.978  0.7074 -1.5770 -0.3564
 4565TIP3    H237891   0.273   3.730  18.937  0.0560 -0.4020  0.8002
 4566TIP3   OH237892   4.882   4.811  19.330 -0.0758 -0.0837  0.0831
 4566TIP3    H137893   4.917   4.872  19.265 -0.8316 -0.0345 -0.2937
 4566TIP3    H237894   4.941   4.819  19.405  1.1763 -0.5914 -0.8143
 4567TIP3   OH237895   2.043   3.641  18.401 -0.1540 -0.2579  0.9844
 4567TIP3    H137896   2.129   3.601  18.391  0.2412  1.0372 -1.7857
 4567TIP3    H237897   2.060   3.726  18.441 -0.1565 -0.1348  0.7293
 4568TIP3   OH237898   2.520   2.821  20.663  0.2312 -1.0398 -0.1358
 4568TIP3    H137899   2.589   2.886  20.676 -1.3385  0.9713 -1.2815
 4568TIP3    H237900   2.465   2.857  20.594 -3.8971 -0.7649  2.8673
 4569TIP3   OH237901   2.006   2.169  19.351 -0.0382  0.6307  0.0051
 4569TIP3    H137902   1.922   2.131  19.378  0.2963  1.4694  2.5028
 4569TIP3    H237903   1.993   2.263  19.362  0.8168  0.8741 -0.9596
 4570TIP3   OH237904   6.035   1.764  19.600 -0.5813 -0.2692  0.2758
 4570TIP3    H137905   6.043   1.747  19.694 -1.2369  1.4910  0.6724
 4570TIP3    H237906   5.993   1.685  19.565 -0.8342 -0.7170  1.5358
 4571TIP3   OH237907   3.863   6.302  19.824  0.5547 -0.1250 -0.3113
 4571TIP3    H137908   3.824   6.251  19.753  2.2775 -1.1359 -0.6047
 4571TIP3    H237909   3.824   6.389  19.816 -0.2621 -0.5887 -1.6761
 4572TIP3   OH237910   2.043   2.808  19.249 -0.2081 -0.4946  0.1941
 4572TIP3    H137911   1.995   2.891  19.259 -0.5156 -0.9277  3.0038
 4572TIP3    H237912   2.058   2.778  19.338  2.1876 -2.2111 -0.6947
 4573TIP3   OH237913   5.885   1.841  20.457 -0.1773 -0.0489 -0.6695
 4573TIP3    H137914   5.813   1.831  20.520 -0.2362 -1.2357 -0.9052
 4573TIP3    H237915   5.880   1.933  20.430 -0.8978  0.1717  0.1611
 4574TIP3   OH237916   5.468   1.601  19.896 -0.7940 -0.0545  0.4446
 4574TIP3    H137917   5.429   1.652  19.968  0.8284  0.6153  0.9105
 4574TIP3    H237918   5.554   1.575  19.930  0.1296  0.5220 -1.3524
 4575TIP3   OH237919   0.136   1.926  19.080  0.1740 -0.3821 -0.4360
 4575TIP3    H137920   0.042   1.933  19.065 -0.2665 -1.7368  1.3124
 4575TIP3    H237921   0.174   1.925  18.993 -1.4412 -0.0091 -1.1904
 4576TIP3   OH237922   2.863   4.385  19.848  0.6128  0.2496  0.2399
 4576TIP3    H137923   2.800   4.439  19.802  1.0037 -0.0656 -0.6924
 4576TIP3    H237924   2.871   4.306  19.794  2.7319  0.8130 -0.3919
 4577TIP3   OH237925   1.884   2.366  18.431 -0.2746  0.4209 -0.2877
 4577TIP3    H137926   1.909   2.456  18.452 -1.4308  0.4652  1.0548
 4577TIP3    H237927   1.966   2.323  18.408  0.2452  1.8968 -1.3216
 4578TIP3   OH237928   6.486   3.111  20.387  0.1564 -0.3729 -0.0733
 4578TIP3    H137929   6.564   3.139  20.434 -0.0315 -0.7262  0.4660
 4578TIP3    H237930   6.414   3.134  20.446 -0.0624 -1.1077 -0.0470
 4579TIP3   OH237931   6.479   2.436  20.076 -0.3077  0.3931 -0.3578
 4579TIP3    H137932   6.418   2.468  20.009 -0.7287  0.3946  0.0194
 4579TIP3    H237933   6.449   2.476  20.157 -0.6527 -0.6790  0.0691
 4580TIP3   OH237934   5.531   5.230  20.096  0.3050  0.6322  0.4142
 4580TIP3    H137935   5.443   5.262  20.116  0.7258  1.6001  0.8315
 4580TIP3    H237936   5.589   5.293  20.140  1.1948 -1.5608  2.5829
 4581TIP3   OH237937   4.880   1.420  19.498 -0.0839  0.0928  0.1247
 4581TIP3    H137938   4.968   1.406  19.534 -0.8923 -2.2267  1.4190
 4581TIP3    H237939   4.822   1.380  19.563 -2.1316  1.7332 -0.6180
 4582TIP3   OH237940   4.209   3.354  19.695 -0.1108  0.0245 -0.0809
 4582TIP3    H137941   4.166   3.436  19.670  0.0059  0.0837 -0.0856
 4582TIP3    H237942   4.261   3.376  19.773 -0.1456 -0.0640 -0.0307
 4583TIP3   OH237943   5.008   1.041  17.813  0.4601 -0.2185  0.6151
 4583TIP3    H137944   4.957   1.038  17.894  0.3099 -0.9903  0.4967
 4583TIP3    H237945   4.987   0.959  17.768  0.0050  0.5012 -0.5393
 4584TIP3   OH237946   1.855   0.636  17.526 -0.5654  0.3701  0.2569
 4584TIP3    H137947   1.771   0.606  17.489 -0.2524  0.0263 -0.1818
 4584TIP3    H237948   1.835   0.722  17.561 -0.4742  1.5375 -2.3365
 4585TIP3   OH237949   1.637   2.303  18.437  0.0634  0.1146  0.0897
 4585TIP3    H137950   1.617   2.290  18.530 -0.0027  1.2317  0.2427
 4585TIP3    H237951   1.718   2.354  18.437 -1.0734  2.0112 -0.4120
 4586TIP3   OH237952   3.319   4.146  19.554 -0.0499  0.3343 -0.3074
 4586TIP3    H137953   3.266   4.168  19.631 -0.6209 -0.2077 -0.5387
 4586TIP3    H237954   3.286   4.061  19.525  1.9655 -0.7903  0.4429
 4587TIP3   OH237955   6.669   1.485  18.354  0.1643  0.5642  0.0034
 4587TIP3    H137956   6.626   1.429  18.288 -0.9118  1.6265 -0.2361
 4587TIP3    H237957   6.714   1.423  18.412 -0.6019 -0.5209 -0.5160
 4588TIP3   OH237958   2.710   3.476  20.976 -0.0160  0.2809 -0.2501
 4588TIP3    H137959   2.742   3.561  20.945  1.5552 -0.5894 -1.1341
 4588TIP3    H237960   2.629   3.462  20.928 -1.8050  2.4651  1.8990
 4589TIP3   OH237961   3.223   6.565  20.053 -0.3175  0.0340 -0.7791
 4589TIP3    H137962   3.312   6.566  20.089 -1.2833 -0.1107  1.7979
 4589TIP3    H237963   3.188   6.652  20.072 -1.8520 -0.9811  1.4288
 4590TIP3   OH237964   3.676   0.745  19.405 -0.1341 -0.2295  0.2560
 4590TIP3    H137965   3.730   0.666  19.401  1.8184  1.0667 -0.2800
 4590TIP3    H237966   3.720   0.801  19.469  0.3576  1.6728 -1.6552
 4591TIP3   OH237967   4.664   3.058  18.841  0.2245 -0.1971  0.1096
 4591TIP3    H137968   4.578   3.097  18.853  0.9892  2.0790 -1.2742
 4591TIP3    H237969   4.660   3.016  18.755  1.6663  3.8161 -2.2002
 4592TIP3   OH237970   1.830   5.731  19.801 -0.9320  0.6371 -0.0060
 4592TIP3    H137971   1.773   5.808  19.790 -0.9995  1.0932  2.9496
 4592TIP3    H237972   1.906   5.763  19.848 -0.7002 -0.9924  0.8061
 4593TIP3   OH237973   3.301   6.525  19.757 -0.1254  0.4563 -0.1164
 4593TIP3    H137974   3.257   6.477  19.687  0.2261 -0.6964  0.4281
 4593TIP3    H237975   3.243   6.515  19.833  1.1284 -1.3283  0.6945
 4594TIP3   OH237976   2.339   3.563  20.224  0.2633 -0.0637  0.1570
 4594TIP3    H137977   2.279   3.608  20.164  0.4019 -0.3632 -0.2087
 4594TIP3    H237978   2.294   3.482  20.246  0.1232  0.1397  0.6240
 4595TIP3   OH237979   4.556   4.406  17.558 -0.5078  0.7474 -0.3808
 4595TIP3    H137980   4.566   4.484  17.503 -0.7326  1.1841  0.1929
 4595TIP3    H237981   4.645   4.373  17.570 -0.5799 -0.3557 -2.4169
 4596TIP3   OH237982   3.789   3.991  17.493 -0.1144 -0.0610 -0.1932
 4596TIP3    H137983   3.774   3.913  17.441 -0.9011  0.0075 -0.0810
 4596TIP3    H237984   3.876   4.020  17.468 -0.0097 -0.6999 -0.5904
 4597TIP3   OH237985   2.987   1.508  19.926 -0.3415 -0.0957  0.2716
 4597TIP3    H137986   2.921   1.462  19.979 -1.6020 -1.9826 -2.6707
 4597TIP3    H237987   2.950   1.594  19.910 -2.0090 -0.9800 -0.9654
 4598TIP3   OH237988   2.445   1.616  19.132  0.8532 -0.0933 -0.3645
 4598TIP3    H137989   2.446   1.523  19.155  5.0428 -0.3483 -0.7755
 4598TIP3    H237990   2.437   1.661  19.216 -1.1687 -0.7308 -0.1587
 4599TIP3   OH237991   5.028   3.227  19.375 -0.2171  0.0764  0.1737
 4599TIP3    H137992   5.080   3.207  19.453 -0.9922  0.4849  0.8181
 4599TIP3    H237993   5.079   3.295  19.330  0.4895 -0.5276  0.0384
 4600TIP3   OH237994   2.748   2.328  20.676 -0.1047 -0.4371  0.4336
 4600TIP3    H137995   2.680   2.379  20.632 -0.5903 -1.6836 -0.3122
 4600TIP3    H237996   2.717   2.319  20.766 -0.5922 -0.3941  0.2734
 4601TIP3   OH237997   1.886   0.963  19.453 -0.0854  0.5941  0.1703
 4601TIP3    H137998   1.948   1.020  19.499 -0.6386  1.7469 -0.4642
 4601TIP3    H237999   1.937   0.921  19.384  0.0136  1.5288 -0.3416
 4602TIP3   OH238000   2.874   5.699  18.662 -0.3691 -0.5113  0.1414
 4602TIP3    H138001   2.884   5.668  18.752 -2.7797  1.3012  1.1554
 4602TIP3    H238002   2.779   5.714  18.652 -0.1632 -0.4341 -2.6483
 4603TIP3   OH238003   4.566   4.206  20.965 -0.3429 -0.2983 -0.0892
 4603TIP3    H138004   4.626   4.137  20.937  0.3936  0.9309 -1.6235
 4603TIP3    H238005   4.617   4.286  20.961 -2.5943  1.1942 -3.7756
 4604TIP3   OH238006   2.325   1.535  17.692 -0.0960  0.0834 -0.0150
 4604TIP3    H138007   2.333   1.514  17.785 -2.1807 -0.0602  0.1929
 4604TIP3    H238008   2.360   1.459  17.646  0.1118 -0.2321  0.6672
 4605TIP3   OH238009   2.999   1.623  18.909  0.4926  0.2602 -0.4422
 4605TIP3    H138010   2.989   1.715  18.882 -0.5441 -0.2965 -2.1463
 4605TIP3    H238011   2.921   1.605  18.962  1.2658  0.6412  0.8808
 4606TIP3   OH238012   5.572   5.490  18.444  0.5378 -0.9395  0.2279
 4606TIP3    H138013   5.586   5.425  18.514 -1.4321 -1.4490  0.2086
 4606TIP3    H238014   5.536   5.566  18.489  0.8138 -0.6520 -0.0361
 4607TIP3   OH238015   3.298   0.077  20.397  0.4053 -0.2399 -0.1794
 4607TIP3    H138016   3.383   0.121  20.403  0.0449  0.9315 -2.6111
 4607TIP3    H238017   3.321  -0.016  20.389  1.5548  0.1343 -1.7441
 4608TIP3   OH238018   2.128   2.419  20.575 -0.1474  0.2273 -0.1332
 4608TIP3    H138019   2.168   2.412  20.488  0.3899  0.8231  0.0643
 4608TIP3    H238020   2.068   2.493  20.568  0.1495  0.4897  0.1007
 4609TIP3   OH238021   4.079   5.815  19.836 -0.1657  0.2605  0.1434
 4609TIP3    H138022   4.072   5.775  19.749  1.1638  2.0081 -0.8571
 4609TIP3    H238023   4.004   5.874  19.841 -1.1455 -0.9937  0.8964
 4610TIP3   OH238024   0.472   4.248  19.615 -0.0017  0.3329  0.2199
 4610TIP3    H138025   0.382   4.240  19.583 -0.6379 -2.0128  2.2576
 4610TIP3    H238026   0.464   4.297  19.697  0.5618  0.0797  0.4306
 4611TIP3   OH238027   0.465   3.421  18.323  0.4304  0.0570 -0.4269
 4611TIP3    H138028   0.557   3.424  18.351  0.4870 -0.2515 -0.5797
 4611TIP3    H238029   0.451   3.504  18.278  0.7920 -0.1326 -0.8924
 4612TIP3   OH238030   2.547   0.297  19.032  0.8821 -0.5392 -0.0448
 4612TIP3    H138031   2.617   0.332  18.978  0.7499 -1.2171 -0.6860
 4612TIP3    H238032   2.530   0.210  18.995 -0.4140 -0.3172 -0.0260
 4613TIP3   OH238033   1.584   4.945  19.819  0.4953 -0.5735  0.0125
 4613TIP3    H138034   1.607   4.944  19.726  0.7028  0.6492  0.0323
 4613TIP3    H238035   1.667   4.925  19.864  1.3886  2.6024  0.0357
 4614TIP3   OH238036   2.071   2.512  18.566 -0.2629  0.1510 -0.0270
 4614TIP3    H138037   2.042   2.465  18.643 -0.6397  0.0845 -0.2077
 4614TIP3    H238038   2.155   2.472  18.543  0.1402  0.5610  0.6850
 4615TIP3   OH238039   6.579   4.799  19.730 -0.1135 -0.2222 -0.0660
 4615TIP3    H138040   6.659   4.747  19.735 -0.5716 -0.8997  0.6270
 4615TIP3    H238041   6.523   4.762  19.799 -0.5280  1.0760  0.3103
 4616TIP3   OH238042   5.460   5.381  17.575 -0.0119 -0.1728 -0.2627
 4616TIP3    H138043   5.541   5.342  17.607  0.0526  0.6136  0.5879
 4616TIP3    H238044   5.473   5.475  17.588 -0.7512  0.0163 -0.8455
 4617TIP3   OH238045   0.570   2.458  17.184  0.6119  0.9592  0.1340
 4617TIP3    H138046   0.632   2.410  17.238 -1.8172 -1.5218  0.9589
 4617TIP3    H238047   0.605   2.451  17.095  0.9511 -1.5128  0.3868
 4618TIP3   OH238048   3.928   4.775  20.585  0.1364  0.1344 -0.5046
 4618TIP3    H138049   3.948   4.730  20.504 -1.8923 -0.9017 -0.4970
 4618TIP3    H238050   3.893   4.860  20.558 -0.6568 -0.2594 -0.7509
 4619TIP3   OH238051   0.255   6.571  19.211  0.4318 -0.2560  0.3251
 4619TIP3    H138052   0.200   6.614  19.145 -0.7495  0.6304  1.8347
 4619TIP3    H238053   0.332   6.626  19.218  0.2317  0.0430  0.1971
 4620TIP3   OH238054   6.398   0.050  18.840  0.3436  0.4188  0.5875
 4620TIP3    H138055   6.421  -0.029  18.890  0.9362  0.2654  0.0783
 4620TIP3    H238056   6.302   0.047  18.832  0.2790  0.2362  1.3609
 4621TIP3   OH238057   2.318   4.676  19.154  0.1286 -0.0598  0.2231
 4621TIP3    H138058   2.408   4.653  19.130 -0.7247 -2.4167 -1.0620
 4621TIP3    H238059   2.316   4.772  19.148  2.2272 -0.0194 -0.9369
 4622TIP3   OH238060   4.487   4.384  20.438  0.2067  0.2390 -0.1357
 4622TIP3    H138061   4.489   4.305  20.492 -2.0216 -0.3571 -0.8231
 4622TIP3    H238062   4.408   4.431  20.466  0.3070  1.1211 -1.2447
 4623TIP3   OH238063   1.533   1.346  18.248 -0.0269  0.3029 -0.3267
 4623TIP3    H138064   1.624   1.374  18.256  0.6500 -1.6691 -0.5573
 4623TIP3    H238065   1.496   1.361  18.335  1.0375 -0.5176  0.2914
 4624TIP3   OH238066   2.485   1.538  18.547 -0.0960  0.5534 -0.4166
 4624TIP3    H138067   2.475   1.524  18.641  1.6570 -2.1651 -0.5194
 4624TIP3    H238068   2.509   1.631  18.539  0.9184  0.5610  1.9488
 4625TIP3   OH238069   5.634   6.180  20.484 -0.3960  0.5437 -0.5642
 4625TIP3    H138070   5.585   6.243  20.537  0.6928 -0.3408  1.6122
 4625TIP3    H238071   5.569   6.141  20.426 -2.4247 -0.8087  2.3821
 4626TIP3   OH238072   1.214   2.404  19.492 -0.7060 -0.0081 -0.0914
 4626TIP3    H138073   1.122   2.383  19.507 -1.0780  1.3373 -0.4208
 4626TIP3    H238074   1.258   2.374  19.571 -1.0772 -2.5412 -0.7418
 4627TIP3   OH238075   4.908   3.901  19.761 -0.0338 -0.4246 -0.4128
 4627TIP3    H138076   4.885   3.870  19.674 -1.1915  0.2939 -0.3917
 4627TIP3    H238077   4.941   3.824  19.807  2.2876 -0.4742 -1.9995
 4628TIP3   OH238078   4.729   6.188  18.210  0.0805  0.2159  0.0805
 4628TIP3    H138079   4.699   6.109  18.165  0.4407  0.4228 -0.5270
 4628TIP3    H238080   4.691   6.261  18.161  0.5130  0.4429  0.0739
 4629TIP3   OH238081   2.471   6.313  19.331  0.6715  0.0091  0.0416
 4629TIP3    H138082   2.489   6.392  19.279 -0.0165 -0.7471 -1.4075
 4629TIP3    H238083   2.481   6.342  19.422  0.2322  1.8250 -0.4369
 4630TIP3   OH238084   3.999   3.054  20.217  0.0038 -0.3076 -0.0607
 4630TIP3    H138085   3.981   2.960  20.215  1.1066 -0.5187 -0.8910
 4630TIP3    H238086   3.947   3.090  20.145  0.2118 -0.4028 -0.2587
 4631TIP3   OH238087   4.165   2.263  19.291 -0.1584 -0.2208  0.1138
 4631TIP3    H138088   4.154   2.189  19.232 -0.4279 -0.1840  0.1146
 4631TIP3    H238089   4.151   2.226  19.378  2.9103 -0.8569  0.4303
 4632TIP3   OH238090   4.849   1.536  19.264  0.4548  0.7465  0.6912
 4632TIP3    H138091   4.762   1.568  19.287 -1.1369 -2.6354  0.0320
 4632TIP3    H238092   4.879   1.490  19.342  0.7776  0.2698  0.2888
 4633TIP3   OH238093   0.224   0.804  18.347 -0.2032 -0.2506 -0.2161
 4633TIP3    H138094   0.301   0.836  18.301 -1.6412 -0.1789 -2.7657
 4633TIP3    H238095   0.256   0.731  18.400  1.6391 -0.0388 -0.9658
 4634TIP3   OH238096   2.573   6.011  17.855 -0.0264 -0.1854  0.2801
 4634TIP3    H138097   2.580   6.031  17.762  1.5003  0.2890  0.4591
 4634TIP3    H238098   2.567   5.916  17.860  1.0379 -0.2948 -0.2758
 4635TIP3   OH238099   0.410   2.930  17.840 -0.4382  0.2462  0.6075
 4635TIP3    H138100   0.416   2.853  17.896 -1.2711 -0.0055  0.3645
 4635TIP3    H238101   0.410   3.004  17.900 -0.0216  0.0399  0.8640
 4636TIP3   OH238102   3.040   6.332  18.402  0.1672  0.4123 -0.0614
 4636TIP3    H138103   3.109   6.378  18.354 -0.4512 -0.4692 -1.9202
 4636TIP3    H238104   2.981   6.300  18.334 -1.5317  0.2573  1.4113
 4637TIP3   OH238105   2.026   5.177  19.301 -0.0940  0.8061 -0.3832
 4637TIP3    H138106   2.074   5.245  19.349 -1.1954  0.5282  1.2203
 4637TIP3    H238107   1.968   5.139  19.367 -2.3218  0.9392 -2.1464
 4638TIP3   OH238108   3.875   0.516  20.012  0.1491 -0.0378 -0.0433
 4638TIP3    H138109   3.870   0.580  20.083  0.5041 -1.0018  0.8643
 4638TIP3    H238110   3.880   0.431  20.055  2.5178 -0.5438 -1.1464
 4639TIP3   OH238111   2.330   3.899  18.126 -0.1501 -0.0161 -0.3356
 4639TIP3    H138112   2.317   3.983  18.170 -1.6574 -0.7267  0.6622
 4639TIP3    H238113   2.405   3.860  18.170  1.3918  1.2947 -1.6546
 4640TIP3   OH238114   1.614   2.229  20.123  0.4951 -0.0823  0.3572
 4640TIP3    H138115   1.621   2.164  20.053 -2.6401 -1.0408  0.7522
 4640TIP3    H238116   1.629   2.180  20.204  2.2974  0.6428  0.5115
 4641TIP3   OH238117   5.902   4.646  20.522  0.5781 -0.2013  0.5662
 4641TIP3    H138118   5.815   4.644  20.562  0.5518  0.9953  0.6040
 4641TIP3    H238119   5.963   4.644  20.596  0.5441  0.9271  0.6370
 4642TIP3   OH238120   2.603   0.501  17.649  0.1171 -0.0482  0.0714
 4642TIP3    H138121   2.578   0.461  17.565 -0.6275  1.2497 -0.3554
 4642TIP3    H238122   2.522   0.503  17.699  0.1081  1.0416  0.0231
 4643TIP3   OH238123   1.724   3.582  19.907 -0.0398  0.0847  0.3431
 4643TIP3    H138124   1.753   3.668  19.878  1.7927 -0.7565 -0.4480
 4643TIP3    H238125   1.753   3.575  19.998  0.5155  0.0065  0.1620
 4644TIP3   OH238126   0.699   3.833  20.679 -0.6925  0.9335 -0.1582
 4644TIP3    H138127   0.661   3.906  20.728  1.5873  1.9846  0.1719
 4644TIP3    H238128   0.676   3.756  20.730 -1.1751  1.6702  0.7781
 4645TIP3   OH238129   1.712   5.483  19.311 -0.1092  0.5423  0.2031
 4645TIP3    H138130   1.731   5.501  19.219  0.9284 -0.0865  0.2725
 4645TIP3    H238131   1.661   5.402  19.309 -0.5704  0.8367  0.1468
 4646TIP3   OH238132   2.021   3.543  20.392  0.2365 -0.1347  0.5332
 4646TIP3    H138133   1.970   3.607  20.342  1.4192  1.7460  1.6478
 4646TIP3    H238134   1.957   3.478  20.420 -1.1757  1.0270  0.1021
 4647TIP3   OH238135   1.890   2.274  19.991 -0.2401  0.3295 -0.3460
 4647TIP3    H138136   1.853   2.291  19.904  0.0281 -0.3433 -0.6021
 4647TIP3    H238137   1.844   2.197  20.022  0.6492 -0.2856 -0.5056
 4648TIP3   OH238138   5.569   5.996  19.337 -0.4638 -0.1777  0.6919
 4648TIP3    H138139   5.522   5.940  19.399 -0.4271 -1.2634 -0.2328
 4648TIP3    H238140   5.625   6.051  19.392 -1.4425 -0.1444  1.6968
 4649TIP3   OH238141   0.212   0.457  18.310 -0.8239 -0.3601  0.5171
 4649TIP3    H138142   0.208   0.454  18.406 -2.7822 -1.5171  0.4442
 4649TIP3    H238143   0.126   0.490  18.283  1.0616  4.2081 -0.8101
 4650TIP3   OH238144   6.477   5.582  19.917  0.3743 -0.0393  0.2383
 4650TIP3    H138145   6.429   5.658  19.884  0.1251  0.2980  1.3634
 4650TIP3    H238146   6.476   5.520  19.844 -1.7449 -0.0375  0.2096
 4651TIP3   OH238147   3.386   3.402  18.996 -0.0804  0.0225  0.4177
 4651TIP3    H138148   3.474   3.436  19.007 -0.0042 -0.0279  0.0023
 4651TIP3    H238149   3.386   3.363  18.908 -0.1457 -1.0816  0.8896
 4652TIP3   OH238150   6.138   2.310  18.044  0.1940 -0.6878 -0.2714
 4652TIP3    H138151   6.124   2.216  18.043 -0.7870 -0.5617 -0.3139
 4652TIP3    H238152   6.157   2.333  17.953  1.6258 -0.9844 -0.0701
 4653TIP3   OH238153   6.452   6.503  18.109 -0.1635  0.4476  0.3569
 4653TIP3    H138154   6.416   6.466  18.028  1.8095  0.2349 -0.4947
 4653TIP3    H238155   6.408   6.456  18.179  0.3792 -1.7000 -0.6618
 4654TIP3   OH238156   6.325   5.097  19.827 -0.1774 -0.5464  0.0061
 4654TIP3    H138157   6.408   5.065  19.792  0.0400  0.6608 -0.6162
 4654TIP3    H238158   6.282   5.018  19.861  0.3192 -1.5111 -1.5066
 4655TIP3   OH238159   4.511   0.064  17.745  0.1502 -0.5352 -0.0209
 4655TIP3    H138160   4.527  -0.023  17.781  1.5874 -1.1690 -2.0529
 4655TIP3    H238161   4.417   0.065  17.727 -0.1743 -1.0488  1.4925
 4656TIP3   OH238162   5.709   2.774  18.283 -0.2490  0.3298  0.1246
 4656TIP3    H138163   5.774   2.704  18.275  0.4030  0.9966 -0.5403
 4656TIP3    H238164   5.702   2.788  18.378  2.4385  1.9105  0.1908
 4657TIP3   OH238165   4.351   2.044  18.040 -0.1909  0.0279  0.3416
 4657TIP3    H138166   4.392   2.078  18.119 -1.6450 -0.1270  1.1957
 4657TIP3    H238167   4.315   1.959  18.066  0.9697 -0.9256 -1.0126
 4658TIP3   OH238168   5.601   2.349  18.710  0.0406 -0.9319 -0.6651
 4658TIP3    H138169   5.562   2.330  18.795  0.2348 -1.2973 -0.6554
 4658TIP3    H238170   5.693   2.367  18.729 -0.1303  0.0009 -0.6800
 4659TIP3   OH238171   5.962   6.617  16.937  0.9529  0.4428  0.1433
 4659TIP3    H138172   5.927   6.694  16.982 -0.7247  0.4326 -1.0421
 4659TIP3    H238173   5.914   6.543  16.975 -0.2241  0.3978 -1.3336
 4660TIP3   OH238174   2.983   1.494  18.004 -0.4149  0.0425 -0.3116
 4660TIP3    H138175   2.993   1.568  17.943 -1.1235  0.1144 -0.3414
 4660TIP3    H238176   2.889   1.485  18.016 -0.3190 -0.6541 -0.0512
 4661TIP3   OH238177   6.014   0.227  18.909  0.3330  0.2282 -0.4512
 4661TIP3    H138178   6.088   0.217  18.849  1.3105  1.9272  0.3980
 4661TIP3    H238179   5.940   0.249  18.853  0.3300 -1.8614 -1.3515
 4662TIP3   OH238180   4.466   2.850  19.933  0.3162 -0.1813  0.3864
 4662TIP3    H138181   4.377   2.817  19.950  1.3527 -2.0573  2.6974
 4662TIP3    H238182   4.485   2.823  19.843 -0.6382 -1.8082  0.6396
 4663TIP3   OH238183   0.907   1.101  17.670 -0.0128  0.5436  0.5743
 4663TIP3    H138184   0.981   1.057  17.627 -0.8874 -1.9457  1.4224
 4663TIP3    H238185   0.884   1.173  17.611  2.1498  0.5099 -0.4168
 4664TIP3   OH238186   1.350   6.544  18.748  0.3027  0.6968  0.0377
 4664TIP3    H138187   1.280   6.598  18.710 -0.5815 -0.3485  0.1041
 4664TIP3    H238188   1.303   6.482  18.804  1.3009 -0.0178  0.0976
 4665TIP3   OH238189   1.837   0.799  17.246  0.1683  0.3997 -0.1501
 4665TIP3    H138190   1.792   0.725  17.204 -0.0134 -0.4640  1.4480
 4665TIP3    H238191   1.914   0.815  17.191 -1.2439  0.8970 -2.0878
 4666TIP3   OH238192   5.314   3.744  20.110  0.4458 -0.2504 -0.5944
 4666TIP3    H138193   5.223   3.772  20.125  0.5879  0.5143 -1.0737
 4666TIP3    H238194   5.328   3.760  20.016  0.6460 -1.6666 -0.8132
 4667TIP3   OH238195   4.751   4.410  19.961 -1.0216 -0.3550  0.1812
 4667TIP3    H138196   4.847   4.417  19.967 -1.2038  2.5207  1.7470
 4667TIP3    H238197   4.733   4.317  19.968  1.6246 -0.8755  1.2095
 4668TIP3   OH238198   5.094   6.082  19.769  0.7690 -0.0897 -0.3622
 4668TIP3    H138199   5.070   6.123  19.852  1.0151 -1.2645  0.3072
 4668TIP3    H238200   5.043   6.130  19.703 -1.6803 -0.9482  0.7606
 4669TIP3   OH238201   6.483   6.171  18.056 -0.7836 -0.1572 -0.4357
 4669TIP3    H138202   6.494   6.172  18.151 -0.5840 -1.2595 -0.4330
 4669TIP3    H238203   6.572   6.176  18.021 -0.6004 -2.5190 -0.4963
 4670TIP3   OH238204   5.619   4.458  18.494  0.2595  0.2893  0.2693
 4670TIP3    H138205   5.604   4.502  18.578  0.9070  0.7524  0.1511
 4670TIP3    H238206   5.675   4.384  18.515  2.7117  1.9112 -0.0727
 4671TIP3   OH238207   6.253   4.645  20.285 -0.0300  0.5643  0.3864
 4671TIP3    H138208   6.166   4.616  20.256  0.9500 -2.1609 -0.0910
 4671TIP3    H238209   6.235   4.712  20.351 -2.4683  0.4778 -0.0852
 4672TIP3   OH238210   6.235   5.592  18.608  0.2624 -0.8483  0.3397
 4672TIP3    H138211   6.225   5.513  18.555  0.1654 -0.6837  0.1136
 4672TIP3    H238212   6.155   5.595  18.662  0.2744 -0.9146  0.3612
 4673TIP3   OH238213   5.945   4.145  18.995 -0.7482 -0.8729  0.2733
 4673TIP3    H138214   6.000   4.216  19.027 -0.4881 -0.5075 -0.9324
 4673TIP3    H238215   5.975   4.130  18.906 -2.1433 -1.1387 -0.1721
 4674TIP3   OH238216   6.284   2.496  20.561  0.3181  0.3392 -0.5555
 4674TIP3    H138217   6.363   2.446  20.579 -0.5013 -0.3035  1.5981
 4674TIP3    H238218   6.311   2.588  20.569  0.5810  0.1266  1.9555
 4675TIP3   OH238219   2.315   0.784  20.558  0.2517  0.3947  0.4603
 4675TIP3    H138220   2.264   0.841  20.502 -0.4383 -0.0271  0.6515
 4675TIP3    H238221   2.400   0.828  20.566  0.7534 -0.0570 -1.7835
 4676TIP3   OH238222   5.144   6.733  20.359 -0.0945  0.0977 -0.3397
 4676TIP3    H138223   5.125   6.666  20.425 -0.0688  0.2393 -0.1868
 4676TIP3    H238224   5.232   6.712  20.328 -0.4428 -0.4826 -0.9569
 4677TIP3   OH238225   2.103   1.006  17.278 -0.1191  0.2040 -0.6838
 4677TIP3    H138226   2.077   0.974  17.364  0.6277  1.2068 -0.0710
 4677TIP3    H238227   2.082   0.933  17.219  0.3270 -0.9146  0.4839
 4678TIP3   OH238228   1.614   4.696  18.890  0.0322  0.0814 -0.0460
 4678TIP3    H138229   1.562   4.625  18.927 -0.6183  0.5667 -0.0233
 4678TIP3    H238230   1.571   4.776  18.920 -0.4738  0.4982 -1.7895
 4679TIP3   OH238231   3.176   2.754  19.500 -0.9832  0.4251  0.4005
 4679TIP3    H138232   3.257   2.788  19.537 -0.0702 -2.0173  0.8351
 4679TIP3    H238233   3.118   2.742  19.575 -0.4048 -1.1638  0.6491
 4680TIP3   OH238234   4.763   2.006  19.487 -0.1469  0.4798  0.1470
 4680TIP3    H138235   4.720   2.006  19.401 -2.4657 -0.5729  1.2094
 4680TIP3    H238236   4.801   1.919  19.494 -1.1092  0.0884  0.6797
 4681TIP3   OH238237   3.742   4.953  18.400  0.0170 -0.8658 -0.4027
 4681TIP3    H138238   3.808   4.917  18.459 -0.2675 -1.1259 -0.2445
 4681TIP3    H238239   3.669   4.977  18.457 -1.6540 -4.1712 -0.9348
 4682TIP3   OH238240   1.674   2.010  19.993  0.1614  0.0107 -0.4427
 4682TIP3    H138241   1.764   1.975  19.991  0.1663 -0.0161 -2.7016
 4682TIP3    H238242   1.629   1.963  19.922 -1.1108  1.3305 -0.5516
 4683TIP3   OH238243   1.433   3.502  18.271 -0.0501  0.3867  0.2165
 4683TIP3    H138244   1.487   3.527  18.196 -1.2913  1.9828 -0.1783
 4683TIP3    H238245   1.380   3.579  18.290 -1.7140 -0.8855  1.0262
 4684TIP3   OH238246   3.070   1.076  17.863 -0.1344  0.0911 -0.1282
 4684TIP3    H138247   3.039   1.086  17.953 -0.9484 -1.9157 -0.1335
 4684TIP3    H238248   2.997   1.035  17.817  0.9257 -0.6205 -1.2411
 4685TIP3   OH238249   6.683   6.008  20.263  0.6879 -0.4251 -0.0746
 4685TIP3    H138250   6.627   5.993  20.187 -0.6368 -0.0482  0.7866
 4685TIP3    H238251   6.770   6.027  20.226 -0.2347  1.2050 -1.5766
 4686TIP3   OH238252   3.266   2.274  20.801  0.1137  0.1216  0.1446
 4686TIP3    H138253   3.185   2.279  20.853 -0.2349 -1.3873 -0.2071
 4686TIP3    H238254   3.305   2.190  20.826  1.2831  0.5592 -0.1394
 4687TIP3   OH238255   0.466   6.403  17.856 -0.1839  0.3282 -0.2365
 4687TIP3    H138256   0.405   6.414  17.929 -0.3630 -2.5527  0.1467
 4687TIP3    H238257   0.424   6.339  17.798  1.3104  0.2727 -1.3282
 4688TIP3   OH238258   3.642   1.041  18.506 -0.4388  0.4421  0.8467
 4688TIP3    H138259   3.671   0.951  18.523  0.7412  0.7830  0.7517
 4688TIP3    H238260   3.576   1.032  18.437 -1.1429 -0.4401  1.6058
 4689TIP3   OH238261   0.133   0.005  19.040 -0.1381 -0.0449  0.1070
 4689TIP3    H138262   0.157  -0.012  18.949 -3.2032 -0.8309 -0.6735
 4689TIP3    H238263   0.139   0.101  19.048 -3.5925  0.5545 -2.2719
 4690TIP3   OH238264   0.124   0.869  17.893  0.9994 -0.1493 -0.1451
 4690TIP3    H138265   0.181   0.828  17.958 -0.1387 -0.9559  0.3731
 4690TIP3    H238266   0.184   0.909  17.831  2.1276 -0.7318  0.5342
 4691TIP3   OH238267   1.780   2.844  19.804  1.0362 -0.6028  0.3115
 4691TIP3    H138268   1.782   2.932  19.766  2.2429 -0.4026  0.8016
 4691TIP3    H238269   1.759   2.787  19.730 -1.2948  0.1976  0.2695
 4692TIP3   OH238270   2.111   1.374  18.540 -0.0239 -0.1020  0.0089
 4692TIP3    H138271   2.170   1.415  18.476  2.1580 -0.3239  1.7678
 4692TIP3    H238272   2.091   1.289  18.502 -1.3664  0.9643 -1.8177
 4693TIP3   OH238273   4.971   2.629  18.649  0.6755 -0.4154 -0.0986
 4693TIP3    H138274   5.017   2.703  18.609  1.3928 -0.4996  0.5456
 4693TIP3    H238275   5.039   2.579  18.692 -0.1324  0.0565  1.8390
 4694TIP3   OH238276   4.734   2.898  19.046 -0.2346  0.8981  0.1775
 4694TIP3    H138277   4.797   2.843  19.000 -1.6031 -2.0335  1.5902
 4694TIP3    H238278   4.688   2.945  18.976  0.7356 -0.0365 -1.1336
 4695TIP3   OH238279   1.049   4.633  19.531 -0.1178 -0.2769 -0.3948
 4695TIP3    H138280   1.052   4.698  19.460 -0.8028 -0.0313 -0.2073
 4695TIP3    H238281   1.046   4.686  19.611  1.2392 -0.5507 -0.1420
 4696TIP3   OH238282   5.663   0.491  17.393  0.7318 -0.1121  0.1407
 4696TIP3    H138283   5.638   0.525  17.307  2.4280  0.0065 -0.3497
 4696TIP3    H238284   5.688   0.401  17.377  0.0148 -0.4252  0.7271
 4697TIP3   OH238285   0.718   4.060  19.577 -0.1631  0.3843 -0.3162
 4697TIP3    H138286   0.628   4.085  19.559 -0.1041  1.0457  0.2357
 4697TIP3    H238287   0.769   4.105  19.510 -0.3972 -1.9051 -2.1659
 4698TIP3   OH238288   4.748   0.177  20.689  0.5994  0.3404  0.3659
 4698TIP3    H138289   4.704   0.180  20.604  0.0735  2.3091  0.6395
 4698TIP3    H238290   4.771   0.085  20.702  0.5308 -0.0348 -1.8119
 4699TIP3   OH238291   5.440   4.383  20.779  0.0626 -0.0499  0.1235
 4699TIP3    H138292   5.363   4.325  20.774  1.2860 -1.6718 -1.6848
 4699TIP3    H238293   5.441   4.428  20.694  2.2845 -1.8140 -0.9217
 4700TIP3   OH238294   3.368   2.636  20.580  0.2968  0.1641  0.3012
 4700TIP3    H138295   3.280   2.620  20.546  0.9097 -0.4328 -1.0763
 4700TIP3    H238296   3.399   2.712  20.531  0.2267  0.9544  1.4437
 4701TIP3   OH238297   4.876   5.456  19.359 -0.1753 -0.8906 -0.1273
 4701TIP3    H138298   4.831   5.506  19.426 -1.4627  0.1282 -1.6910
 4701TIP3    H238299   4.960   5.433  19.399 -0.1659  1.2039  1.1922
 4702TIP3   OH238300   1.206   2.133  16.654  0.0267  0.2177 -0.7668
 4702TIP3    H138301   1.183   2.206  16.596 -1.1722 -1.8125 -3.0600
 4702TIP3    H238302   1.129   2.122  16.710  1.6171  2.9170  2.2975
 4703TIP3   OH238303   4.847   4.997  20.157 -0.6049  0.1270 -0.0959
 4703TIP3    H138304   4.754   4.987  20.179 -0.1970  0.3427  1.8967
 4703TIP3    H238305   4.876   5.071  20.211  0.8155 -0.1624 -0.4367
 4704TIP3   OH238306   4.137   0.017  19.243 -0.5523 -0.6493 -0.1071
 4704TIP3    H138307   4.124  -0.051  19.176 -0.0587 -0.7034 -0.1499
 4704TIP3    H238308   4.151   0.097  19.193 -0.3067 -0.6675 -0.0680
 4705TIP3   OH238309   1.786   2.602  20.504 -0.1933  0.2597 -0.0627
 4705TIP3    H138310   1.799   2.573  20.414 -2.7657  1.7551 -1.0301
 4705TIP3    H238311   1.831   2.686  20.509 -0.3405  0.3406 -0.0786
 4706TIP3   OH238312   0.941   0.169  19.856 -0.7373 -0.1710  0.3425
 4706TIP3    H138313   1.037   0.171  19.855 -0.7033 -1.1229 -0.0901
 4706TIP3    H238314   0.918   0.133  19.941 -0.6670 -0.8268  0.0921
 4707TIP3   OH238315   5.897   1.483  19.552 -0.3727 -0.4082 -0.3098
 4707TIP3    H138316   5.827   1.475  19.618  0.1819 -0.0574  0.3246
 4707TIP3    H238317   5.850   1.494  19.469 -1.0760 -0.0274  0.1263
 4708TIP3   OH238318   2.934   1.940  17.837 -0.6025  1.0686 -0.0518
 4708TIP3    H138319   2.976   1.854  17.837 -1.8027  0.4117  1.9290
 4708TIP3    H238320   2.926   1.963  17.745  0.4541 -0.5789 -0.5962
 4709TIP3   OH238321   5.045   4.388  19.955  0.0160 -0.3284  0.2051
 4709TIP3    H138322   5.126   4.342  19.977 -0.7291 -1.6948  0.2272
 4709TIP3    H238323   5.008   4.338  19.882 -0.6577  0.4553 -0.0070
 4710TIP3   OH238324   6.094   6.177  18.213 -0.4863  0.9007  0.3438
 4710TIP3    H138325   6.038   6.167  18.136  0.2439  0.5764 -0.1537
 4710TIP3    H238326   6.149   6.099  18.214 -0.4402  0.9321  1.1646
 4711TIP3   OH238327   6.396   6.258  17.559  0.2917  0.7440 -0.0953
 4711TIP3    H138328   6.373   6.338  17.512  0.8265  1.4190  0.7743
 4711TIP3    H238329   6.491   6.263  17.569  0.2789  0.1956  0.3268
 4712TIP3   OH238330   3.029   1.914  17.554 -0.0946 -0.5270 -0.4103
 4712TIP3    H138331   3.053   1.915  17.461  0.3391  0.0057 -0.2973
 4712TIP3    H238332   2.990   2.000  17.569  0.0999 -0.5045 -0.0339
 4713TIP3   OH238333   3.439   3.877  17.742 -0.2781  0.3119 -0.1526
 4713TIP3    H138334   3.462   3.964  17.710  0.8409  0.2709  0.4703
 4713TIP3    H238335   3.498   3.818  17.695  0.0823  0.0643  0.5994
 4714TIP3   OH238336   3.257   6.317  18.979 -0.0695  0.5670  0.3985
 4714TIP3    H138337   3.175   6.271  18.995  0.7936 -1.5171 -0.8207
 4714TIP3    H238338   3.279   6.297  18.888  0.7285  2.8694  0.0284
 4715TIP3   OH238339   6.201   0.779  17.857  0.2757 -0.0587  0.8621
 4715TIP3    H138340   6.236   0.861  17.891  0.2467  0.9234 -1.2783
 4715TIP3    H238341   6.249   0.765  17.776 -2.9530  0.4685 -1.3427
 4716TIP3   OH238342   2.212   0.864  19.798 -0.8190 -0.4403 -0.0551
 4716TIP3    H138343   2.248   0.784  19.759 -1.3224 -1.0652  0.7381
 4716TIP3    H238344   2.289   0.914  19.824 -0.4912 -0.5236 -0.8166
 4717TIP3   OH238345   2.858   3.575  18.798 -0.0469  0.2781  0.4384
 4717TIP3    H138346   2.775   3.619  18.818 -0.3111  0.4322 -0.9432
 4717TIP3    H238347   2.879   3.601  18.709  0.1532 -1.8504 -0.1877
 4718TIP3   OH238348   5.061   0.561  18.173  0.7804 -0.0865 -0.5636
 4718TIP3    H138349   5.056   0.568  18.078  1.0297 -0.0495 -0.5755
 4718TIP3    H238350   5.144   0.603  18.196  0.1584  0.9904 -0.2171
 4719TIP3   OH238351   5.765   4.293  19.855 -0.1167 -0.2017 -0.2449
 4719TIP3    H138352   5.730   4.350  19.924 -0.0886 -0.8466  0.3178
 4719TIP3    H238353   5.820   4.350  19.802  0.8833  0.0529  1.0259
 4720TIP3   OH238354   0.399   5.556  18.530 -0.7042 -0.7373  0.0479
 4720TIP3    H138355   0.390   5.495  18.603 -2.5619 -1.3311 -0.6099
 4720TIP3    H238356   0.350   5.634  18.557  0.9589  0.1896  0.5394
 4721TIP3   OH238357   2.192   3.167  20.589  0.6465  0.3456 -0.6273
 4721TIP3    H138358   2.135   3.162  20.513 -0.5186 -0.2488  0.2469
 4721TIP3    H238359   2.263   3.105  20.571 -1.5778 -2.7161  0.2825
 4722TIP3   OH238360   0.325   5.231  20.459 -0.3378  0.2487 -0.4174
 4722TIP3    H138361   0.257   5.288  20.422 -0.5165  0.2581 -0.0800
 4722TIP3    H238362   0.390   5.291  20.495 -0.3022  0.2402 -0.4671
 4723TIP3   OH238363   3.231   3.111  20.019 -0.3483  0.2856  0.4157
 4723TIP3    H138364   3.218   3.038  19.958 -0.1317 -0.5570  1.3393
 4723TIP3    H238365   3.288   3.172  19.972 -0.1020 -0.3945 -0.1901
 4724TIP3   OH238366   1.549   4.303  18.743  0.0710 -0.3442 -0.1121
 4724TIP3    H138367   1.623   4.242  18.745 -0.3491 -0.8526  0.1297
 4724TIP3    H238368   1.502   4.287  18.824 -1.2109 -1.1776 -0.9800
 4725TIP3   OH238369   0.042   4.872  19.988 -0.2735 -0.1161  0.9388
 4725TIP3    H138370  -0.023   4.910  19.929 -0.1132 -0.7894  0.3155
 4725TIP3    H238371  -0.003   4.799  20.030  0.1885 -0.8726  0.1656
 4726TIP3   OH238372   0.345   2.637  17.925  0.0269 -0.1759 -0.8420
 4726TIP3    H138373   0.359   2.544  17.906 -0.0101 -0.3984  0.1832
 4726TIP3    H238374   0.409   2.657  17.993 -1.7494 -0.1518  0.9024
 4727TIP3   OH238375   1.723   0.039  17.830 -0.1746 -0.3518 -0.0103
 4727TIP3    H138376   1.794  -0.024  17.820 -0.6442 -1.0017  0.6003
 4727TIP3    H238377   1.696   0.030  17.922 -1.2134 -0.3116 -0.2940
 4728TIP3   OH238378   0.549   2.472  19.086 -0.0287 -0.2867 -0.0093
 4728TIP3    H138379   0.493   2.460  19.163 -1.1626 -1.8064 -1.0205
 4728TIP3    H238380   0.569   2.566  19.087 -0.5372 -0.1430  1.7667
 4729TIP3   OH238381   1.014   1.406  19.508  0.0529 -0.3202 -0.7204
 4729TIP3    H138382   1.066   1.474  19.550  1.4800 -1.2644 -0.8688
 4729TIP3    H238383   0.924   1.435  19.517  0.5928  1.3679 -0.4128
 4730TIP3   OH238384   6.127   4.142  17.755 -0.0189  0.0017 -0.2376
 4730TIP3    H138385   6.110   4.101  17.670  1.0115  0.8809 -0.8983
 4730TIP3    H238386   6.124   4.236  17.737 -3.4724  0.3413  1.4769
 4731TIP3   OH238387   1.066   2.319  18.033 -0.2024  0.4230  0.3261
 4731TIP3    H138388   1.111   2.310  17.949  0.3043  0.7180  0.5586
 4731TIP3    H238389   1.085   2.409  18.060 -2.1987  1.0862 -0.2888
 4732TIP3   OH238390   5.981   0.316  18.041  0.2618 -0.4540 -0.0077
 4732TIP3    H138391   6.007   0.314  18.133  0.9402 -0.9891 -0.2048
 4732TIP3    H238392   6.060   0.292  17.992  0.0900  0.4720 -0.7764
 4733TIP3   OH238393   3.367   3.123  19.399  0.2545  0.1048  0.4042
 4733TIP3    H138394   3.432   3.192  19.382  0.2942  0.0320  0.2586
 4733TIP3    H238395   3.283   3.168  19.388  0.2705 -0.0837 -0.6332
 4734TIP3   OH238396   4.855   1.690  17.674  0.7586 -0.0238 -0.3135
 4734TIP3    H138397   4.831   1.781  17.691 -1.2016 -0.5595 -0.0102
 4734TIP3    H238398   4.789   1.658  17.613 -0.0483 -1.9059  1.4425
 4735TIP3   OH238399   4.313   4.961  17.867  0.2766  0.2724 -0.1785
 4735TIP3    H138400   4.373   4.888  17.880  0.0511  0.1366  0.1287
 4735TIP3    H238401   4.230   4.919  17.842  0.1325  0.4148  0.0522
 4736TIP3   OH238402   6.260   2.754  18.671  0.6086 -0.4520 -0.6933
 4736TIP3    H138403   6.237   2.784  18.583  1.0235 -1.3645 -1.1254
 4736TIP3    H238404   6.350   2.784  18.684  0.1227  0.7728 -0.0733
 4737TIP3   OH238405   5.482   3.608  19.328  0.1382  0.0331 -0.1462
 4737TIP3    H138406   5.468   3.603  19.423 -0.6910  1.1350 -0.1896
 4737TIP3    H238407   5.566   3.564  19.314  1.8001  2.4227  1.4952
 4738TIP3   OH238408   2.842   4.494  18.334 -0.3880 -0.3823  0.5337
 4738TIP3    H138409   2.859   4.527  18.422 -1.1410  1.0176  0.1942
 4738TIP3    H238410   2.757   4.532  18.310  0.0438 -0.2924 -0.9868
 4739TIP3   OH238411   5.542   2.847  17.881  0.2967 -0.8931 -0.6712
 4739TIP3    H138412   5.536   2.774  17.820 -0.0107 -1.5462  0.1192
 4739TIP3    H238413   5.451   2.875  17.892  0.4786  0.1218 -1.5528
 4740TIP3   OH238414   5.110   2.839  18.533 -0.7417  0.0316 -0.0301
 4740TIP3    H138415   5.120   2.813  18.441 -0.4151 -1.3263  0.3671
 4740TIP3    H238416   5.198   2.830  18.570 -1.0112 -0.1174  0.5879
 4741TIP3   OH238417   2.700   3.047  20.683 -0.6496  0.2264  0.6725
 4741TIP3    H138418   2.669   3.136  20.661  0.5822  0.6104  0.4132
 4741TIP3    H238419   2.785   3.061  20.725  0.1753 -0.8876 -0.5473
 4742TIP3   OH238420   3.489   5.590  20.109 -0.9789 -0.1302  0.3357
 4742TIP3    H138421   3.469   5.578  20.017 -1.6894  0.5707  0.3893
 4742TIP3    H238422   3.547   5.516  20.131 -0.5666 -0.1384 -0.7266
 4743TIP3   OH238423   3.297   2.189  18.519  0.0640 -0.4364  0.0271
 4743TIP3    H138424   3.336   2.169  18.604 -0.4491 -0.2338  0.3158
 4743TIP3    H238425   3.239   2.115  18.502 -0.0713 -0.3245  0.0014
 4744TIP3   OH238426   4.176   4.308  18.548  0.4857 -0.3289 -0.8387
 4744TIP3    H138427   4.241   4.239  18.560 -0.8274 -1.6904 -1.4079
 4744TIP3    H238428   4.194   4.344  18.461  0.8069 -0.3289 -0.7733
 4745TIP3   OH238429   6.050   4.604  19.088  0.1264  0.0396 -0.0494
 4745TIP3    H138430   6.085   4.544  19.154 -0.0248 -0.4889 -0.4483
 4745TIP3    H238431   5.959   4.577  19.076  0.3151 -0.2395 -0.8977
 4746TIP3   OH238432   6.721   4.113  20.367 -0.8081 -0.3165 -0.6808
 4746TIP3    H138433   6.641   4.119  20.420 -1.2127  1.2137 -1.4285
 4746TIP3    H238434   6.709   4.032  20.317 -1.8355 -0.1883 -0.6750
 4747TIP3   OH238435   4.038   1.160  19.220  0.2499  0.2901 -0.7229
 4747TIP3    H138436   4.072   1.162  19.131  0.1694  1.4864 -0.7384
 4747TIP3    H238437   4.116   1.167  19.276  0.3199 -0.6817 -0.6810
 4748TIP3   OH238438   3.294   0.474  18.242 -0.1759  0.6905 -0.5205
 4748TIP3    H138439   3.318   0.566  18.251  1.3543  0.1135  3.0089
 4748TIP3    H238440   3.374   0.426  18.267 -1.8425 -1.4998  0.9561
 4749TIP3   OH238441   2.100   0.555  19.874 -0.6575 -0.0383  0.1302
 4749TIP3    H138442   2.118   0.594  19.788 -0.7828  0.0147  0.1272
 4749TIP3    H238443   2.150   0.474  19.874  0.3531  0.5617  0.4989
 4750TIP3   OH238444   1.026   5.650  20.583 -0.4444  0.1654  0.3222
 4750TIP3    H138445   1.037   5.615  20.671 -2.7679  0.0523  0.6246
 4750TIP3    H238446   1.035   5.744  20.593 -1.8809  0.2651  0.9495
 4751TIP3   OH238447   2.082   1.276  17.262  0.0336  0.1623 -0.1626
 4751TIP3    H138448   2.088   1.181  17.263 -1.4955  0.0363  0.5204
 4751TIP3    H238449   2.161   1.305  17.216  1.1861 -1.3611  0.7533
 4752TIP3   OH238450   4.708   1.290  19.697 -0.1416  0.0273  0.0493
 4752TIP3    H138451   4.733   1.208  19.654 -1.2899 -0.7138  0.7269
 4752TIP3    H238452   4.746   1.284  19.784 -0.9205 -0.1974  0.3903
 4753TIP3   OH238453   1.559   6.655  18.611  0.0636  0.1242 -0.1622
 4753TIP3    H138454   1.517   6.658  18.525 -0.7574 -1.0746  0.1627
 4753TIP3    H238455   1.495   6.611  18.667  0.8320  0.3416  0.9157
 4754TIP3   OH238456   5.029   6.548  20.552 -0.2912  0.5018  0.3377
 4754TIP3    H138457   5.012   6.454  20.552 -1.0815  0.6382  0.5919
 4754TIP3    H238458   4.971   6.582  20.620  0.8643  1.0189  1.0908
 4755TIP3   OH238459   0.609   3.890  18.192  0.2086 -0.1442  0.3455
 4755TIP3    H138460   0.561   3.810  18.211  2.3346 -1.3598  0.8653
 4755TIP3    H238461   0.643   3.878  18.103 -0.4078  0.6960 -0.0160
 4756TIP3   OH238462   2.409   5.552  17.690  1.0521  0.4375 -0.6977
 4756TIP3    H138463   2.392   5.459  17.704  0.9498  0.5224 -0.2573
 4756TIP3    H238464   2.335   5.582  17.638  0.0840  0.6974  0.7930
 4757TIP3   OH238465   6.315   5.899  19.473  0.1411  0.0657 -0.0184
 4757TIP3    H138466   6.365   5.882  19.393 -0.2727 -1.3421 -0.0027
 4757TIP3    H238467   6.284   5.989  19.463  0.9979  0.2778 -0.9399
 4758TIP3   OH238468   2.137   1.958  20.505  0.8365 -0.2108 -0.4718
 4758TIP3    H138469   2.232   1.954  20.519  0.6020 -1.1159  1.1017
 4758TIP3    H238470   2.111   2.043  20.539  1.1280  0.2673 -1.3956
 4759TIP3   OH238471   2.640   5.008  20.555 -0.1393 -0.1172 -0.2918
 4759TIP3    H138472   2.594   4.924  20.565 -2.0036  0.7019 -1.5582
 4759TIP3    H238473   2.732   4.983  20.551 -0.6778 -2.2436 -1.6609
 4760TIP3   OH238474   2.204   0.988  18.865  0.7951  0.0787 -0.0725
 4760TIP3    H138475   2.261   1.044  18.813  0.3045  0.0842 -0.6051
 4760TIP3    H238476   2.137   0.958  18.804  0.9760 -0.9920  0.2329
 4761TIP3   OH238477   3.156   5.708  20.456  0.1029  0.2559  0.0457
 4761TIP3    H138478   3.245   5.676  20.447  0.3512  0.9592 -0.0610
 4761TIP3    H238479   3.141   5.713  20.550  0.0893 -0.0968  0.0625
 4762TIP3   OH238480   5.917   1.500  20.541 -0.0769 -0.3018  0.3033
 4762TIP3    H138481   5.882   1.411  20.531 -0.1570 -0.1001 -1.5774
 4762TIP3    H238482   5.860   1.541  20.606 -0.2001 -1.5347  1.0021
 4763TIP3   OH238483   4.792   1.496  18.614 -0.0936  0.1841  0.8181
 4763TIP3    H138484   4.764   1.440  18.542 -1.9276  0.6832  1.0799
 4763TIP3    H238485   4.800   1.436  18.688 -1.3262  0.1038  0.9194
 4764TIP3   OH238486   5.863   0.853  18.905  0.7276 -0.2266  0.9318
 4764TIP3    H138487   5.850   0.883  18.815 -0.2473  1.8852  1.7090
 4764TIP3    H238488   5.893   0.763  18.896  2.1365  0.4027 -1.5351
 4765TIP3   OH238489   6.263   2.036  19.552  0.3128  0.3413  0.2953
 4765TIP3    H138490   6.299   1.949  19.534  0.7040  0.6928 -0.7248
 4765TIP3    H238491   6.196   2.021  19.618  2.4493 -0.3117  2.4506
 4766TIP3   OH238492   3.613   0.918  20.494  0.1702 -0.4614 -0.6493
 4766TIP3    H138493   3.549   0.956  20.555  1.7436  0.7265  0.3342
 4766TIP3    H238494   3.562   0.855  20.443 -1.2519 -1.4352  1.7842
 4767TIP3   OH238495   1.512   0.733  17.665  0.5449  0.6424 -0.3800
 4767TIP3    H138496   1.550   0.645  17.667 -0.4715  0.1925 -0.2383
 4767TIP3    H238497   1.442   0.730  17.730 -0.5818  1.0420 -1.5270
 4768TIP3   OH238498   1.717   6.528  20.807  0.5471  0.8569 -0.1297
 4768TIP3    H138499   1.660   6.511  20.882  1.9082  1.2069  1.0090
 4768TIP3    H238500   1.740   6.621  20.814  1.4186  0.6767 -0.4666
 4769TIP3   OH238501   2.033   6.203  19.946 -0.5511 -0.6503 -0.9082
 4769TIP3    H138502   2.040   6.148  20.025  2.1575 -0.2875 -0.7901
 4769TIP3    H238503   2.056   6.291  19.977 -1.3395 -0.1358 -1.7665
 4770TIP3   OH238504   1.443   5.384  18.431  0.1008 -0.2394  0.3041
 4770TIP3    H138505   1.467   5.426  18.514 -1.4553 -0.8571  1.1119
 4770TIP3    H238506   1.385   5.447  18.388  1.4597  0.3813 -0.6816
 4771TIP3   OH238507   5.749   4.167  20.643  0.6298  0.3215 -0.0868
 4771TIP3    H138508   5.747   4.252  20.599  1.7022  0.9720  1.0535
 4771TIP3    H238509   5.840   4.138  20.634  0.2430 -0.7816 -0.5787
 4772TIP3   OH238510   2.664   5.317  20.655  0.5632  0.2639 -0.8402
 4772TIP3    H138511   2.633   5.228  20.670  0.0417  0.4930 -0.5312
 4772TIP3    H238512   2.757   5.314  20.678  0.2229  0.1502  0.6628
 4773TIP3   OH238513   1.535   5.263  20.092  0.0089  0.7384 -0.4248
 4773TIP3    H138514   1.495   5.196  20.037 -0.4912 -0.7058  1.5690
 4773TIP3    H238515   1.588   5.214  20.155  0.2916  2.2653  0.5940
 4774TIP3   OH238516   5.449   6.315  18.208  0.6074  0.1561 -0.4704
 4774TIP3    H138517   5.400   6.335  18.128  0.4634  2.0853  0.0311
 4774TIP3    H238518   5.510   6.388  18.216  0.0436  0.4540  1.5892
 4775TIP3   OH238519   6.579   3.728  18.189  0.1230  0.3748 -0.1302
 4775TIP3    H138520   6.619   3.642  18.201  1.2170  1.0715  1.5603
 4775TIP3    H238521   6.491   3.709  18.154 -0.7596 -1.6269  2.8379
 4776TIP3   OH238522   2.438   4.365  18.713 -0.1121  0.4584  0.1989
 4776TIP3    H138523   2.523   4.362  18.670  0.5110 -0.0778  1.4210
 4776TIP3    H238524   2.438   4.448  18.761  0.6593 -0.5065  1.9699
 4777TIP3   OH238525   1.398   0.350  17.679 -0.2877  0.1381 -0.4266
 4777TIP3    H138526   1.376   0.353  17.772 -0.2264  0.0060 -0.4070
 4777TIP3    H238527   1.406   0.256  17.659  0.0737  0.1752 -0.4759
 4778TIP3   OH238528   2.455   0.515  20.546  0.7700 -0.5163  0.0606
 4778TIP3    H138529   2.385   0.450  20.551  1.9265 -1.7377  1.8077
 4778TIP3    H238530   2.412   0.599  20.563 -0.4300 -1.0875 -0.0855
 4779TIP3   OH238531   1.621   3.288  18.289 -0.4061  0.2764  0.2640
 4779TIP3    H138532   1.544   3.343  18.306 -0.4668 -0.3177  2.1508
 4779TIP3    H238533   1.689   3.350  18.263 -1.3422  0.8797 -0.8351
 4780TIP3   OH238534   2.597   6.036  17.263 -0.3252 -0.4846  0.2676
 4780TIP3    H138535   2.508   6.054  17.293 -0.1787  0.2335  0.2936
 4780TIP3    H238536   2.602   5.941  17.260 -1.5184 -0.5413 -0.9960
 4781TIP3   OH238537   3.553   2.816  20.496 -0.3286 -0.0745 -1.0701
 4781TIP3    H138538   3.560   2.823  20.400 -1.0513  0.2546 -1.1022
 4781TIP3    H238539   3.585   2.899  20.529  2.6473 -1.1789 -0.8584
 4782TIP3   OH238540   4.531   2.219  19.001  0.1814  0.3382  0.4939
 4782TIP3    H138541   4.586   2.294  19.026  1.0108 -0.3088  0.6547
 4782TIP3    H238542   4.547   2.154  19.070 -1.0448  0.2524  0.7222
 4783TIP3   OH238543   4.722   3.056  19.271 -0.1152 -0.3084 -0.0915
 4783TIP3    H138544   4.652   3.117  19.247  1.3337  1.7340  0.5473
 4783TIP3    H238545   4.750   3.017  19.189  0.0218  1.2137 -0.8034
 4784TIP3   OH238546   5.544   5.584  18.180 -0.0105 -0.2248 -0.9995
 4784TIP3    H138547   5.565   5.675  18.203 -0.0591 -0.3078 -0.6198
 4784TIP3    H238548   5.563   5.534  18.260 -1.8140 -0.2756 -0.5644
 4785TIP3   OH238549   0.783   5.633  19.782 -0.0163 -0.1340  0.0567
 4785TIP3    H138550   0.760   5.544  19.809  0.0851 -0.1358  0.1390
 4785TIP3    H238551   0.754   5.688  19.854 -1.2484  0.0400 -0.5524
 4786TIP3   OH238552   1.860   4.815  18.366  0.0884  0.3236  0.7454
 4786TIP3    H138553   1.849   4.884  18.431  0.2975  2.0625 -0.9656
 4786TIP3    H238554   1.771   4.794  18.338  0.0775  0.6666  0.5171
 4787TIP3   OH238555   1.855   5.358  20.387  0.1522  0.2570  0.8115
 4787TIP3    H138556   1.807   5.347  20.304 -0.0924  0.6015  0.9039
 4787TIP3    H238557   1.880   5.451  20.387  0.5561  0.1487  0.9083
 4788TIP3   OH238558   6.431   5.113  19.081 -0.5631 -0.0839 -0.2728
 4788TIP3    H138559   6.457   5.043  19.141  2.3754  0.2652 -0.9852
 4788TIP3    H238560   6.406   5.185  19.138  2.7432  0.4588  0.7119
 4789TIP3   OH238561   2.526   0.269  19.837 -0.2165 -0.2346  0.7753
 4789TIP3    H138562   2.558   0.184  19.867  2.5699  0.4586  0.0221
 4789TIP3    H238563   2.487   0.251  19.752  0.7062 -0.7132  0.4440
 4790TIP3   OH238564   6.308   0.595  20.261 -0.1833  0.5189  0.2143
 4790TIP3    H138565   6.271   0.555  20.340  1.0855 -0.6383  0.2607
 4790TIP3    H238566   6.365   0.664  20.294  1.3809 -0.8169  0.4365
 4791TIP3   OH238567   0.444   2.450  19.956 -0.3011 -0.8248 -0.1271
 4791TIP3    H138568   0.458   2.544  19.945  0.6344 -1.0254 -0.7040
 4791TIP3    H238569   0.385   2.426  19.885  0.9603 -1.0041 -1.1512
 4792TIP3   OH238570   5.847   1.460  17.179 -0.1583  0.1233  0.3057
 4792TIP3    H138571   5.778   1.474  17.114 -0.5695 -1.2198  0.4112
 4792TIP3    H238572   5.921   1.426  17.129  0.1598  0.8301  0.2953
 4793TIP3   OH238573   0.258   2.910  20.483 -0.5057  0.2804  0.4582
 4793TIP3    H138574   0.219   2.838  20.434  0.5656 -0.4745  0.6810
 4793TIP3    H238575   0.342   2.876  20.514 -0.3826  1.3176  1.3468
 4794TIP3   OH238576   5.291   1.062  18.758  0.1957 -0.1936 -0.1855
 4794TIP3    H138577   5.285   1.121  18.683  0.5058 -0.0440 -0.0912
 4794TIP3    H238578   5.248   1.110  18.829 -0.3903 -0.4673 -0.3442
 4795TIP3   OH238579   5.728   2.179  17.515  0.1485  0.4133  0.2271
 4795TIP3    H138580   5.790   2.248  17.489  0.6269  0.0124  0.2757
 4795TIP3    H238581   5.672   2.167  17.439 -0.2336  1.1716  0.3804
 4796TIP3   OH238582   2.545   2.016  19.565  0.3046 -0.1912  0.2713
 4796TIP3    H138583   2.494   2.049  19.490  0.2777 -1.0748 -0.1160
 4796TIP3    H238584   2.498   1.937  19.592  1.9878 -1.6212 -0.7463
 4797TIP3   OH238585   4.355   5.895  18.549 -0.3727 -0.0753  0.2734
 4797TIP3    H138586   4.388   5.875  18.637  1.4055 -2.1519 -0.7694
 4797TIP3    H238587   4.405   5.973  18.523 -1.4325  0.9974  1.3177
 4798TIP3   OH238588   5.914   4.587  20.127  0.5624 -0.1266 -0.0059
 4798TIP3    H138589   5.834   4.535  20.131  2.1090 -2.5600  1.3186
 4798TIP3    H238590   5.891   4.669  20.171 -1.4149 -0.3622 -0.4918
 4799TIP3   OH238591   5.881   1.591  18.559  0.4593 -0.0147  0.2581
 4799TIP3    H138592   5.947   1.645  18.602  1.8741 -1.0238 -0.5607
 4799TIP3    H238593   5.798   1.637  18.575  1.2050  0.7786  2.1334
 4800TIP3   OH238594   1.268   6.112  20.723  0.4691  0.6345 -0.1895
 4800TIP3    H138595   1.254   6.028  20.679  2.9784 -0.0279  0.1282
 4800TIP3    H238596   1.360   6.111  20.748 -0.3630  1.7597  3.4609
 4801TIP3   OH238597   2.644   1.583  19.761  0.9644 -0.9261 -0.1267
 4801TIP3    H138598   2.713   1.626  19.811 -0.4204 -0.0729  1.1254
 4801TIP3    H238599   2.641   1.630  19.678  0.0079  0.9166  0.9108
 4802TIP3   OH238600   1.748   2.563  17.281  0.0925 -0.0631 -0.0560
 4802TIP3    H138601   1.718   2.483  17.238 -1.1064 -0.0030  0.6436
 4802TIP3    H238602   1.689   2.574  17.355  0.3625  1.3646 -0.0312
 4803TIP3   OH238603   3.572   2.290  18.840  0.6504 -0.0943  0.4176
 4803TIP3    H138604   3.640   2.290  18.772 -0.4570 -0.9030 -0.7517
 4803TIP3    H238605   3.514   2.217  18.815 -0.3275  0.2146  1.6962
 4804TIP3   OH238606   2.349   5.010  18.873  0.1702 -0.0782 -0.3885
 4804TIP3    H138607   2.304   5.081  18.826 -0.7060 -0.5145 -0.2400
 4804TIP3    H238608   2.278   4.952  18.902  0.6135  0.4259  1.9004
 4805TIP3   OH238609   4.548   4.478  18.195 -0.3385  0.0408  0.1403
 4805TIP3    H138610   4.599   4.459  18.274  0.5317 -0.5727 -0.5552
 4805TIP3    H238611   4.605   4.532  18.141  0.1321 -1.6971 -1.2039
 4806TIP3   OH238612   0.624   6.412  18.116  0.3891 -0.2805  0.7317
 4806TIP3    H138613   0.542   6.427  18.070 -1.4194 -1.2205  3.4223
 4806TIP3    H238614   0.648   6.497  18.152 -0.2100 -0.2635  1.1083
 4807TIP3   OH238615   6.356   6.561  19.579  0.2964 -0.5185 -0.4083
 4807TIP3    H138616   6.449   6.548  19.562  0.9243  1.3213  1.2426
 4807TIP3    H238617   6.339   6.651  19.552 -0.8481 -0.6230 -0.0885
 4808TIP3   OH238618   1.916   1.056  18.053  0.2830 -0.2163  0.3462
 4808TIP3    H138619   1.850   1.095  18.110 -0.7644  0.4108 -1.2310
 4808TIP3    H238620   1.962   1.131  18.015 -0.0313 -0.5795 -0.7673
 4809TIP3   OH238621   1.157   3.464  20.327  0.1158 -0.4796  0.1255
 4809TIP3    H138622   1.103   3.541  20.308  1.0885  0.1323 -0.2350
 4809TIP3    H238623   1.109   3.418  20.396 -0.5001  0.4301  0.3254
 4810TIP3   OH238624   5.592   4.596  17.754 -0.3021  0.6104 -0.0824
 4810TIP3    H138625   5.618   4.683  17.726  0.5604  0.2704 -0.3605
 4810TIP3    H238626   5.597   4.542  17.675  3.0875 -0.5755  0.7788
 4811TIP3   OH238627   5.954   3.634  19.486  0.9287 -0.7984  0.3926
 4811TIP3    H138628   5.980   3.542  19.479  0.0579 -1.0195 -0.0897
 4811TIP3    H238629   5.866   3.631  19.522  1.4158 -0.0804  1.6867
 4812TIP3   OH238630   3.404   5.070  18.902 -0.1488 -0.3377  0.0194
 4812TIP3    H138631   3.456   5.112  18.834  0.2494  0.3028  0.6997
 4812TIP3    H238632   3.315   5.066  18.866  0.3092 -1.2625 -1.0709
 4813TIP3   OH238633   5.276   5.460  19.656  0.3020  0.2459 -0.4090
 4813TIP3    H138634   5.336   5.409  19.710  1.6926  1.8435 -0.3333
 4813TIP3    H238635   5.299   5.435  19.566 -1.4249 -1.7768 -0.3461
 4814TIP3   OH238636   2.807   0.448  19.871  0.3402 -0.0840 -0.2289
 4814TIP3    H138637   2.724   0.423  19.912  0.5719  0.0310  0.3071
 4814TIP3    H238638   2.780   0.488  19.788 -0.0485 -1.7648 -0.9488
 4815TIP3   OH238639   1.965   2.740  17.493 -0.0782  0.2807 -0.1813
 4815TIP3    H138640   1.980   2.724  17.400  0.2278  0.5294 -0.1754
 4815TIP3    H238641   2.023   2.678  17.537 -0.4137 -0.0167 -0.1538
 4816TIP3   OH238642   3.164   2.835  20.274  0.0321 -0.3015  0.1824
 4816TIP3    H138643   3.091   2.838  20.213  0.3050  1.7091 -0.1254
 4816TIP3    H238644   3.225   2.772  20.236 -1.2700 -1.5778  0.1583
 4817TIP3   OH238645   2.859   1.759  19.842  0.1041 -0.1646  0.5580
 4817TIP3    H138646   2.917   1.831  19.869  0.1814 -0.0448  0.0858
 4817TIP3    H238647   2.869   1.755  19.747 -0.1519 -0.5883  0.5466
 4818TIP3   OH238648   2.490   2.608  20.806  0.0278  0.5531  0.4187
 4818TIP3    H138649   2.432   2.653  20.867 -0.3046  1.5610 -0.6091
 4818TIP3    H238650   2.497   2.668  20.732  0.7199 -0.4832 -0.3679
 4819TIP3   OH238651   6.533   5.121  20.053 -1.3511 -0.4087  0.1788
 4819TIP3    H138652   6.541   5.045  20.112  0.0455 -0.3418  0.1161
 4819TIP3    H238653   6.543   5.197  20.109 -1.2946 -0.3082  0.0346
 4820TIP3   OH238654   1.909   0.891  20.563 -0.6469 -0.2617  0.2164
 4820TIP3    H138655   1.960   0.810  20.564 -2.4509 -1.4426  0.1269
 4820TIP3    H238656   1.966   0.956  20.605  0.2221 -1.9490  1.7599
 4821TIP3   OH238657   4.954   3.550  20.341  0.3505  0.5459  0.3779
 4821TIP3    H138658   4.926   3.510  20.423 -0.1777 -1.3260 -0.6627
 4821TIP3    H238659   4.928   3.488  20.273  2.6108  1.0344 -1.0610
 4822TIP3   OH238660   3.226   1.430  17.215  0.4664 -0.5134  0.2569
 4822TIP3    H138661   3.133   1.415  17.234  0.2930 -0.2512 -0.3631
 4822TIP3    H238662   3.228   1.518  17.177  1.3615  0.8296  3.1236
 4823TIP3   OH238663   0.693   2.527  19.384  0.2273  0.2140  0.5801
 4823TIP3    H138664   0.610   2.483  19.399  0.6626 -1.9306 -2.3954
 4823TIP3    H238665   0.744   2.465  19.332  2.8468  2.3280  0.3981
 4824TIP3   OH238666   6.588   6.362  20.407  0.5586 -0.3112 -0.0077
 4824TIP3    H138667   6.676   6.332  20.433  0.8280 -0.4731 -1.0773
 4824TIP3    H238668   6.531   6.288  20.428  0.4923  0.1784  1.6759
 4825TIP3   OH238669   1.253   6.292  18.582  0.8358 -0.1232 -0.1326
 4825TIP3    H138670   1.272   6.262  18.671  0.3937  0.5533  0.2077
 4825TIP3    H238671   1.338   6.307  18.542  1.0493 -1.2364 -0.1107
 4826TIP3   OH238672   0.815   2.668  20.139 -0.3105 -0.2279 -0.1563
 4826TIP3    H138673   0.834   2.762  20.141 -1.4330  0.0040  1.1121
 4826TIP3    H238674   0.873   2.630  20.205 -0.3225 -0.3388 -0.2092
 4827TIP3   OH238675   1.528   6.150  19.395  0.1449  0.3943  0.0309
 4827TIP3    H138676   1.497   6.060  19.383  1.8517 -0.4354  1.4624
 4827TIP3    H238677   1.449   6.199  19.422 -0.1025 -1.6482  3.6137
 4828TIP3   OH238678   1.612   3.569  19.057 -0.3712 -0.1665 -0.1241
 4828TIP3    H138679   1.607   3.474  19.051  0.1840 -0.2724  0.9643
 4828TIP3    H238680   1.704   3.589  19.041  0.1924 -0.0943  2.7555
 4829TIP3   OH238681   2.622   6.334  20.146  0.0359 -0.1369 -0.4348
 4829TIP3    H138682   2.715   6.346  20.165  0.2209 -1.4342 -0.4103
 4829TIP3    H238683   2.620   6.309  20.053 -0.2209 -0.7769 -0.2609
 4830TIP3   OH238684   6.613   0.097  20.637 -0.8397 -0.1768  0.5124
 4830TIP3    H138685   6.525   0.088  20.601 -0.8793 -0.7771  0.7429
 4830TIP3    H238686   6.599   0.136  20.724 -0.9119 -0.6218  0.7024
 4831TIP3   OH238687   2.665   5.148  18.142  0.6082 -0.1979  0.2519
 4831TIP3    H138688   2.656   5.243  18.152  0.0954 -0.0697 -1.1326
 4831TIP3    H238689   2.619   5.128  18.060  0.8060 -1.6282  0.4557
 4832TIP3   OH238690   6.552   3.140  18.447 -0.1404 -0.2943  0.2427
 4832TIP3    H138691   6.602   3.065  18.416  0.1119  0.3299 -0.9214
 4832TIP3    H238692   6.536   3.122  18.540  1.6511 -0.8304  0.4802
 4833TIP3   OH238693   1.743   4.863  20.349 -0.0115  0.1095 -0.5826
 4833TIP3    H138694   1.696   4.809  20.285  1.8346 -0.7353 -1.3068
 4833TIP3    H238695   1.794   4.800  20.400 -0.4494  0.8956  0.8790
 4834TIP3   OH238696   6.562   4.141  18.151  0.7090 -0.0869  0.0796
 4834TIP3    H138697   6.604   4.133  18.236  1.1068  1.4138  0.0377
 4834TIP3    H238698   6.614   4.086  18.093  1.4817  0.2599  0.4376
 4835TIP3   OH238699   5.847   1.079  19.336  0.5682 -0.0019  0.5081
 4835TIP3    H138700   5.901   1.038  19.269  0.0528 -0.6241  0.4643
 4835TIP3    H238701   5.845   1.014  19.407  2.1775  1.1651  1.6961
 4836TIP3   OH238702   5.182   0.520  19.226  0.4497 -0.5067 -0.3046
 4836TIP3    H138703   5.231   0.600  19.244  0.1553 -0.2243 -0.7467
 4836TIP3    H238704   5.128   0.507  19.304  1.3382 -0.9132  0.2594
 4837TIP3   OH238705   0.594   5.312  18.317  0.9716  0.2010 -0.4115
 4837TIP3    H138706   0.608   5.285  18.226 -0.0362  1.7505 -1.0644
 4837TIP3    H238707   0.507   5.278  18.339  0.3806  1.4621 -0.7055
 4838TIP3   OH238708   5.444   3.706  17.487  0.1440  0.0529  0.2104
 4838TIP3    H138709   5.400   3.695  17.403 -0.5481  1.2607  0.3876
 4838TIP3    H238710   5.537   3.698  17.467  0.0165  0.8798 -0.7756
 4839TIP3   OH238711   4.850   3.405  20.575 -0.1087 -0.0999  0.0221
 4839TIP3    H138712   4.848   3.479  20.636 -0.3612 -0.6011  0.6243
 4839TIP3    H238713   4.816   3.331  20.625 -0.6602 -0.4392 -0.8277
 4840TIP3   OH238714   4.006   3.586  18.358 -0.6901  0.0212  0.2477
 4840TIP3    H138715   3.975   3.586  18.268 -0.9233 -0.7689  0.3208
 4840TIP3    H238716   3.944   3.642  18.404  0.4088  1.8262 -0.3830
 4841TIP3   OH238717   2.069   1.348  18.179 -0.6155 -0.3196 -0.0778
 4841TIP3    H138718   2.131   1.375  18.248 -2.4607 -1.7305  2.3047
 4841TIP3    H238719   2.098   1.260  18.154 -0.5441 -0.2146 -0.3663
 4842TIP3   OH238720   5.281   3.703  19.147 -0.2066  0.2214 -0.8470
 4842TIP3    H138721   5.336   3.660  19.213 -0.0919 -0.5818 -1.4496
 4842TIP3    H238722   5.337   3.772  19.111 -0.7813  1.6807  0.9313
 4843TIP3   OH238723   5.048   5.534  18.595 -0.3236 -0.0406 -0.6262
 4843TIP3    H138724   4.956   5.540  18.618 -0.7226 -1.3846 -1.6651
 4843TIP3    H238725   5.082   5.462  18.648 -0.0652 -0.0362 -0.7797
 4844TIP3   OH238726   4.680   6.732  18.940  0.2614 -0.2020  0.3477
 4844TIP3    H138727   4.731   6.808  18.968  2.1874  0.1012 -3.4015
 4844TIP3    H238728   4.618   6.766  18.876 -0.3685 -1.4871  0.2301
 4845TIP3   OH238729   0.245   4.500  19.393 -0.5504  0.3344  0.7107
 4845TIP3    H138730   0.296   4.555  19.452  0.0386  0.2367  0.3049
 4845TIP3    H238731   0.155   4.509  19.423 -0.4658  1.5155  0.6491
 4846TIP3   OH238732   6.585   3.833  19.372  0.6993 -0.5255  0.1160
 4846TIP3    H138733   6.514   3.787  19.328  0.2587  0.9978 -0.8611
 4846TIP3    H238734   6.576   3.810  19.465 -0.4827 -1.0797 -0.1278
 4847TIP3   OH238735   3.026   0.681  19.043 -0.2967 -0.6614 -0.0354
 4847TIP3    H138736   3.025   0.661  18.949 -2.5425 -1.4138  0.0819
 4847TIP3    H238737   2.998   0.772  19.048  3.3166  0.6126 -0.1979
 4848TIP3   OH238738   1.462   2.954  18.542 -0.0130  0.4090  0.2000
 4848TIP3    H138739   1.534   3.016  18.532  1.2343 -0.8774  0.9198
 4848TIP3    H238740   1.466   2.899  18.464 -0.1803  0.2867  0.2758
 4849TIP3   OH238741   1.202   0.392  19.259  0.0182  0.2402  0.3409
 4849TIP3    H138742   1.135   0.408  19.192 -1.4486  1.1444  1.9294
 4849TIP3    H238743   1.173   0.444  19.334  2.1780  0.1125  1.3285
 4850TIP3   OH238744   2.402   6.333  20.291  0.1795  0.0797 -0.6641
 4850TIP3    H138745   2.360   6.247  20.293  1.4652 -0.5873 -1.2440
 4850TIP3    H238746   2.465   6.327  20.219  0.7176  1.3082 -0.3154
 4851TIP3   OH238747   1.791   3.396  20.323  0.2360 -0.0702  0.4086
 4851TIP3    H138748   1.713   3.452  20.316  0.5859  0.2729 -1.2489
 4851TIP3    H238749   1.756   3.307  20.330 -0.4306 -0.2221 -2.9683
 4852TIP3   OH238750   1.308   4.462  20.441 -0.2445  0.1033 -0.3535
 4852TIP3    H138751   1.297   4.526  20.371 -1.7611 -0.1863 -0.4138
 4852TIP3    H238752   1.246   4.392  20.420  1.1859 -1.2847 -0.1480
 4853TIP3   OH238753   5.060   2.073  18.550 -0.4027  0.3647  0.0940
 4853TIP3    H138754   4.986   2.110  18.503 -1.4599 -1.1151  0.5065
 4853TIP3    H238755   5.099   2.011  18.489  0.2463  0.8383  0.0232
 4854TIP3   OH238756   5.484   6.380  19.607  0.1311  0.3860  0.1976
 4854TIP3    H138757   5.416   6.382  19.539  0.2975 -0.2033  0.0072
 4854TIP3    H238758   5.462   6.304  19.661  1.1862 -0.4278 -0.4589
 4855TIP3   OH238759   1.192   0.349  16.793 -0.9063  0.3984  0.1092
 4855TIP3    H138760   1.261   0.411  16.816 -1.3921  1.2404 -0.6794
 4855TIP3    H238761   1.240   0.270  16.767 -0.2108  1.1097 -0.8492
 4856TIP3   OH238762   5.167   2.337  20.219 -0.2681 -0.4934  0.0865
 4856TIP3    H138763   5.169   2.307  20.128 -0.0302 -2.7010  0.7370
 4856TIP3    H238764   5.128   2.424  20.216 -1.3155 -0.9727 -2.0116
 4857TIP3   OH238765   2.842   5.007  19.703 -0.2591 -0.6929 -0.0674
 4857TIP3    H138766   2.905   5.066  19.744  1.0113  0.1208 -2.9765
 4857TIP3    H238767   2.896   4.944  19.654 -1.5715  0.6548 -3.5110
 4858TIP3   OH238768   2.642   2.040  20.196  0.5667  0.0261 -0.3192
 4858TIP3    H138769   2.619   2.036  20.288  2.3728 -0.3042  0.1452
 4858TIP3    H238770   2.576   2.098  20.157 -1.3105 -1.2846  0.7911
 4859TIP3   OH238771   1.117   0.513  19.506  0.2195  0.4540 -0.3468
 4859TIP3    H138772   1.113   0.588  19.448  1.0863  0.6395 -0.1884
 4859TIP3    H238773   1.073   0.541  19.586  0.3123  0.7105 -0.3845
 4860TIP3   OH238774   2.889   2.576  18.597  0.0105  0.2285 -0.3983
 4860TIP3    H138775   2.837   2.556  18.675 -1.2727 -0.2503 -1.3404
 4860TIP3    H238776   2.973   2.533  18.612 -0.6051 -0.7815  0.2657
 4861TIP3   OH238777   3.083   5.529  19.417 -0.0131 -0.4001  0.7062
 4861TIP3    H138778   3.018   5.460  19.426  0.9497 -1.3565  0.6112
 4861TIP3    H238779   3.037   5.601  19.374 -0.5008 -1.8258 -1.3183
 4862TIP3   OH238780   5.829   4.422  19.612 -0.3794  0.0326 -0.0292
 4862TIP3    H138781   5.920   4.418  19.643 -0.0802  0.2418 -0.8486
 4862TIP3    H238782   5.837   4.431  19.517 -1.2507 -2.7542 -0.4728
 4863TIP3   OH238783   5.765   4.642  18.138 -0.2062  0.2687 -0.2951
 4863TIP3    H138784   5.837   4.588  18.170 -1.4465 -0.8958  0.6413
 4863TIP3    H238785   5.798   4.732  18.144  2.0161 -0.3442 -2.2071
 4864TIP3   OH238786   6.100   4.645  17.886 -0.4746 -0.5944 -0.3131
 4864TIP3    H138787   6.036   4.709  17.854 -0.2113 -0.2549 -0.1665
 4864TIP3    H238788   6.149   4.692  17.954  0.2792 -0.6934 -0.7820
 4865TIP3   OH238789   6.391   0.066  19.227 -0.0363 -0.3822  0.0342
 4865TIP3    H138790   6.478   0.044  19.194 -0.1957 -0.4516 -0.3534
 4865TIP3    H238791   6.356   0.126  19.161  0.2666  0.7915  0.9088
 4866TIP3   OH238792   1.426   1.049  20.075 -0.7299 -0.0476 -0.3459
 4866TIP3    H138793   1.504   0.994  20.083 -0.6224  0.0595 -0.6374
 4866TIP3    H238794   1.407   1.076  20.165 -0.0159  0.4943 -0.3472
 4867TIP3   OH238795   2.265   3.719  19.078  0.6766 -0.3545 -0.6643
 4867TIP3    H138796   2.187   3.769  19.052  0.8124  0.4413  0.4051
 4867TIP3    H238797   2.230   3.634  19.106 -0.1153  0.6693  1.7658
 4868TIP3   OH238798   3.545   4.490  18.763 -0.1237  0.6132 -0.5766
 4868TIP3    H138799   3.597   4.563  18.731  1.0392  0.1927  0.3034
 4868TIP3    H238800   3.598   4.412  18.745 -0.1607  0.2272  0.8671
 4869TIP3   OH238801   6.572   1.884  19.311 -0.6175  0.0002  0.3180
 4869TIP3    H138802   6.655   1.848  19.342 -0.2102  0.3711 -0.3258
 4869TIP3    H238803   6.574   1.869  19.216 -1.6794 -0.7851  0.4025
 4870TIP3   OH238804   5.624   0.654  20.225 -0.2874  0.4019 -0.0160
 4870TIP3    H138805   5.631   0.655  20.320  1.1223 -0.3096 -0.0820
 4870TIP3    H238806   5.709   0.687  20.194 -0.0257 -1.1023 -1.0146
 4871TIP3   OH238807   4.837   5.869  20.868  0.3369  0.4991 -0.1868
 4871TIP3    H138808   4.910   5.808  20.874  1.1159  1.5206  1.6889
 4871TIP3    H238809   4.761   5.819  20.897  0.5852 -0.1479 -0.6493
 4872TIP3   OH238810   1.304   5.220  19.746  0.2564  0.3855 -0.0927
 4872TIP3    H138811   1.301   5.128  19.722  2.4609 -0.3872  2.1466
 4872TIP3    H238812   1.216   5.253  19.727 -0.7462 -2.2799 -0.4724
 4873TIP3   OH238813   5.341   4.684  18.176  0.7220 -0.0440  0.0250
 4873TIP3    H138814   5.423   4.653  18.138  1.0288  1.1355 -0.3118
 4873TIP3    H238815   5.316   4.759  18.122 -0.6629 -0.4655  0.0311
 4874TIP3   OH238816   5.307   3.907  20.716 -0.3493  0.2278 -0.4158
 4874TIP3    H138817   5.329   3.996  20.689  0.1682 -0.1668 -1.3694
 4874TIP3    H238818   5.387   3.857  20.700 -0.2705 -0.1972  1.1755
 4875TIP3   OH238819   3.339   3.725  19.442 -0.0030 -0.5735  0.4449
 4875TIP3    H138820   3.266   3.779  19.474  0.7511  0.3244  0.7050
 4875TIP3    H238821   3.333   3.731  19.347 -0.4105 -0.7120  0.4576
 4876TIP3   OH238822   5.628   6.132  19.800  0.0004  0.5417 -0.1081
 4876TIP3    H138823   5.626   6.060  19.863  0.3807  1.1543  0.6362
 4876TIP3    H238824   5.552   6.118  19.744  0.5005 -0.8621 -0.4763
 4877TIP3   OH238825   4.784   0.235  17.005 -1.0494  0.2592  0.7076
 4877TIP3    H138826   4.820   0.239  16.916 -1.1650 -0.4516  0.6284
 4877TIP3    H238827   4.798   0.323  17.040  2.8506 -0.5322  1.5074
 4878TIP3   OH238828   5.551   4.493  19.655  0.0374  0.3282  0.2878
 4878TIP3    H138829   5.512   4.464  19.737  0.8849  2.1987  1.4281
 4878TIP3    H238830   5.644   4.475  19.664  0.1481  0.5953 -0.2352
 4879TIP3   OH238831   0.935   2.507  20.434 -0.6677  0.4568 -0.3785
 4879TIP3    H138832   0.941   2.443  20.364 -0.2796 -0.9669  0.9119
 4879TIP3    H238833   1.017   2.557  20.429 -0.0717 -0.4755 -0.1711
 4880TIP3   OH238834   5.219   0.928  20.446  0.4466  0.4467  0.1489
 4880TIP3    H138835   5.195   0.994  20.512  1.5276  0.6092  0.4058
 4880TIP3    H238836   5.167   0.951  20.369 -1.7968 -0.4898  1.2880
 4881TIP3   OH238837   3.399   4.439  19.898 -0.2200  0.2261  0.0394
 4881TIP3    H138838   3.337   4.469  19.831 -0.6567 -0.5089  0.0924
 4881TIP3    H238839   3.363   4.471  19.981 -0.4709 -0.0884  0.0563
 4882TIP3   OH238840   1.443   4.711  19.689  0.5091  0.4094 -0.4799
 4882TIP3    H138841   1.509   4.734  19.755  0.1892  1.5713 -0.5492
 4882TIP3    H238842   1.479   4.745  19.607 -0.7644  2.2708 -0.3108
 4883TIP3   OH238843   6.405   4.570  19.034  0.4157 -0.2780 -0.1285
 4883TIP3    H138844   6.424   4.628  18.961  0.1162  0.9369  0.7246
 4883TIP3    H238845   6.459   4.603  19.106  0.2874 -1.1053  0.3602
 4884TIP3   OH238846   6.692   3.306  19.698 -0.5361 -0.0191 -0.2408
 4884TIP3    H138847   6.719   3.330  19.609  0.4247  0.2988  0.1296
 4884TIP3    H238848   6.697   3.210  19.699 -0.7127 -0.0343 -0.5759
 4885TIP3   OH238849   1.832   0.120  20.539  0.2510  0.5129  0.0772
 4885TIP3    H138850   1.858   0.210  20.519 -0.0623  0.5852 -0.0012
 4885TIP3    H238851   1.742   0.113  20.506 -0.5382  0.8348  2.0319
 4886TIP3   OH238852   1.599   0.602  18.547 -0.4666 -0.2689  0.5377
 4886TIP3    H138853   1.633   0.518  18.516  0.0003  0.4804 -1.1026
 4886TIP3    H238854   1.512   0.608  18.508  0.5710  1.1953 -1.7170
 4887TIP3   OH238855   1.997   0.696  19.163 -0.2860  0.0415 -0.1214
 4887TIP3    H138856   1.954   0.715  19.080 -1.3609 -0.6650  0.2444
 4887TIP3    H238857   2.038   0.610  19.150 -0.2388  0.0461 -0.0074
 4888TIP3   OH238858   2.873   2.468  19.937  0.5374 -0.4353  0.3488
 4888TIP3    H138859   2.940   2.400  19.943 -0.0509 -1.3006 -1.9602
 4888TIP3    H238860   2.791   2.423  19.958  0.3341 -0.0671  0.3476
 4889TIP3   OH238861   6.731   0.941  20.072 -0.0075  0.2380  0.0366
 4889TIP3    H138862   6.735   0.890  19.990  1.2753 -0.4121  0.4772
 4889TIP3    H238863   6.660   0.900  20.121  0.1907 -0.3363 -0.1403
 4890TIP3   OH238864   1.646   1.793  17.800  0.2357  0.0872 -0.5867
 4890TIP3    H138865   1.622   1.844  17.878 -1.2836 -1.1351 -0.1987
 4890TIP3    H238866   1.574   1.808  17.738  2.0121  2.0481 -2.3371
 4891TIP3   OH238867   2.094   6.033  20.801 -0.3418 -0.1711 -0.5072
 4891TIP3    H138868   2.147   5.966  20.758 -1.2641 -0.6972 -0.8699
 4891TIP3    H238869   2.157   6.090  20.844  0.4410 -1.8182  0.6456
 4892TIP3   OH238870   5.295   4.882  18.546 -0.1960  0.3540 -0.3027
 4892TIP3    H138871   5.363   4.936  18.585 -0.8153 -0.2191  1.7006
 4892TIP3    H238872   5.213   4.915  18.584 -0.8394 -0.2919 -1.0827
 4893TIP3   OH238873   5.149   0.790  17.843  0.0701 -0.0999  0.2418
 4893TIP3    H138874   5.095   0.722  17.883 -1.8423 -0.0845 -2.0725
 4893TIP3    H238875   5.131   0.784  17.749  2.3384  1.5057 -0.4123
 4894TIP3   OH238876   1.964   1.510  20.397 -0.4458  0.4998  0.3715
 4894TIP3    H138877   2.051   1.550  20.404  0.0276 -0.1009 -1.3846
 4894TIP3    H238878   1.948   1.472  20.483  0.4282  1.8030  1.1413
 4895TIP3   OH238879   5.662   5.385  19.614  0.3559  0.1609  0.1172
 4895TIP3    H138880   5.704   5.442  19.678 -0.1895 -0.0722  0.6975
 4895TIP3    H238881   5.725   5.316  19.598  1.3334  1.2960 -1.1536
 4896TIP3   OH238882   5.896   2.571  19.884 -0.1427 -0.0266  0.3752
 4896TIP3    H138883   5.929   2.513  19.953 -0.5088  1.3857  1.8014
 4896TIP3    H238884   5.921   2.528  19.802 -0.3540 -2.1515  1.3606
 4897TIP3   OH238885   0.295   0.175  17.526  0.2804  0.4666 -0.1904
 4897TIP3    H138886   0.291   0.087  17.563  0.2279  0.3268 -0.5313
 4897TIP3    H238887   0.300   0.162  17.432 -2.6346  0.8313 -0.5036
 4898TIP3   OH238888   4.388   4.387  20.730 -0.3505 -0.0888 -0.1546
 4898TIP3    H138889   4.358   4.316  20.674 -0.4397  0.4039 -0.7458
 4898TIP3    H238890   4.363   4.360  20.818 -0.3659 -0.7921 -0.3709
 4899TIP3   OH238891   4.909   4.380  21.001 -0.4299 -0.3792 -0.1732
 4899TIP3    H138892   4.969   4.445  20.964  0.0615 -0.3510  0.6452
 4899TIP3    H238893   4.823   4.422  20.996 -0.0987  0.4384  0.5080
 4900TIP3   OH238894   6.148   3.743  19.612 -0.4515 -0.7798 -0.2078
 4900TIP3    H138895   6.091   3.814  19.642  0.1277  0.2054 -1.3583
 4900TIP3    H238896   6.088   3.675  19.582 -1.0078 -0.6167  0.4970
 4901TIP3   OH238897   1.563   3.049  18.155 -0.4150  0.5852 -0.1946
 4901TIP3    H138898   1.600   3.134  18.176 -0.7307  1.6178 -3.2281
 4901TIP3    H238899   1.485   3.069  18.103 -1.7887 -1.5745  0.8600
 4902TIP3   OH238900   2.730   5.833  20.033  0.1707 -0.5593  0.0333
 4902TIP3    H138901   2.746   5.818  19.940  2.9133 -1.7249  0.6059
 4902TIP3    H238902   2.634   5.829  20.041 -0.0725 -2.4440 -2.4136
 4903TIP3   OH238903   5.266   2.024  19.865 -0.0446  0.8041  0.5150
 4903TIP3    H138904   5.280   2.064  19.779 -0.3569 -0.2426 -0.0496
 4903TIP3    H238905   5.182   2.059  19.894 -1.3576 -0.9301 -0.9159
 4904TIP3   OH238906   6.657   2.418  17.931 -0.2014  0.1965 -0.5582
 4904TIP3    H138907   6.588   2.427  17.996 -0.1097 -0.5598 -0.3463
 4904TIP3    H238908   6.714   2.349  17.965  1.5856  1.8847  0.1038
 4905TIP3   OH238909   2.962   6.425  18.845  0.0709  0.0628  0.2283
 4905TIP3    H138910   2.997   6.346  18.886 -1.6767 -1.5486 -1.2212
 4905TIP3    H238911   2.931   6.478  18.918  1.6437 -0.3583  1.2592
 4906TIP3   OH238912   4.015   5.553  17.513  0.7498  0.0628  0.1530
 4906TIP3    H138913   3.948   5.513  17.458 -0.8976  0.8647  1.4793
 4906TIP3    H238914   4.031   5.638  17.473  0.3675  0.1962  0.2760
 4907TIP3   OH238915   3.166   2.835  17.431 -0.2430 -0.6442  0.1967
 4907TIP3    H138916   3.077   2.812  17.403 -0.0734 -0.0173 -0.9007
 4907TIP3    H238917   3.163   2.930  17.442 -0.0628 -0.7720  1.5010
 4908TIP3   OH238918   5.281   0.602  18.459 -0.2478 -0.0330  0.3273
 4908TIP3    H138919   5.277   0.683  18.409 -0.8857 -0.4023 -0.2354
 4908TIP3    H238920   5.371   0.598  18.491 -0.2248  0.9211  0.4136
 4909TIP3   OH238921   5.759   0.557  19.744 -0.2791  0.1956  0.1610
 4909TIP3    H138922   5.803   0.639  19.768  0.1461  0.2533 -0.7733
 4909TIP3    H238923   5.808   0.489  19.791 -1.3479  0.5586  1.8644
 4910TIP3   OH238924   3.543   6.590  19.842  0.0880 -0.1496  0.0345
 4910TIP3    H138925   3.465   6.575  19.789 -1.3036 -1.1495  2.1950
 4910TIP3    H238926   3.517   6.562  19.930  2.5776  0.4728  1.0432
 4911TIP3   OH238927   5.876   3.009  19.326  0.1300  0.4058 -0.1712
 4911TIP3    H138928   5.799   3.064  19.310 -0.0490  0.0025 -0.7474
 4911TIP3    H238929   5.914   2.995  19.239  0.2160 -0.3071 -0.0244
 4912TIP3   OH238930   4.006   0.473  18.204  0.9961 -0.7504 -0.0607
 4912TIP3    H138931   4.074   0.409  18.185  1.4777 -1.0601  2.3783
 4912TIP3    H238932   4.051   0.542  18.254 -0.2777 -0.5498  0.8787
 4913TIP3   OH238933   1.223   4.331  19.205 -0.6017  0.3569  0.0512
 4913TIP3    H138934   1.174   4.399  19.159 -0.5429  0.2193 -0.2185
 4913TIP3    H238935   1.250   4.371  19.288 -0.6363  0.6326 -0.0723
 4914TIP3   OH238936   3.389   6.551  18.715 -0.1920  0.5630 -0.0513
 4914TIP3    H138937   3.362   6.459  18.711  2.3971 -0.2713 -1.1054
 4914TIP3    H238938   3.434   6.559  18.799 -1.5107  1.2576  0.6133
 4915TIP3   OH238939   5.185   1.421  16.815  0.1019 -0.2760 -0.2160
 4915TIP3    H138940   5.225   1.496  16.857 -0.1462  0.1935 -0.8083
 4915TIP3    H238941   5.238   1.405  16.737 -0.9091  0.4360 -1.0818
 4916TIP3   OH238942   5.086   3.810  18.994 -0.0523 -0.3830  0.2921
 4916TIP3    H138943   5.149   3.767  19.052 -0.5959  0.6382  1.6870
 4916TIP3    H238944   5.001   3.773  19.018 -0.2792  0.0058  0.1102
 4917TIP3   OH238945   4.278   0.458  19.295  0.0324  0.1421 -0.7348
 4917TIP3    H138946   4.334   0.514  19.242 -0.4573  0.0533 -1.3631
 4917TIP3    H238947   4.326   0.375  19.300 -0.6655 -0.4187 -2.4986
 4918TIP3   OH238948   1.704   6.356  18.693 -0.3300  0.3709  0.1469
 4918TIP3    H138949   1.663   6.313  18.768  0.8227 -0.3021  0.4283
 4918TIP3    H238950   1.719   6.446  18.722  0.0297  0.1391  0.7001
 4919TIP3   OH238951   0.559   2.694  19.631  0.1545  0.4298 -0.4776
 4919TIP3    H138952   0.645   2.713  19.667  0.1630 -1.2222  0.4848
 4919TIP3    H238953   0.576   2.628  19.563 -0.5144 -2.1086  1.6310
 4920TIP3   OH238954   1.273   4.785  18.955  0.5610 -0.2679 -0.0707
 4920TIP3    H138955   1.349   4.835  18.983 -0.9616  2.2739 -0.1500
 4920TIP3    H238956   1.290   4.762  18.864  1.4930 -0.3205  0.1128
 4921TIP3   OH238957   0.740   6.431  17.286  0.5246  0.2171 -0.0650
 4921TIP3    H138958   0.824   6.388  17.269 -0.2492 -0.6694 -1.8449
 4921TIP3    H238959   0.678   6.360  17.300 -0.4941  0.7163 -1.6672
 4922TIP3   OH238960   2.473   5.860  20.117 -0.1161  0.0384 -0.3434
 4922TIP3    H138961   2.430   5.928  20.066 -0.8227  0.0204  0.2183
 4922TIP3    H238962   2.432   5.864  20.203  1.1495  0.1678  0.2870
 4923TIP3   OH238963   0.728   2.976  19.784 -0.3688 -0.4050  0.3511
 4923TIP3    H138964   0.759   2.888  19.763  0.0978 -0.5263  1.4988
 4923TIP3    H238965   0.708   2.973  19.878 -0.7810  0.5828  0.3066
 4924TIP3   OH238966   3.661   0.262  19.214  0.5970 -0.1584  0.2036
 4924TIP3    H138967   3.638   0.334  19.156  0.6725  0.4286  0.8933
 4924TIP3    H238968   3.710   0.201  19.158  1.6908  0.9429 -0.0839
 4925TIP3   OH238969   3.872   1.385  19.386  0.4086  0.1327 -0.1438
 4925TIP3    H138970   3.935   1.326  19.344 -0.4616  0.4449 -1.9697
 4925TIP3    H238971   3.926   1.457  19.419  1.0641  0.3955 -1.6708
 4926TIP3   OH238972   0.503   1.600  19.332  0.8214 -0.6088 -0.2670
 4926TIP3    H138973   0.494   1.532  19.399  1.6325 -1.5816 -1.1128
 4926TIP3    H238974   0.561   1.561  19.267  0.8215  0.6890 -1.0593
 4927TIP3   OH238975   3.813   6.032  20.192  0.0008 -0.0940 -0.2107
 4927TIP3    H138976   3.877   5.962  20.181  0.6826  0.5427 -0.4029
 4927TIP3    H238977   3.756   6.002  20.263  1.3436 -0.1006  0.9120
 4928TIP3   OH238978   1.747   1.046  20.204 -0.4401  0.3740  0.5379
 4928TIP3    H138979   1.771   1.127  20.250 -0.9879  0.5755  0.4784
 4928TIP3    H238980   1.796   1.050  20.122  1.9207 -0.8100  1.7678
 4929TIP3   OH238981   6.158   4.690  19.404 -0.2893  0.1258 -0.4849
 4929TIP3    H138982   6.084   4.740  19.370 -0.1179 -0.2315 -1.3871
 4929TIP3    H238983   6.233   4.748  19.395 -0.1343 -0.1992 -1.2999
 4930TIP3   OH238984   2.680   3.121  19.026 -0.5118  0.0063  0.2030
 4930TIP3    H138985   2.758   3.071  19.001 -0.3297  1.2094 -1.7792
 4930TIP3    H238986   2.707   3.212  19.023 -1.5053  0.3676  1.3827
 4931TIP3   OH238987   0.266   3.992  18.257 -0.2926 -0.5474  0.2099
 4931TIP3    H138988   0.323   4.052  18.210  0.2673 -0.6151  0.7938
 4931TIP3    H238989   0.289   4.004  18.349  0.8780 -2.6851  0.2655
 4932TIP3   OH238990   0.632   3.498  18.643 -0.3679 -0.0485  0.2983
 4932TIP3    H138991   0.542   3.532  18.644  0.1929  1.5308  0.8913
 4932TIP3    H238992   0.666   3.517  18.730  1.1597  1.2147 -0.5095
 4933TIP3   OH238993   1.689   4.582  19.310 -0.3581 -0.0747  0.6635
 4933TIP3    H138994   1.599   4.601  19.284 -0.5673  0.0392  1.4395
 4933TIP3    H238995   1.738   4.658  19.282 -0.4371 -0.2954 -0.0881
 4934TIP3   OH238996   4.456   3.691  20.159 -0.1283 -0.2818 -0.1104
 4934TIP3    H138997   4.378   3.741  20.182 -0.6581 -1.4082  0.6461
 4934TIP3    H238998   4.430   3.599  20.169  1.1125 -0.7019 -0.4443
 4935TIP3   OH238999   2.231   5.581  19.755 -0.2088  0.1769  0.1446
 4935TIP3    H139000   2.213   5.511  19.818  0.8395 -0.1296  0.1319
 4935TIP3    H239001   2.293   5.639  19.801  0.8867 -0.2719 -0.7281
 4936TIP3   OH239002   2.967   3.166  20.077  0.4171 -0.3285  0.0316
 4936TIP3    H139003   2.929   3.211  20.001  0.1193 -1.0684 -0.2720
 4936TIP3    H239004   3.056   3.143  20.049 -0.1547 -1.8804 -0.6714
 4937TIP3   OH239005   6.041   3.501  18.932 -0.4752 -0.0868  0.2801
 4937TIP3    H139006   6.023   3.507  18.838 -1.0011 -0.5536  0.3419
 4937TIP3    H239007   5.990   3.572  18.970 -1.3704 -0.7276  0.3376
 4938TIP3   OH239008   5.737   1.119  18.735 -0.0490 -0.2554  0.5672
 4938TIP3    H139009   5.748   1.133  18.829  0.4936 -0.6426  0.5621
 4938TIP3    H239010   5.755   1.204  18.695  2.8187 -0.7900  0.5656
 4939TIP3   OH239011   5.203   2.436  19.682 -0.0487 -0.0781 -0.4896
 4939TIP3    H139012   5.225   2.349  19.715 -2.5767 -0.8689 -0.6746
 4939TIP3    H239013   5.134   2.420  19.616 -0.2631  2.0207 -0.8461
 4940TIP3   OH239014   4.500   2.380  19.349  0.2268  0.2450  0.1880
 4940TIP3    H139015   4.561   2.440  19.393  0.1565 -1.2450  2.4879
 4940TIP3    H239016   4.443   2.437  19.297  1.4990  1.9499  0.5699
 4941TIP3   OH239017   4.660   6.574  17.777 -0.2662  0.0230  0.7654
 4941TIP3    H139018   4.720   6.536  17.841 -0.2706 -0.8915  0.2438
 4941TIP3    H239019   4.702   6.559  17.692 -0.6463  0.4867  0.4864
 4942TIP3   OH239020   2.785   3.865  20.230  0.3393 -0.3387 -0.5781
 4942TIP3    H139021   2.694   3.846  20.208  0.2012  0.4256 -0.7119
 4942TIP3    H239022   2.809   3.799  20.295 -0.5810 -0.0383  0.0842
 4943TIP3   OH239023   5.080   4.458  17.920 -1.1014 -0.0607  0.0490
 4943TIP3    H139024   5.141   4.387  17.936 -1.7133 -0.2650  1.5881
 4943TIP3    H239025   5.129   4.520  17.866  0.2324 -0.5135  0.7078
 4944TIP3   OH239026   0.205   3.830  19.223 -0.0033 -0.2947 -0.8424
 4944TIP3    H139027   0.260   3.769  19.172 -0.0083 -0.1975 -0.9642
 4944TIP3    H239028   0.119   3.823  19.183 -0.5594 -1.8146  0.4784
 4945TIP3   OH239029   3.621   6.432  19.165  0.3924  0.1374  0.1437
 4945TIP3    H139030   3.685   6.374  19.206 -1.0246 -0.5357  1.5485
 4945TIP3    H239031   3.633   6.516  19.209  1.2412  0.4244 -0.6131
 4946TIP3   OH239032   0.449   1.785  20.341 -0.0287  0.4226  0.1012
 4946TIP3    H139033   0.513   1.850  20.311  0.1561  0.1980  0.0011
 4946TIP3    H239034   0.366   1.813  20.301  0.2053  0.1551 -0.5912
 4947TIP3   OH239035   0.492   1.024  19.747  0.2904  0.1213 -0.3112
 4947TIP3    H139036   0.406   0.987  19.724 -0.0190 -0.5282  1.7286
 4947TIP3    H239037   0.482   1.118  19.733 -0.3684 -0.0687 -1.2058
 4948TIP3   OH239038   5.783   0.660  18.051 -0.1823 -0.2348  0.2025
 4948TIP3    H139039   5.792   0.747  18.013  0.8294 -0.2504  0.3713
 4948TIP3    H239040   5.710   0.620  18.004  0.3719  0.1253 -0.9943
 4949TIP3   OH239041   1.124   4.380  17.406  0.0099 -0.5455  0.2713
 4949TIP3    H139042   1.188   4.310  17.422  0.5352 -0.0825  0.2249
 4949TIP3    H239043   1.041   4.334  17.391  0.3534 -1.1571  0.2246
 4950TIP3   OH239044   0.672   3.372  19.445  0.0607  0.3535  0.0641
 4950TIP3    H139045   0.610   3.375  19.371  0.2250  0.2539 -0.0768
 4950TIP3    H239046   0.661   3.285  19.482 -0.6711  0.7043  0.7147
 4951TIP3   OH239047   2.871   5.905  17.912 -0.2829 -0.3291  0.8465
 4951TIP3    H139048   2.857   5.915  17.818  0.5479  1.5211  0.8777
 4951TIP3    H239049   2.965   5.888  17.920 -0.2328  0.1845  1.3722
 4952TIP3   OH239050   5.395   5.245  17.355 -0.4746  0.2628  0.3752
 4952TIP3    H139051   5.413   5.292  17.436  1.5637  1.5985 -0.7874
 4952TIP3    H239052   5.416   5.307  17.286 -1.5518 -1.0565 -1.2162
 4953TIP3   OH239053   6.199   3.984  19.030  0.1475  0.0941  0.4498
 4953TIP3    H139054   6.161   4.030  18.955 -1.6549 -1.1686  0.5018
 4953TIP3    H239055   6.148   4.016  19.105  1.2120  0.5473  1.0005
 4954TIP3   OH239056   3.482   0.406  19.694 -0.3956  0.1653  0.0835
 4954TIP3    H139057   3.483   0.313  19.675 -1.0860 -0.1192  1.3488
 4954TIP3    H239058   3.444   0.447  19.616 -0.3364 -0.6292 -0.3649
 4955TIP3   OH239059   3.319   1.095  20.690 -0.0156  0.2808  0.0335
 4955TIP3    H139060   3.228   1.124  20.695 -0.0050  0.4933 -0.7629
 4955TIP3    H239061   3.315   1.009  20.648 -0.0531 -0.9736  2.4458
 4956TIP3   OH239062   5.019   1.071  18.723 -0.2201 -0.2963  0.4467
 4956TIP3    H139063   5.069   1.138  18.675  1.0687 -1.6845 -0.2056
 4956TIP3    H239064   5.070   0.991  18.714 -2.4922 -1.7721 -0.1242
 4957TIP3   OH239065   3.746   3.343  18.380  0.7380  0.3947 -0.1169
 4957TIP3    H139066   3.820   3.329  18.320  0.3007 -1.9810 -0.1927
 4957TIP3    H239067   3.668   3.336  18.324  0.3730 -0.0991  0.4436
 4958TIP3   OH239068   2.843   2.713  19.032  0.5242  0.0008 -0.2273
 4958TIP3    H139069   2.824   2.621  19.018  0.2249 -0.0710  0.5955
 4958TIP3    H239070   2.860   2.748  18.945 -1.4253 -0.3719 -0.7945
 4959TIP3   OH239071   5.837   0.856  19.507 -0.4642  0.3439  0.1623
 4959TIP3    H139072   5.851   0.831  19.598  1.7135 -2.0623 -0.7016
 4959TIP3    H239073   5.911   0.817  19.460 -1.9017  0.8487 -2.7419
 4960TIP3   OH239074   2.923   4.899  20.587  0.0932 -0.7189 -0.0307
 4960TIP3    H139075   3.013   4.886  20.558 -0.8001 -2.5143 -2.3226
 4960TIP3    H239076   2.899   4.815  20.627 -0.5835 -0.2799  0.5016
 4961TIP3   OH239077   1.785   4.082  20.475  0.2140  0.3176  0.1871
 4961TIP3    H139078   1.826   4.008  20.430 -0.2126 -0.0211  0.3591
 4961TIP3    H239079   1.738   4.043  20.549 -0.9921  0.6171 -0.3923
 4962TIP3   OH239080   2.426   0.457  19.537  0.4510  0.3734  0.3619
 4962TIP3    H139081   2.434   0.426  19.447  0.4090  0.9383  0.1617
 4962TIP3    H239082   2.512   0.494  19.557  0.3061  0.7003  0.3831
 4963TIP3   OH239083   1.441   2.913  19.034 -0.1006 -0.1312 -0.1841
 4963TIP3    H139084   1.477   2.951  18.954  1.7635  0.8137  1.0431
 4963TIP3    H239085   1.433   2.819  19.013  0.0030  0.1398 -1.5764
 4964TIP3   OH239086   1.055   5.147  17.973  0.2639 -0.2058  0.3597
 4964TIP3    H139087   0.994   5.107  18.035 -0.8371 -0.1374 -0.6459
 4964TIP3    H239088   1.079   5.076  17.914 -0.3849  0.1975 -0.4151
 4965TIP3   OH239089   4.510   5.509  18.706  0.3499 -0.4842  0.4469
 4965TIP3    H139090   4.470   5.424  18.724 -1.5909  0.4034  0.7193
 4965TIP3    H239091   4.491   5.560  18.785 -1.1285  1.0393 -0.8113
 4966TIP3   OH239092   1.856   5.021  18.854  0.4466  0.2871 -0.2388
 4966TIP3    H139093   1.788   5.087  18.859  3.0003  3.1580 -0.5001
 4966TIP3    H239094   1.858   4.982  18.942 -1.3205  0.2975 -0.1725
 4967TIP3   OH239095   2.708   1.997  18.170 -0.3743 -0.3752  0.3328
 4967TIP3    H139096   2.775   2.059  18.197  0.1038 -1.0358  0.6974
 4967TIP3    H239097   2.692   2.017  18.078  0.1572 -0.0633  0.3052
 4968TIP3   OH239098   4.352   0.380  18.898 -0.0304  0.2131  0.1213
 4968TIP3    H139099   4.441   0.368  18.930  0.2986 -0.2471 -0.9286
 4968TIP3    H239100   4.358   0.366  18.803 -1.0969  0.8345 -0.0563
 4969TIP3   OH239101   5.338   4.969  19.561  0.1148 -1.0590  0.0955
 4969TIP3    H139102   5.414   4.991  19.615 -0.0820 -0.9653  0.3422
 4969TIP3    H239103   5.357   4.883  19.524  0.8611 -0.5236 -0.8060
 4970TIP3   OH239104   2.669   3.855  19.781 -0.4268  0.3637 -0.3497
 4970TIP3    H139105   2.588   3.834  19.735  0.5208 -1.8887 -1.1581
 4970TIP3    H239106   2.688   3.777  19.833  1.1046  0.9365  0.0051
 4971TIP3   OH239107   3.789   5.423  17.861 -0.3380  0.0501 -0.1015
 4971TIP3    H139108   3.823   5.481  17.794  0.1822 -0.7914 -0.5915
 4971TIP3    H239109   3.701   5.456  17.880 -0.6728  0.0264 -1.5307
 4972TIP3   OH239110   0.403   2.188  18.560 -1.0446  0.2063  0.2294
 4972TIP3    H139111   0.358   2.165  18.479  0.1337  2.0253 -1.0334
 4972TIP3    H239112   0.493   2.158  18.547 -0.7851  0.7323  0.7484
 4973TIP3   OH239113   4.994   0.371  17.602  0.3701  0.1125  0.3335
 4973TIP3    H139114   4.912   0.322  17.614  0.6277 -0.1583  1.0670
 4973TIP3    H239115   5.004   0.378  17.507  0.4305 -1.4642  0.1945
 4974TIP3   OH239116   1.903   6.248  17.913  0.6044 -0.7199  0.0531
 4974TIP3    H139117   1.990   6.283  17.935  0.1745 -0.4325  1.3925
 4974TIP3    H239118   1.867   6.218  17.997 -0.2278 -1.6920 -0.6288
 4975TIP3   OH239119   1.406   3.866  21.014 -0.6462  0.3313 -0.3601
 4975TIP3    H139120   1.379   3.954  20.986  0.1871  0.3824 -1.0443
 4975TIP3    H239121   1.482   3.881  21.070  0.0902 -0.0018 -1.2543
 4976TIP3   OH239122   4.504   2.286  19.746 -0.5680  0.3377  0.9649
 4976TIP3    H139123   4.465   2.347  19.684 -2.5210 -0.7972  1.0104
 4976TIP3    H239124   4.550   2.341  19.809  0.9508  1.5488 -1.0710
 4977TIP3   OH239125   3.292   0.962  17.707  0.1748  0.5419 -0.4123
 4977TIP3    H139126   3.357   1.031  17.695 -0.3685  1.0693 -0.3805
 4977TIP3    H239127   3.221   1.004  17.757 -0.6753  0.2916 -1.3756
 4978TIP3   OH239128   2.560   4.641  19.938  0.3229 -0.2255 -0.0716
 4978TIP3    H139129   2.646   4.640  19.895  1.3356  0.7428  1.8115
 4978TIP3    H239130   2.552   4.729  19.975 -1.0791 -0.5924  0.5693
 4979TIP3   OH239131   0.539   2.824  20.587 -0.4721 -0.0714  0.0585
 4979TIP3    H139132   0.489   2.780  20.656 -0.5510  0.1043  0.1137
 4979TIP3    H239133   0.592   2.754  20.548  0.0161 -0.0572  0.6887
 4980TIP3   OH239134   0.405   3.162  18.482 -0.0494 -0.3113  0.0485
 4980TIP3    H139135   0.456   3.176  18.562  0.3041 -0.4626 -0.1509
 4980TIP3    H239136   0.455   3.206  18.414  0.5787 -1.6968 -0.4084
 4981TIP3   OH239137   1.471   2.471  19.881  0.0212 -0.7176 -0.1284
 4981TIP3    H139138   1.521   2.441  19.806  0.5888 -2.2053  0.8143
 4981TIP3    H239139   1.520   2.440  19.957 -1.2779 -0.4666  0.8434
 4982TIP3   OH239140   5.152   3.163  18.851  0.0944  0.0528  0.1966
 4982TIP3    H139141   5.081   3.140  18.911 -0.3034  0.1459 -0.2293
 4982TIP3    H239142   5.201   3.231  18.896 -0.4141  0.3760  0.2627
 4983TIP3   OH239143   5.266   1.700  20.639  0.8486  0.1391 -0.3859
 4983TIP3    H139144   5.318   1.762  20.691  0.5986  0.4288 -0.4815
 4983TIP3    H239145   5.178   1.705  20.676  0.9129 -0.4371 -0.1501
 4984TIP3   OH239146   1.204   3.260  18.087 -0.2177  0.2732  0.0013
 4984TIP3    H139147   1.289   3.280  18.049  0.6540  0.5505  1.9906
 4984TIP3    H239148   1.157   3.214  18.017  0.8616  1.7052 -1.7598
 4985TIP3   OH239149   2.061   1.196  17.600  0.3962  0.3344  0.0772
 4985TIP3    H139150   2.138   1.248  17.577  1.6442 -1.7950 -0.8685
 4985TIP3    H239151   2.076   1.111  17.558 -0.5558 -1.4944  3.1288
 4986TIP3   OH239152   3.449   1.679  18.787  0.8194  0.3720  0.4906
 4986TIP3    H139153   3.459   1.686  18.882  2.7698 -0.8847  0.4431
 4986TIP3    H239154   3.362   1.642  18.774  0.7687 -0.0079  1.8245
 4987TIP3   OH239155   0.689   5.687  20.814 -0.3173 -0.1932  0.0977
 4987TIP3    H139156   0.595   5.685  20.793  0.0070  0.8043 -1.6201
 4987TIP3    H239157   0.725   5.610  20.771 -0.1655  0.0620 -0.2333
 4988TIP3   OH239158   2.981   1.422  19.216  0.5663  0.0582 -0.2684
 4988TIP3    H139159   3.063   1.437  19.264  0.3661  0.2794  0.0102
 4988TIP3    H239160   2.939   1.508  19.213 -0.4544 -0.3547  1.0659
 4989TIP3   OH239161   5.979   4.476  20.809  0.2943 -0.1334  0.4490
 4989TIP3    H139162   5.894   4.514  20.832  1.5776  2.1296  1.8709
 4989TIP3    H239163   6.032   4.551  20.782  1.4648 -1.6708 -1.8369
 4990TIP3   OH239164   1.582   2.870  18.799  0.5912  0.4744  0.3754
 4990TIP3    H139165   1.561   2.781  18.826  0.5628 -0.0368 -1.2378
 4990TIP3    H239166   1.533   2.882  18.718  0.3322  2.0835  0.7379
 4991TIP3   OH239167   5.570   6.186  18.892  0.1736 -0.0604  0.2737
 4991TIP3    H139168   5.523   6.103  18.879  0.2514 -0.0084 -0.3587
 4991TIP3    H239169   5.633   6.166  18.961 -0.9849 -0.0383  1.3753
 4992TIP3   OH239170   3.538   1.743  20.619 -0.2347  0.2308  0.5340
 4992TIP3    H139171   3.532   1.789  20.536 -0.1323 -0.0689  0.3588
 4992TIP3    H239172   3.631   1.727  20.632 -0.3071 -0.4086  0.3188
 4993TIP3   OH239173   4.585   1.727  16.949  1.0355 -0.0518  0.1744
 4993TIP3    H139174   4.669   1.721  16.994  1.4007 -0.3956 -0.5329
 4993TIP3    H239175   4.598   1.679  16.868 -0.8330 -3.1169  1.5004
 4994TIP3   OH239176   0.826   1.213  16.597 -0.0722  0.3632  0.1742
 4994TIP3    H139177   0.804   1.292  16.548 -0.5533  2.1779  3.0862
 4994TIP3    H239178   0.856   1.245  16.682  2.6449 -2.5047  0.4626
 4995TIP3   OH239179   6.188   2.137  18.567  0.5152 -0.0569  0.1278
 4995TIP3    H139180   6.183   2.228  18.597 -1.1030  0.2991 -1.0923
 4995TIP3    H239181   6.235   2.142  18.484  1.3236 -0.4757  0.5602
 4996TIP3   OH239182   2.011   3.916  20.131  0.0252  0.1265  0.2661
 4996TIP3    H139183   2.072   3.988  20.117 -0.4424  0.1285 -2.1884
 4996TIP3    H239184   1.941   3.954  20.183 -0.1362  1.4265 -0.8485
 4997TIP3   OH239185   2.877   4.903  18.684  0.2511 -0.0112 -0.1107
 4997TIP3    H139186   2.867   4.969  18.615 -0.4850  0.2485  0.2365
 4997TIP3    H239187   2.796   4.910  18.735  1.5188  1.0232  1.8556
 4998TIP3   OH239188   3.377   2.419  17.135  0.5810  0.6646  0.7892
 4998TIP3    H139189   3.324   2.460  17.204  1.4939  2.8989  0.2550
 4998TIP3    H239190   3.467   2.442  17.157  1.3461 -2.3717  1.2224
 4999TIP3   OH239191   4.341   1.989  20.284  0.2125 -0.1203 -0.9412
 4999TIP3    H139192   4.269   1.935  20.251  0.4980 -1.4169  0.4814
 4999TIP3    H239193   4.297   2.064  20.325 -0.4201 -1.2163  0.4904
 5000TIP3   OH239194   3.565   5.114  18.559 -0.0212 -0.1462  0.4028
 5000TIP3    H139195   3.541   5.167  18.635  3.2232  2.1959  0.0333
 5000TIP3    H239196   3.551   5.171  18.484 -1.2139 -1.6956 -0.6212
 5001TIP3   OH239197   3.576   4.762  18.660 -0.1859  0.1185 -1.0332
 5001TIP3    H139198   3.661   4.805  18.674  0.3118 -0.9468 -0.6651
 5001TIP3    H239199   3.533   4.765  18.746  0.2836 -0.9832 -0.7358
 5002TIP3   OH239200   3.081   2.674  19.783 -0.1367 -0.4255 -0.5261
 5002TIP3    H139201   3.008   2.613  19.771 -1.8360  1.4685 -0.3894
 5002TIP3    H239202   3.111   2.659  19.872 -2.1174  0.4620  0.3729
 5003TIP3   OH239203   4.724   1.607  20.757 -0.0587 -0.3181  0.3491
 5003TIP3    H139204   4.738   1.683  20.814 -0.4003 -0.9439  1.2938
 5003TIP3    H239205   4.712   1.644  20.670 -3.3445  0.9830  1.2085
 5004TIP3   OH239206   2.014   4.622  18.472  0.0984  0.4459 -0.0567
 5004TIP3    H139207   1.974   4.704  18.444 -1.6281  1.0875  3.6356
 5004TIP3    H239208   1.943   4.558  18.466  0.9072 -0.4027 -1.0931
 5005TIP3   OH239209   0.775   6.039  19.594  0.0312  0.2950  0.1692
 5005TIP3    H139210   0.854   6.020  19.645  0.3948 -1.1432 -0.8954
 5005TIP3    H239211   0.762   6.134  19.605  0.7207  0.2181  2.0007
 5006TIP3   OH239212   4.100   2.077  18.701 -0.4219  0.3350  0.1940
 5006TIP3    H139213   4.071   2.012  18.765  0.1688 -0.8501 -0.6969
 5006TIP3    H239214   4.188   2.102  18.730  0.1538 -0.7645 -0.5292
 5007TIP3   OH239215   5.173   6.599  19.246  0.7431  0.4021 -0.1586
 5007TIP3    H139216   5.080   6.587  19.262  0.9736  1.4142  2.4481
 5007TIP3    H239217   5.177   6.653  19.168 -1.0616  3.2047  1.5109
 5008TIP3   OH239218   3.310   1.082  20.309  0.0613 -0.0948 -0.2872
 5008TIP3    H139219   3.359   1.057  20.231 -1.0917 -1.6572 -0.5743
 5008TIP3    H239220   3.313   1.004  20.365 -1.5883 -0.0484 -0.0786
 5009TIP3   OH239221   3.357   3.202  18.404  0.1014 -0.3650 -0.2310
 5009TIP3    H139222   3.411   3.154  18.467  0.0469 -1.5493 -1.0509
 5009TIP3    H239223   3.267   3.183  18.430  0.0597  0.5226  0.3278
 5010TIP3   OH239224   2.427   5.584  20.812 -0.2699 -0.1587 -0.0160
 5010TIP3    H139225   2.372   5.505  20.811  0.5521 -0.7720  1.2498
 5010TIP3    H239226   2.496   5.564  20.749 -0.4045 -0.1850 -0.1588
 5011TIP3   OH239227   5.893   0.805  19.843 -0.3931 -0.0880  0.1224
 5011TIP3    H139228   5.818   0.864  19.849  0.0205  0.3703  1.3092
 5011TIP3    H239229   5.967   0.863  19.821 -0.4066 -0.5575 -1.2087
 5012TIP3   OH239230   0.211   3.060  19.015  0.0269  0.3950 -0.1109
 5012TIP3    H139231   0.299   3.094  19.033  1.0573 -2.7407  1.5079
 5012TIP3    H239232   0.196   2.995  19.083 -2.5268 -0.9998 -1.8363
 5013TIP3   OH239233   4.999   5.017  19.178  0.4306 -0.2409 -0.5898
 5013TIP3    H139234   5.084   5.057  19.200  0.0474 -0.3838  1.2906
 5013TIP3    H239235   4.942   5.092  19.162  0.0777 -0.0062  1.5262
 5014TIP3   OH239236   6.500   6.664  19.995 -0.2672 -0.0079  0.3788
 5014TIP3    H139237   6.414   6.624  19.980  0.6040 -1.9482  0.3366
 5014TIP3    H239238   6.528   6.695  19.909 -1.8984  2.8407  0.7555
 5015TIP3   OH239239   0.225   1.928  20.232  0.2091 -0.0087  0.4086
 5015TIP3    H139240   0.214   2.004  20.288 -0.5137 -0.1475  0.4688
 5015TIP3    H239241   0.252   1.964  20.147 -0.9607  0.4020  0.1857
 5016TIP3   OH239242   1.124   2.967  19.057  0.1798 -0.6711 -0.3055
 5016TIP3    H139243   1.136   2.905  18.985 -0.6158  0.2246 -1.2377
 5016TIP3    H239244   1.213   2.985  19.088  0.4659 -1.7670 -0.4454
 5017TIP3   OH239245   2.166   1.990  19.231 -0.3175 -0.0256 -0.5547
 5017TIP3    H139246   2.108   2.054  19.272  0.9689  1.2651 -0.6541
 5017TIP3    H239247   2.109   1.936  19.178 -1.5572  0.5168  0.1767
 5018TIP3   OH239248   2.297   4.301  17.983 -0.0621 -0.1398  0.0831
 5018TIP3    H139249   2.220   4.245  17.991 -0.3879  0.3988  0.8719
 5018TIP3    H239250   2.267   4.387  18.014  0.8493  0.0771  0.3932
 5019TIP3   OH239251   0.770   1.045  18.011  0.4969  0.2644  0.1018
 5019TIP3    H139252   0.838   1.061  18.077 -0.0317  0.9241  0.4983
 5019TIP3    H239253   0.717   1.125  18.012 -0.6224 -0.4642  0.2010
 5020TIP3   OH239254   3.033   6.158  18.620 -0.1017  0.7137 -0.1452
 5020TIP3    H139255   3.044   6.202  18.536 -1.3167  0.5579 -0.4005
 5020TIP3    H239256   2.996   6.073  18.598  1.9190 -0.3731  0.3690
 5021TIP3   OH239257   2.328   0.397  18.826  0.4265  0.8594  0.6435
 5021TIP3    H139258   2.399   0.409  18.888 -0.6046  0.6234  1.9142
 5021TIP3    H239259   2.337   0.470  18.765  1.2002  1.3552  1.3303
 5022TIP3   OH239260   2.366   1.595  18.076  0.5345 -0.1722  0.1193
 5022TIP3    H139261   2.300   1.660  18.100  0.5212  0.4087 -1.3606
 5022TIP3    H239262   2.439   1.647  18.043  0.7108 -0.8910 -0.6521
 5023TIP3   OH239263   2.576   4.883  20.088 -0.3742  0.2146  0.0105
 5023TIP3    H139264   2.581   4.957  20.148  1.5205  0.0935  0.0523
 5023TIP3    H239265   2.585   4.922  20.001 -2.3037  0.3028 -0.1860
 5024TIP3   OH239266   6.511   4.758  20.558  0.5181  0.0066  0.1195
 5024TIP3    H139267   6.534   4.678  20.512  0.5493 -0.8542  1.5856
 5024TIP3    H239268   6.594   4.793  20.589  0.5428  0.8180 -0.7958
 5025TIP3   OH239269   4.018   2.963  18.624  0.2213 -0.3277 -0.3159
 5025TIP3    H139270   4.113   2.957  18.635  0.3007  0.0878 -0.7693
 5025TIP3    H239271   4.005   3.033  18.561 -0.3570 -0.8651 -0.8046
 5026TIP3   OH239272   0.171   2.221  19.214 -0.2489  0.7080 -0.3384
 5026TIP3    H139273   0.263   2.194  19.215  0.2919  2.3981  0.1818
 5026TIP3    H239274   0.121   2.140  19.224  1.1463 -0.3215 -1.2781
 5027TIP3   OH239275   4.500   3.444  19.541  0.4820 -0.1808  0.4751
 5027TIP3    H139276   4.547   3.463  19.621  1.8518 -2.8444  0.4290
 5027TIP3    H239277   4.556   3.477  19.471  0.0159  0.7818  0.5436
 5028TIP3   OH239278   1.092   4.620  20.057 -0.1515  0.8311  0.1254
 5028TIP3    H139279   1.071   4.531  20.029  0.6894  1.1743 -1.7581
 5028TIP3    H239280   1.018   4.672  20.027  0.7303  1.1948 -1.5028
 5029TIP3   OH239281   3.213   2.325  19.260  0.1184  0.0185 -0.2164
 5029TIP3    H139282   3.217   2.416  19.288  3.2638  0.2629 -1.1201
 5029TIP3    H239283   3.240   2.275  19.336 -0.4377 -0.1025 -0.0883
 5030TIP3   OH239284   6.432   1.127  19.946 -0.8525  0.4999 -0.0663
 5030TIP3    H139285   6.420   1.046  19.995 -0.2204  0.0274 -0.6819
 5030TIP3    H239286   6.510   1.167  19.985  1.1278 -1.0472 -2.1706
 5031TIP3   OH239287   5.987   5.518  20.168  0.0974  0.2927 -0.5710
 5031TIP3    H139288   6.019   5.444  20.219  1.0707  0.9696 -0.1601
 5031TIP3    H239289   6.016   5.501  20.079  1.0868  0.5781 -0.3210
 5032TIP3   OH239290   1.122   6.629  18.358  0.4084 -0.8251  0.2844
 5032TIP3    H139291   1.078   6.548  18.383  0.0917 -0.5931  0.4811
 5032TIP3    H239292   1.072   6.661  18.283 -0.0401 -0.3263  0.7892
 5033TIP3   OH239293   0.985   6.448  19.277 -0.1990  0.2872  0.2744
 5033TIP3    H139294   0.974   6.431  19.184 -1.0472 -1.6226  0.6695
 5033TIP3    H239295   0.975   6.542  19.286  0.1428  0.5284 -1.5891
 5034TIP3   OH239296   5.571   4.655  19.433  0.2836 -0.2008  0.0459
 5034TIP3    H139297   5.569   4.617  19.521 -0.7347 -1.7617 -0.5917
 5034TIP3    H239298   5.480   4.679  19.417  0.3185 -0.6576 -0.8617
 5035TIP3   OH239299   1.070   1.995  19.510 -0.5346 -0.2840  0.1892
 5035TIP3    H139300   1.068   2.083  19.548  1.4346  0.6756 -1.6798
 5035TIP3    H239301   1.105   1.940  19.580 -0.1062  0.7706  0.8419
 5036TIP3   OH239302   2.936   1.233  18.475 -0.2105  0.2874  0.1495
 5036TIP3    H139303   2.854   1.184  18.478 -0.4771  0.7237  0.1810
 5036TIP3    H239304   2.919   1.305  18.414 -0.8583  2.1156  2.3484
 5037TIP3   OH239305   2.431   3.311  20.462 -0.1166  0.6671  0.4896
 5037TIP3    H139306   2.370   3.346  20.396  1.1348  0.5178 -0.8078
 5037TIP3    H239307   2.377   3.296  20.539 -1.1715  3.2415  0.3441
 5038TIP3   OH239308   6.171   6.557  18.540 -0.2913  0.0600  0.0983
 5038TIP3    H139309   6.265   6.570  18.528  0.0954 -1.7026  0.8605
 5038TIP3    H239310   6.134   6.571  18.453  0.7767  0.0646 -0.3757
 5039TIP3   OH239311   4.195   0.252  20.414  0.2069  0.5415 -0.1426
 5039TIP3    H139312   4.241   0.172  20.441  1.1093  1.4868  1.2766
 5039TIP3    H239313   4.113   0.251  20.465  0.5762  0.8832  0.4748
 5040TIP3   OH239314   5.528   2.292  17.692  0.0793 -0.4496  0.2218
 5040TIP3    H139315   5.442   2.295  17.650 -0.0205  0.0711  0.4468
 5040TIP3    H239316   5.583   2.241  17.632 -0.0771  0.2220 -0.5109
 5041TIP3   OH239317   5.967   2.928  19.068  0.0581 -0.0534 -0.2331
 5041TIP3    H139318   6.014   2.846  19.054  0.0030  0.2078 -2.3025
 5041TIP3    H239319   6.026   2.996  19.035 -0.6446  0.5368 -0.2968
 5042TIP3   OH239320   5.382   3.285  20.390 -0.1096 -0.1207  0.3189
 5042TIP3    H139321   5.381   3.361  20.332 -1.0111 -0.8497 -0.6620
 5042TIP3    H239322   5.342   3.316  20.471 -2.2311  0.0021 -0.7101
 5043TIP3   OH239323   6.518   3.363  17.740 -0.3052  0.9058  0.5612
 5043TIP3    H139324   6.432   3.324  17.726  0.7871 -1.2223 -0.7456
 5043TIP3    H239325   6.546   3.392  17.654  0.5729  0.9010  0.8299
 5044TIP3   OH239326   5.231   3.977  20.360 -0.0712 -0.2407  0.0134
 5044TIP3    H139327   5.189   3.891  20.350 -2.6015  0.8527  0.4664
 5044TIP3    H239328   5.203   4.007  20.447 -0.8397  1.8169 -0.8963
 5045TIP3   OH239329   6.372   6.498  17.424  0.2228 -0.1142  0.2407
 5045TIP3    H139330   6.312   6.553  17.373  0.9111  0.1390 -0.3159
 5045TIP3    H239331   6.437   6.469  17.360 -0.2446 -1.7542  0.4874
 5046TIP3   OH239332   6.648   1.293  19.557 -0.0079  0.2434 -0.7500
 5046TIP3    H139333   6.681   1.216  19.602  0.6409 -0.1916 -1.9316
 5046TIP3    H239334   6.553   1.280  19.553 -0.2984  1.0546  1.8460
 5047TIP3   OH239335   4.832   6.539  20.043  0.7528  0.0707  0.5969
 5047TIP3    H139336   4.858   6.624  20.080  2.2188  0.3223 -0.8904
 5047TIP3    H239337   4.851   6.476  20.113  0.8982  0.8243  1.2499
 5048TIP3   OH239338   1.797   3.510  18.263 -0.5828  0.1488 -0.1868
 5048TIP3    H139339   1.841   3.519  18.179 -1.1878  1.1144 -0.4162
 5048TIP3    H239340   1.864   3.532  18.328  0.0474 -1.1464 -0.3544
 5049TIP3   OH239341   6.474   5.861  19.700 -0.1803 -0.5934 -0.2890
 5049TIP3    H139342   6.453   5.949  19.729 -0.2074 -0.9200  0.7109
 5049TIP3    H239343   6.432   5.853  19.614  0.4183  0.5977 -0.7116
 5050TIP3   OH239344   3.071   0.511  19.267  0.0238  0.2655 -0.2177
 5050TIP3    H139345   3.052   0.556  19.184 -1.0729  1.6489  0.7276
 5050TIP3    H239346   3.062   0.579  19.334  4.5008  0.1560  0.8424
 5051TIP3   OH239347   5.322   3.767  17.727  0.0836  0.0879 -0.1689
 5051TIP3    H139348   5.302   3.854  17.692 -0.6291  0.1008  0.2578
 5051TIP3    H239349   5.384   3.730  17.664 -0.6964  0.3546 -1.1268
 5052TIP3   OH239350   6.645   0.798  19.842  0.0931  0.2256 -0.5981
 5052TIP3    H139351   6.680   0.716  19.808 -0.7262  0.1413 -1.2743
 5052TIP3    H239352   6.599   0.837  19.768  0.9028  1.5537 -0.4286
 5053TIP3   OH239353   3.580   6.160  18.892 -0.3767  0.4923  0.3668
 5053TIP3    H139354   3.644   6.090  18.903  1.1686  1.8350  0.2419
 5053TIP3    H239355   3.543   6.172  18.980 -2.3281 -1.9181 -0.0022
 5054TIP3   OH239356   2.588   2.191  20.459  0.0728  0.2173  0.1547
 5054TIP3    H139357   2.630   2.215  20.541 -1.0053  1.2871  0.4217
 5054TIP3    H239358   2.581   2.274  20.411 -1.5229  0.0413  0.0384
 5055TIP3   OH239359   0.444   6.367  19.109 -0.6498 -0.3121  0.5103
 5055TIP3    H139360   0.497   6.308  19.164 -1.1001 -0.4921  0.7555
 5055TIP3    H239361   0.415   6.435  19.169  0.9573  0.9167 -0.0386
 5056TIP3   OH239362   3.003   3.460  17.910 -0.0257  0.0407 -0.1002
 5056TIP3    H139363   3.014   3.403  17.985  1.6361 -0.1200 -0.4333
 5056TIP3    H239364   3.055   3.420  17.841  2.8978  2.8987  0.2124
 5057TIP3   OH239365   2.668   6.081  18.429  0.1106  0.4598  0.0998
 5057TIP3    H139366   2.604   6.134  18.477 -1.5349 -1.4962  0.1899
 5057TIP3    H239367   2.636   6.082  18.339 -0.9643 -1.7171  0.4026
 5058TIP3   OH239368   1.980   6.588  20.158  0.2605 -0.0373 -0.0705
 5058TIP3    H139369   2.010   6.622  20.242  0.7405 -2.0217  0.6126
 5058TIP3    H239370   1.886   6.576  20.168  0.2868 -0.0889  0.1056
 5059TIP3   OH239371   6.612   0.807  18.766  0.1496 -0.3999 -0.1295
 5059TIP3    H139372   6.621   0.744  18.694  0.1938 -2.4403  1.5830
 5059TIP3    H239373   6.521   0.799  18.794 -0.1927  1.2440 -0.6564
 5060TIP3   OH239374   3.309   3.298  19.820 -0.0277  0.6120 -0.4338
 5060TIP3    H139375   3.331   3.215  19.778  0.4831  0.8097 -0.5601
 5060TIP3    H239376   3.240   3.335  19.764  0.7301  0.9290 -1.1891
 5061TIP3   OH239377   2.661   1.358  18.392  0.4572  1.1911  0.1257
 5061TIP3    H139378   2.619   1.276  18.366  1.6285  0.1605  1.3525
 5061TIP3    H239379   2.588   1.419  18.405 -0.8066 -0.7422  2.9545
 5062TIP3   OH239380   5.104   2.677  17.978 -0.0789 -0.2735 -0.4160
 5062TIP3    H139381   5.179   2.691  17.921  0.1812  1.2752  0.2508
 5062TIP3    H239382   5.141   2.654  18.063 -0.1700  2.6319  0.5220
 5063TIP3   OH239383   4.288   2.811  18.890  0.2268 -0.1922  0.3520
 5063TIP3    H139384   4.236   2.883  18.925 -0.3409 -0.5627  0.2785
 5063TIP3    H239385   4.230   2.766  18.829  0.6004 -0.6759  0.3446
 5064TIP3   OH239386   1.445   0.081  17.735  0.3108 -0.3268 -0.3548
 5064TIP3    H139387   1.512   0.015  17.754  1.0519  0.2044 -1.0575
 5064TIP3    H239388   1.430   0.073  17.641  0.6798  0.7315 -0.5220
 5065TIP3   OH239389   6.372   3.978  18.270 -0.1096  0.5548 -0.8809
 5065TIP3    H139390   6.409   4.057  18.232  1.6821 -0.4284 -1.3024
 5065TIP3    H239391   6.432   3.908  18.244 -1.4371 -0.8995 -0.2273
 5066TIP3   OH239392   0.237   2.833  20.184 -0.6350  0.0891 -0.6861
 5066TIP3    H139393   0.263   2.743  20.199  1.2611  0.5561 -0.9422
 5066TIP3    H239394   0.219   2.838  20.090 -0.6810  0.0031 -0.6811
 5067TIP3   OH239395   4.832   6.627  20.749  0.3463  0.5173 -0.3258
 5067TIP3    H139396   4.785   6.592  20.825  1.7071  1.0708  0.8051
 5067TIP3    H239397   4.780   6.598  20.674 -0.0246 -1.6510  0.6961
 5068TIP3   OH239398   0.065   6.574  19.946  0.6182 -0.0125  0.2268
 5068TIP3    H139399   0.053   6.479  19.947 -1.4240  0.1754 -1.1816
 5068TIP3    H239400  -0.018   6.610  19.977  0.1830  1.3226 -2.2454
 5069TIP3   OH239401   1.035   3.894  20.364  0.5658 -0.4182  0.4129
 5069TIP3    H139402   0.960   3.885  20.305  0.8348 -1.2971  0.1954
 5069TIP3    H239403   1.080   3.972  20.333 -0.6483  0.5729  1.0075
 5070TIP3   OH239404   1.837   0.539  20.681 -0.0378  0.0551 -0.3277
 5070TIP3    H139405   1.764   0.598  20.700  0.7381  0.3662  1.9348
 5070TIP3    H239406   1.915   0.593  20.693  0.6341 -0.9319 -0.1990
 5071TIP3   OH239407   0.780   3.306  20.642  0.4776 -0.3390  0.7925
 5071TIP3    H139408   0.741   3.239  20.698  1.2234  0.6704  2.6125
 5071TIP3    H239409   0.742   3.291  20.556 -0.9559 -1.7796  1.6313
 5072TIP3   OH239410   4.838   2.790  18.235 -0.0856  0.0647  0.3998
 5072TIP3    H139411   4.844   2.881  18.263 -1.4768  0.5386 -0.7344
 5072TIP3    H239412   4.796   2.745  18.308 -0.9125  0.6838  0.3262
 5073TIP3   OH239413   0.979   3.962  20.695  0.5234  0.2681 -0.5185
 5073TIP3    H139414   0.951   4.045  20.734  0.5160 -1.6604  4.2570
 5073TIP3    H239415   0.902   3.906  20.701  1.5956 -1.1899  0.1181
 5074TIP3   OH239416   1.155   0.478  19.959 -0.1482 -0.4945 -0.4572
 5074TIP3    H139417   1.165   0.483  19.864  0.2295 -0.8053 -0.4354
 5074TIP3    H239418   1.062   0.492  19.974 -0.3170 -1.0948 -0.9211
 5075TIP3   OH239419   6.264   1.583  18.818 -0.2369  0.0154  0.5148
 5075TIP3    H139420   6.199   1.614  18.756 -1.8465 -1.9659  1.1071
 5075TIP3    H239421   6.219   1.585  18.903  0.6855 -0.7510  1.0409
 5076TIP3   OH239422   0.677   1.627  18.133  0.1635 -0.2667  0.0942
 5076TIP3    H139423   0.611   1.633  18.203  0.6836 -0.0206  0.5656
 5076TIP3    H239424   0.760   1.618  18.179  0.3508 -1.9114 -0.5037
 5077TIP3   OH239425   5.985   3.174  19.956  0.4317  0.1552 -0.4691
 5077TIP3    H139426   5.994   3.100  20.016 -0.2259  0.5281  0.1128
 5077TIP3    H239427   6.075   3.201  19.937  0.7108  1.7868  2.6037
 5078TIP3   OH239428   0.108   6.747  17.874  0.0035  0.4791 -0.0115
 5078TIP3    H139429   0.120   6.730  17.780  0.0162 -0.7015  0.1805
 5078TIP3    H239430   0.013   6.741  17.887 -0.0306  1.0052 -0.0075
 5079TIP3   OH239431   0.241   0.705  19.973  0.4665  0.1313  0.1810
 5079TIP3    H139432   0.236   0.800  19.963 -0.6592 -0.0240 -0.9253
 5079TIP3    H239433   0.215   0.671  19.887 -0.7561 -1.2001  1.0466
 5080TIP3   OH239434   3.091   6.335  17.942  0.0063 -0.0209  0.0153
 5080TIP3    H139435   3.055   6.284  17.869  1.2805 -0.1592 -0.5361
 5080TIP3    H239436   3.017   6.390  17.971 -0.4843  0.1794 -1.5034
 5081TIP3   OH239437   2.569   3.395  18.139  0.2771 -0.0172 -0.3457
 5081TIP3    H139438   2.596   3.472  18.188  1.2434 -0.3764 -0.2803
 5081TIP3    H239439   2.553   3.427  18.050  0.7969  0.2476 -0.3486
 5082TIP3   OH239440   4.232   1.213  17.891  0.5626 -0.3168 -0.2915
 5082TIP3    H139441   4.322   1.245  17.885  0.1949  0.8263  0.0112
 5082TIP3    H239442   4.205   1.200  17.800  0.8170  0.0064 -0.4162
 5083TIP3   OH239443   5.022   6.065  20.743  0.4384 -0.3409 -0.1305
 5083TIP3    H139444   5.112   6.035  20.751  0.5196 -0.1354 -0.2795
 5083TIP3    H239445   4.973   6.009  20.804  0.4635 -1.3117 -0.9777
 5084TIP3   OH239446   5.839   1.238  20.480  0.4019  0.6089 -0.3911
 5084TIP3    H139447   5.827   1.206  20.391 -2.2257 -1.1257  0.4583
 5084TIP3    H239448   5.883   1.166  20.525 -1.4650 -0.0670  0.4679
 5085TIP3   OH239449   2.577   2.501  19.294  0.0426  0.5430  0.2941
 5085TIP3    H139450   2.639   2.538  19.356 -0.0755  1.4213 -0.0926
 5085TIP3    H239451   2.491   2.531  19.325 -0.0001  1.1963 -0.4098
 5086TIP3   OH239452   1.354   1.985  18.885  0.0855 -0.4297  0.4323
 5086TIP3    H139453   1.343   1.909  18.828  2.1902  0.4386 -1.3176
 5086TIP3    H239454   1.268   1.999  18.923 -1.0934 -1.9625 -1.4380
 5087TIP3   OH239455   5.552   1.012  17.603  0.6244 -1.0654 -0.0111
 5087TIP3    H139456   5.558   0.919  17.580 -0.9677 -1.4930  1.1465
 5087TIP3    H239457   5.593   1.018  17.689 -2.7853 -1.5563  1.8292
 5088TIP3   OH239458   1.655   2.263  17.552  0.2569  0.1416  0.5238
 5088TIP3    H139459   1.608   2.215  17.484 -1.5854  2.8827 -0.2825
 5088TIP3    H239460   1.736   2.292  17.510  1.1701 -1.6752  0.8840
 5089TIP3   OH239461   2.087   0.814  17.938  0.2766  0.4102  0.4853
 5089TIP3    H139462   2.034   0.886  17.972 -1.3686 -0.8934  0.8042
 5089TIP3    H239463   2.051   0.795  17.852  1.2784  0.5295  0.0209
 5090TIP3   OH239464   4.151   0.369  18.555 -0.0126 -0.5809 -0.1890
 5090TIP3    H139465   4.239   0.399  18.578  0.0606 -0.9942  0.0658
 5090TIP3    H239466   4.095   0.445  18.572  0.6354  0.6010 -2.8693
 5091TIP3   OH239467   1.961   4.048  19.814  0.2783 -0.3090  0.0085
 5091TIP3    H139468   1.875   4.023  19.780 -1.1131  1.0837  2.3074
 5091TIP3    H239469   2.019   3.978  19.783 -1.8018 -1.7318 -0.9308
 5092TIP3   OH239470   4.095   5.517  19.127  0.3113 -0.1991 -0.9282
 5092TIP3    H139471   4.012   5.559  19.105 -0.9982 -2.6726 -0.9445
 5092TIP3    H239472   4.126   5.564  19.205 -0.6372  1.2886 -1.3942
 5093TIP3   OH239473   2.157   0.986  18.274 -0.2242 -0.2407  0.4983
 5093TIP3    H139474   2.120   0.898  18.281 -0.6929 -0.2067 -1.0852
 5093TIP3    H239475   2.184   0.994  18.182  0.6386  0.9484  0.8260
 5094TIP3   OH239476   6.463   5.336  20.391 -0.2455  0.7505  0.5245
 5094TIP3    H139477   6.433   5.427  20.388 -1.5240  0.3438  0.3135
 5094TIP3    H239478   6.508   5.322  20.308 -2.1227  0.5478 -0.5398
 5095TIP3   OH239479   4.493   2.661  18.766 -0.1418 -0.2362 -0.5398
 5095TIP3    H139480   4.439   2.593  18.805  1.2331 -0.4707  1.0544
 5095TIP3    H239481   4.466   2.742  18.810 -0.9215  0.0783 -1.5589
 5096TIP3   OH239482   0.175   6.679  17.623 -0.3988 -0.2736 -0.1739
 5096TIP3    H139483   0.121   6.671  17.545  0.0687 -0.8716 -0.4492
 5096TIP3    H239484   0.255   6.631  17.602  2.1686  4.0056 -1.3786
 5097TIP3   OH239485   2.575   3.874  18.576  0.1110  0.6001 -0.9432
 5097TIP3    H139486   2.521   3.954  18.573 -0.6303  0.2500  1.0916
 5097TIP3    H239487   2.511   3.803  18.573  0.6259  0.1248 -0.6975
 5098TIP3   OH239488   0.499   0.505  19.715 -0.2741  0.2375  0.1221
 5098TIP3    H139489   0.525   0.597  19.725  2.1580  0.0581 -2.9895
 5098TIP3    H239490   0.408   0.509  19.686 -0.6642  1.5336  1.3961
 5099TIP3   OH239491   3.573   1.481  19.588  0.2379  0.1354  0.1267
 5099TIP3    H139492   3.603   1.553  19.532 -0.3476 -1.4022 -2.2675
 5099TIP3    H239493   3.651   1.428  19.602 -0.1922 -1.1081 -1.8486
 5100TIP3   OH239494   6.587   1.552  19.147  0.2085 -0.3675 -0.0125
 5100TIP3    H139495   6.618   1.546  19.237  1.7280  2.0250 -0.2775
 5100TIP3    H239496   6.492   1.561  19.154  0.3291 -0.0072  1.3640
 5101TIP3   OH239497   3.825   1.863  18.979  0.7241 -0.1764 -0.1705
 5101TIP3    H139498   3.770   1.935  19.012  2.0752  0.0197  1.8393
 5101TIP3    H239499   3.821   1.797  19.048  1.7899 -0.8014 -0.6803
 5102TIP3   OH239500   5.228   3.125  20.149  0.2253  0.2124  0.1411
 5102TIP3    H139501   5.183   3.083  20.077  1.7452 -0.1631 -0.6300
 5102TIP3    H239502   5.226   3.219  20.128  1.4307  0.0365 -0.8955
 5103TIP3   OH239503   4.003   1.446  17.975 -0.4439 -0.4503  0.2409
 5103TIP3    H139504   3.983   1.376  18.037 -1.5416 -2.3094 -2.0828
 5103TIP3    H239505   3.928   1.448  17.916  0.9643  0.6083 -1.6060
 5104TIP3   OH239506   3.370   5.553  20.383  0.7230  0.5368  0.0628
 5104TIP3    H139507   3.384   5.578  20.292  0.5899 -0.1813 -0.1596
 5104TIP3    H239508   3.441   5.491  20.402  0.3121  0.1050  0.2096
 5105TIP3   OH239509   0.765   2.005  18.731  0.2861  0.1290 -0.5632
 5105TIP3    H139510   0.824   2.079  18.718  0.1055  0.2871 -0.5029
 5105TIP3    H239511   0.709   2.033  18.804  0.4197 -0.1943 -0.3369
 5106TIP3   OH239512   2.472   0.507  17.108  0.3880 -0.5209  0.5390
 5106TIP3    H139513   2.382   0.539  17.106 -0.1121 -1.8587  0.5082
 5106TIP3    H239514   2.467   0.424  17.156  1.6427 -0.5136  0.7206
 5107TIP3   OH239515   0.937   1.599  17.217  0.3269  0.2063 -0.0328
 5107TIP3    H139516   0.925   1.541  17.141 -0.2345  0.5237 -0.1873
 5107TIP3    H239517   0.849   1.630  17.238  0.6696  1.3370 -0.2107
 5108TIP3   OH239518   4.400   2.191  18.276  0.8514 -0.3290 -0.6003
 5108TIP3    H139519   4.453   2.262  18.239  1.1329 -0.1729  0.0857
 5108TIP3    H239520   4.444   2.168  18.358 -0.8412  0.7041  0.6674
 5109TIP3   OH239521   2.972   2.714  17.982 -0.1426 -0.3738 -0.4258
 5109TIP3    H139522   2.961   2.724  17.887 -2.0848 -2.5198 -0.5160
 5109TIP3    H239523   2.941   2.625  18.000 -2.2231  0.8389  2.5738
 5110TIP3   OH239524   5.590   5.054  18.319 -0.0710 -0.1063 -0.0306
 5110TIP3    H139525   5.579   4.963  18.347  0.3745 -0.1255  0.0852
 5110TIP3    H239526   5.508   5.097  18.344  0.4831 -0.0128  1.7366
 5111TIP3   OH239527   6.293   5.553  20.266 -0.0537  0.2842  0.1550
 5111TIP3    H139528   6.245   5.471  20.281 -0.8577 -0.0561 -3.2792
 5111TIP3    H239529   6.225   5.618  20.253  0.4625  0.6902 -0.6375
 5112TIP3   OH239530   2.932   5.257  18.168  0.1542 -0.5412 -0.0704
 5112TIP3    H139531   2.967   5.178  18.126 -0.9969  0.5032 -3.3924
 5112TIP3    H239532   2.838   5.239  18.177  0.0956 -0.0487  0.3212
 5113TIP3   OH239533   5.589   5.087  18.898 -0.3687 -0.0730 -0.0374
 5113TIP3    H139534   5.650   5.142  18.850 -1.2563 -0.0021 -1.1274
 5113TIP3    H239535   5.639   5.009  18.920 -0.2746 -0.7297 -2.3191
 5114TIP3   OH239536   0.201   5.326  17.502  0.3542  0.1146  1.0929
 5114TIP3    H139537   0.211   5.374  17.420 -0.8008  0.0770  0.9173
 5114TIP3    H239538   0.265   5.256  17.497 -1.1881 -1.2387 -0.7903
 5115TIP3   OH239539   5.215   1.444  20.112  0.3311  0.2434  0.3068
 5115TIP3    H139540   5.288   1.416  20.167 -0.0490 -1.2733  0.0831
 5115TIP3    H239541   5.153   1.485  20.173  0.7368  0.2686  0.7077
 5116TIP3   OH239542   6.380   0.064  20.363  0.5892 -0.2026 -0.5696
 5116TIP3    H139543   6.463   0.032  20.329  1.1045 -0.2235  0.6420
 5116TIP3    H239544   6.316  -0.003  20.339  1.2971 -1.1941  0.2122
 5117TIP3   OH239545   0.699   4.970  19.276  0.3562  0.4945 -0.0666
 5117TIP3    H139546   0.710   4.930  19.362 -1.5368 -1.0467 -0.4764
 5117TIP3    H239547   0.647   5.049  19.292  1.5494  1.2172  0.3792
 5118TIP3   OH239548   5.250   3.934  19.569 -0.1959  0.1441  0.0340
 5118TIP3    H139549   5.178   3.989  19.537 -0.0713  0.6256  0.5547
 5118TIP3    H239550   5.311   3.930  19.497  0.1114  1.2674  0.2087
 5119TIP3   OH239551   3.645   6.100  19.837  0.0933  0.0558  0.4368
 5119TIP3    H139552   3.565   6.132  19.795 -0.1218  0.0190  0.8134
 5119TIP3    H239553   3.645   6.141  19.923 -0.3278 -1.1381  1.0283
 5120TIP3   OH239554   0.018   6.004  20.536  0.1788  0.1945  0.1548
 5120TIP3    H139555  -0.027   5.920  20.538 -2.8853  1.6720 -0.4562
 5120TIP3    H239556   0.006   6.035  20.446  0.3165  1.7208  0.6368
 5121TIP3   OH239557   0.442   2.696  17.272 -0.3381  0.2512 -0.5978
 5121TIP3    H139558   0.449   2.614  17.224 -1.9427 -0.9940  1.1609
 5121TIP3    H239559   0.517   2.696  17.331 -1.0041 -0.6487  0.3026
 5122TIP3   OH239560   3.838   6.641  20.610  0.1912  0.1397 -0.2062
 5122TIP3    H139561   3.764   6.664  20.667 -0.0404 -0.1936 -0.3704
 5122TIP3    H239562   3.798   6.595  20.536  0.7856 -2.5016  0.9927
 5123TIP3   OH239563   4.914   6.736  20.222  0.2089  0.1165 -0.5960
 5123TIP3    H139564   4.864   6.766  20.298 -0.1156 -1.8288  0.0041
 5123TIP3    H239565   5.005   6.737  20.250  0.6229  3.5738 -1.6565
 5124TIP3   OH239566   3.147   6.278  19.958 -0.0077 -0.1867  0.2130
 5124TIP3    H139567   3.157   6.372  19.974 -0.1581  0.4452 -2.8133
 5124TIP3    H239568   3.065   6.254  20.001 -0.2967  1.2134  0.4772
 5125TIP3   OH239569   5.241   6.422  19.455 -0.2345 -0.8256  0.3835
 5125TIP3    H139570   5.235   6.327  19.442  2.4384 -1.0575  0.2768
 5125TIP3    H239571   5.230   6.459  19.367 -0.5271 -1.1050  0.3020
 5126TIP3   OH239572   0.453   1.631  17.972  0.2835  0.3047 -0.9626
 5126TIP3    H139573   0.465   1.603  17.881  0.0697  1.4538 -1.3657
 5126TIP3    H239574   0.533   1.604  18.017  0.9036  0.7354 -1.7676
 5127TIP3   OH239575   5.274   2.081  20.275 -0.7228 -0.7135  0.4008
 5127TIP3    H139576   5.228   2.157  20.240 -0.4279 -0.3069  0.8886
 5127TIP3    H239577   5.320   2.114  20.352  0.5640 -1.0704 -0.2015
 5128TIP3   OH239578   1.401   3.436  20.561 -0.2615 -0.1301  0.7237
 5128TIP3    H139579   1.431   3.526  20.548 -0.7193  0.3916  2.8581
 5128TIP3    H239580   1.306   3.443  20.571 -0.4363 -1.0170 -0.1111
 5129TIP3   OH239581   4.485   4.877  17.577 -0.2428 -0.1950 -0.3013
 5129TIP3    H139582   4.462   4.969  17.586  0.5305 -0.0588  0.3439
 5129TIP3    H239583   4.515   4.850  17.664 -1.6823 -1.4164 -0.1370
 5130TIP3   OH239584   4.929   0.407  20.742 -0.0245 -0.0725  0.1732
 5130TIP3    H139585   4.910   0.403  20.648 -2.4552 -0.6996  0.6099
 5130TIP3    H239586   4.896   0.323  20.777 -0.5920  0.7677  1.7784
 5131TIP3   OH239587   2.903   4.720  19.246 -0.2118  0.3257 -0.0965
 5131TIP3    H139588   2.991   4.729  19.209  0.8162  0.1743  2.1079
 5131TIP3    H239589   2.848   4.775  19.191  1.5123  1.4079 -0.8287
 5132TIP3   OH239590   0.395   3.631  18.654  0.0892 -0.2615  0.2928
 5132TIP3    H139591   0.451   3.709  18.647 -0.5042  0.2076  0.6247
 5132TIP3    H239592   0.320   3.661  18.705 -1.5233 -0.2589 -1.9150
 5133TIP3   OH239593   0.220   2.154  20.438  0.2751  0.1219 -0.1013
 5133TIP3    H139594   0.293   2.182  20.383  2.1804 -0.3764  1.9737
 5133TIP3    H239595   0.248   2.176  20.527 -2.8029  1.2608  0.7045
 5134TIP3   OH239596   4.073   5.446  19.648 -0.1737  0.1916 -0.3112
 5134TIP3    H139597   4.093   5.536  19.622 -0.8618  0.3950 -0.1533
 5134TIP3    H239598   4.037   5.405  19.569 -1.5709  0.5967  0.0832
 5135TIP3   OH239599   4.546   5.183  18.471  0.5369  0.5062  0.2881
 5135TIP3    H139600   4.611   5.240  18.511  1.2450  0.7443 -1.1467
 5135TIP3    H239601   4.490   5.241  18.419 -0.2724  0.1929  0.7819
 5136TIP3   OH239602   1.326   0.544  18.164  0.1502 -0.3123 -0.1385
 5136TIP3    H139603   1.251   0.583  18.121 -1.6886 -1.5645  1.7336
 5136TIP3    H239604   1.401   0.569  18.110 -1.3948  2.2641 -1.2458
 5137TIP3   OH239605   1.919   3.264  18.651  0.2382  0.3813 -0.3359
 5137TIP3    H139606   1.829   3.291  18.635  0.3184  1.2877  0.6459
 5137TIP3    H239607   1.917   3.224  18.738  0.3447 -1.8449 -1.2901
 5138TIP3   OH239608   3.357   6.371  20.706 -0.1120 -0.1204 -0.2266
 5138TIP3    H139609   3.435   6.334  20.666  0.1228  0.6075 -0.4525
 5138TIP3    H239610   3.390   6.426  20.777 -0.2883  1.5091 -1.3502
 5139TIP3   OH239611   1.928   1.877  20.318 -0.5926 -0.1118 -0.1929
 5139TIP3    H139612   2.017   1.885  20.353 -0.3298 -1.4152 -0.5349
 5139TIP3    H239613   1.876   1.938  20.371  0.6491  1.2960 -0.5450
 5140TIP3   OH239614   3.475   6.341  20.341 -0.0402  0.3182  0.3110
 5140TIP3    H139615   3.470   6.246  20.351 -1.6573  0.4090  0.6753
 5140TIP3    H239616   3.391   6.366  20.303 -0.6126  1.8314  2.3894
 5141TIP3   OH239617   5.884   3.317  20.240  0.4357  0.9002 -0.5510
 5141TIP3    H139618   5.941   3.252  20.201  0.6720  0.2307  0.8410
 5141TIP3    H239619   5.939   3.395  20.250  1.1483  0.2677  0.7539
 5142TIP3   OH239620   6.590   1.631  19.682  0.5210 -0.0485  0.0470
 5142TIP3    H139621   6.665   1.601  19.734  0.1557 -2.0527 -0.5228
 5142TIP3    H239622   6.522   1.651  19.747  1.3930  1.5027  0.5493
 5143TIP3   OH239623   0.018   3.185  20.476 -0.5068  0.5697 -0.0200
 5143TIP3    H139624   0.070   3.143  20.545  0.5590  3.7755  1.3092
 5143TIP3    H239625   0.014   3.119  20.407  0.8025 -1.7699  1.9489
 5144TIP3   OH239626   3.614   2.333  20.314 -0.3856  0.4156  0.4878
 5144TIP3    H139627   3.707   2.312  20.301 -1.2094 -3.1162 -0.9647
 5144TIP3    H239628   3.607   2.350  20.408  1.7470  0.9702  0.6009
 5145TIP3   OH239629   4.370   2.091  19.924  0.6761 -0.2024 -0.3072
 5145TIP3    H139630   4.429   2.150  19.877  1.1161  1.5930  2.2934
 5145TIP3    H239631   4.300   2.148  19.956 -0.5252 -1.6634 -0.2349
 5146TIP3   OH239632   1.746   0.956  20.823 -0.4665  0.5417  0.2215
 5146TIP3    H139633   1.740   0.923  20.733  0.4996  0.6444  0.1042
 5146TIP3    H239634   1.657   0.951  20.857 -0.6489 -0.5054 -0.3875
 5147TIP3   OH239635   5.865   4.974  17.335 -1.1004 -0.3586  0.0957
 5147TIP3    H139636   5.839   5.011  17.420 -1.1435 -1.1347  0.4292
 5147TIP3    H239637   5.950   5.014  17.316 -2.0864  1.5302 -0.5841
 5148TIP3   OH239638   0.728   3.322  18.985 -0.4163 -0.1463 -0.0090
 5148TIP3    H139639   0.807   3.328  19.039 -0.5546 -0.7627  0.2662
 5148TIP3    H239640   0.708   3.229  18.982 -1.5042  0.0550  0.4484
 5149TIP3   OH239641   1.240   1.013  18.696 -0.7343  0.1218 -0.2523
 5149TIP3    H139642   1.263   1.100  18.729 -0.2137 -0.1937  0.2350
 5149TIP3    H239643   1.266   0.953  18.766 -1.1825 -0.4185 -0.5420
 5150TIP3   OH239644   0.293   0.229  19.491 -0.4189 -0.3045  0.0469
 5150TIP3    H139645   0.315   0.170  19.419  1.1144 -1.0765  1.0744
 5150TIP3    H239646   0.295   0.173  19.569  1.3544  1.0855  1.1055
 5151TIP3   OH239647   3.885   2.223  19.167 -0.3195 -0.2912 -0.2538
 5151TIP3    H139648   3.817   2.196  19.105  0.2200 -1.3321 -0.4106
 5151TIP3    H239649   3.956   2.161  19.153  1.4955  1.9268 -1.4462
 5152TIP3   OH239650   4.383   0.692  19.686  0.0817 -0.4643 -0.3942
 5152TIP3    H139651   4.351   0.717  19.772  1.3335 -0.7625  0.1854
 5152TIP3    H239652   4.452   0.756  19.666  0.2315 -0.7696 -0.8909
 5153TIP3   OH239653   6.120   3.066  18.678 -0.0331 -0.3863  0.1133
 5153TIP3    H139654   6.132   3.022  18.594 -1.4482  0.9419 -0.8550
 5153TIP3    H239655   6.169   3.148  18.669 -0.8968  0.1578  0.2135
 5154TIP3   OH239656   3.811   1.687  20.184  0.8239 -0.3753 -0.1017
 5154TIP3    H139657   3.786   1.760  20.240 -0.8024 -0.3081 -0.8473
 5154TIP3    H239658   3.819   1.613  20.244  0.8747  0.0701  0.4496
 5155TIP3   OH239659   5.834   0.334  19.151  0.2289  0.0637 -0.5775
 5155TIP3    H139660   5.875   0.256  19.113  0.1174 -0.0877 -0.3835
 5155TIP3    H239661   5.805   0.385  19.075  2.6557  1.2270 -0.8423
 5156TIP3   OH239662   2.272   6.636  19.578 -0.0041 -0.0752 -0.2204
 5156TIP3    H139663   2.311   6.679  19.654 -0.2481 -0.0769 -0.0920
 5156TIP3    H239664   2.179   6.629  19.600  0.3739 -3.0407  0.9353
 5157TIP3   OH239665   3.002   2.970  19.549  0.0542  0.3607  0.2459
 5157TIP3    H139666   2.979   3.034  19.481 -1.3774  0.8718  1.1582
 5157TIP3    H239667   3.048   2.901  19.502 -2.2128 -0.0571 -1.5637
 5158TIP3   OH239668   2.668   5.270  19.918 -0.3743 -0.0201  0.1061
 5158TIP3    H139669   2.684   5.179  19.891  2.5171  0.1491  0.8421
 5158TIP3    H239670   2.717   5.322  19.855 -1.7623  1.0420 -0.1274
 5159TIP3   OH239671   4.645   2.965  20.127 -0.1309 -0.1429 -0.0683
 5159TIP3    H139672   4.605   3.015  20.055 -1.1814  0.0718  0.6409
 5159TIP3    H239673   4.625   2.874  20.107 -1.0428 -0.0339  0.3018
 5160TIP3   OH239674   4.938   3.306  20.196 -0.6050 -0.2977  0.2324
 5160TIP3    H139675   5.030   3.296  20.173 -0.7496 -2.1914  0.2856
 5160TIP3    H239676   4.937   3.313  20.292 -0.5610 -1.4751  0.3361
 5161TIP3   OH239677   2.235   4.309  20.317  0.7843 -0.3506 -0.6841
 5161TIP3    H139678   2.226   4.353  20.232  1.0276 -1.9015 -1.5352
 5161TIP3    H239679   2.150   4.322  20.359  0.0511 -0.9993 -1.8862
 5162TIP3   OH239680   3.935   0.105  20.110 -0.0814  0.0401  0.6331
 5162TIP3    H139681   3.977   0.039  20.054 -0.9191  0.9504 -1.1321
 5162TIP3    H239682   4.005   0.167  20.130 -0.3495  1.2687 -1.8714
 5163TIP3   OH239683   4.940   0.535  19.581 -0.0765 -0.7963  0.3277
 5163TIP3    H139684   5.007   0.493  19.527  1.8105  1.5172  0.7182
 5163TIP3    H239685   4.965   0.627  19.583 -1.3973 -0.3911  3.2292
 5164TIP3   OH239686   6.687   1.621  17.943  0.0433 -0.2626  0.4094
 5164TIP3    H139687   6.603   1.576  17.943 -0.4317  0.5756  1.2291
 5164TIP3    H239688   6.723   1.605  18.031  2.1728 -3.1102 -0.8449
 5165TIP3   OH239689   6.318   2.171  18.321  0.8222 -0.2612 -0.1744
 5165TIP3    H139690   6.404   2.202  18.293  1.6675 -2.5864 -0.3766
 5165TIP3    H239691   6.279   2.134  18.241 -1.3353  2.5301 -0.6066
 5166TIP3   OH239692   4.567   6.049  18.435 -0.1183  0.5138  0.1091
 5166TIP3    H139693   4.595   5.957  18.434 -0.8472  0.2896 -0.3502
 5166TIP3    H239694   4.649   6.098  18.433  0.4667 -0.0630  3.5157
 5167TIP3   OH239695   6.189   0.985  20.189 -0.2127  0.2421  0.4628
 5167TIP3    H139696   6.186   0.909  20.131 -0.8828  1.7533 -1.6256
 5167TIP3    H239697   6.102   0.987  20.230 -0.6027  0.5230 -0.3664
 5168TIP3   OH239698   4.296   6.301  18.105 -0.7000  0.2885  0.1941
 5168TIP3    H139699   4.320   6.219  18.149 -0.8520  0.1955  0.1032
 5168TIP3    H239700   4.229   6.340  18.161 -0.7209  0.2872  0.1704
 5169TIP3   OH239701   4.086   5.236  18.472  0.1385 -0.1471 -0.1663
 5169TIP3    H139702   4.009   5.278  18.434 -0.0729  0.5987  1.0269
 5169TIP3    H239703   4.160   5.290  18.442 -0.0008  0.2778  0.2342
 5170TIP3   OH239704   0.235   3.173  19.904  0.0215 -0.1847  0.2174
 5170TIP3    H139705   0.201   3.197  19.991 -0.1425 -0.1542  0.1458
 5170TIP3    H239706   0.177   3.218  19.843  1.0048  0.9592  0.0988
 5171TIP3   OH239707   5.365   6.254  19.990  0.2078  0.0191 -0.2559
 5171TIP3    H139708   5.392   6.255  19.899 -0.6842  0.0537 -0.5282
 5171TIP3    H239709   5.412   6.327  20.030  0.5667  0.0293 -0.6938
 5172TIP3   OH239710   2.008   5.033  20.310 -0.4257  0.6031 -0.5090
 5172TIP3    H139711   1.949   5.006  20.381 -1.4197  2.9505 -0.3640
 5172TIP3    H239712   2.073   4.963  20.306 -1.5931 -0.6821  1.2375
 5173TIP3   OH239713   1.833   0.336  20.860 -0.2912  0.8259  0.3426
 5173TIP3    H139714   1.839   0.407  20.795  0.2772  0.6855  0.2328
 5173TIP3    H239715   1.740   0.331  20.882 -0.3367  1.6205  0.3636
 5174TIP3   OH239716   3.821   0.189  18.033  0.1806 -0.4081 -0.3481
 5174TIP3    H139717   3.819   0.284  18.026 -0.1025 -0.3201  0.8035
 5174TIP3    H239718   3.739   0.160  17.994 -0.1837 -0.1095  0.1851
 5175TIP3   OH239719   3.878   4.823  17.349  0.0519 -0.0389 -0.3679
 5175TIP3    H139720   3.935   4.848  17.422  1.7136 -1.7247 -1.0445
 5175TIP3    H239721   3.932   4.830  17.271 -0.9090 -0.8629 -1.1426
 5176TIP3   OH239722   4.253   5.393  17.593 -0.5754  0.0093  0.1569
 5176TIP3    H139723   4.173   5.446  17.591  0.2109  1.1878 -1.0595
 5176TIP3    H239724   4.260   5.357  17.505 -0.9239 -1.9413  0.8624
 5177TIP3   OH239725   1.555   0.938  17.208 -0.0633  0.3714 -0.2379
 5177TIP3    H139726   1.604   0.929  17.126  0.8749 -1.8928  0.4866
 5177TIP3    H239727   1.622   0.963  17.273 -0.2953 -0.3560  0.2975
 5178TIP3   OH239728   0.111   0.838  16.750 -0.2080 -0.1859  0.3566
 5178TIP3    H139729   0.032   0.848  16.804 -0.2938 -2.2870  0.7266
 5178TIP3    H239730   0.183   0.844  16.813 -0.0338  1.7707  0.0126
 5179TIP3   OH239731   4.677   2.437  18.591 -0.0114 -0.7556  0.6453
 5179TIP3    H139732   4.587   2.428  18.558  0.6656  0.1056 -1.6016
 5179TIP3    H239733   4.687   2.364  18.652 -2.2267 -0.8596  0.9838
 5180TIP3   OH239734   3.877   4.999  20.430 -0.2943 -0.0062 -0.2613
 5180TIP3    H139735   3.871   5.071  20.493 -0.3934 -0.9408  0.8417
 5180TIP3    H239736   3.957   5.017  20.381 -0.1003  0.6457  0.2704
 5181TIP3   OH239737   3.268   3.521  17.428  0.3177 -0.2516 -0.1890
 5181TIP3    H139738   3.246   3.551  17.516 -0.3443 -1.8144  0.2218
 5181TIP3    H239739   3.251   3.596  17.372  2.2853  1.3178  1.1703
 5182TIP3   OH239740   3.713   5.697  19.733 -0.3247  0.1801 -0.0069
 5182TIP3    H139741   3.642   5.706  19.670 -0.9727  0.0950  0.7004
 5182TIP3    H239742   3.710   5.605  19.760 -0.4568  0.3658  0.6212
 5183TIP3   OH239743   0.973   2.578  18.713 -0.0385  0.5997 -0.1321
 5183TIP3    H139744   1.000   2.633  18.788  2.3960 -0.0603 -0.4207
 5183TIP3    H239745   1.038   2.598  18.646 -0.4054 -1.0426 -1.0036
 5184TIP3   OH239746   1.003   4.301  20.556 -0.7316  0.4873 -0.3881
 5184TIP3    H139747   1.042   4.388  20.564 -0.0856  0.1129  0.8569
 5184TIP3    H239748   1.015   4.278  20.464  0.2827  1.1887 -0.4536
 5185TIP3   OH239749   5.007   0.669  17.278  0.0735 -0.2598 -0.2510
 5185TIP3    H139750   5.079   0.723  17.245  1.2261 -1.0962  0.7712
 5185TIP3    H239751   5.049   0.587  17.304 -1.2133 -0.6804  0.6077
 5186TIP3   OH239752   2.027   0.960  18.650 -0.0541 -0.1124 -0.6506
 5186TIP3    H139753   1.943   0.921  18.625 -0.8146  0.2693  1.1302
 5186TIP3    H239754   2.017   1.053  18.632 -0.3477  0.0556  0.2786
 5187TIP3   OH239755   3.014   5.468  19.086  0.2161  0.1697 -0.8092
 5187TIP3    H139756   3.021   5.392  19.144 -2.4321 -1.3627 -2.3088
 5187TIP3    H239757   3.098   5.469  19.039  0.4782 -1.6150 -0.4833
 5188TIP3   OH239758   0.450   1.373  19.058 -0.8181  0.4452 -0.3596
 5188TIP3    H139759   0.369   1.416  19.031 -0.9607  0.7992  0.5938
 5188TIP3    H239760   0.506   1.445  19.089 -1.2539 -0.0662  1.7430
 5189TIP3   OH239761   1.140   0.923  20.657 -0.8451  0.5015 -0.0342
 5189TIP3    H139762   1.069   0.907  20.595 -1.0141 -0.5331  0.4150
 5189TIP3    H239763   1.100   0.914  20.743 -0.5230  1.5469  0.2402
 5190TIP3   OH239764   1.388   4.433  19.726  0.5277 -0.3551 -0.4023
 5190TIP3    H139765   1.473   4.391  19.737  1.1793  0.9446 -0.1970
 5190TIP3    H239766   1.400   4.520  19.764 -0.3354  0.5185 -2.0260
 5191TIP3   OH239767   0.143   0.421  19.411  0.4820  0.1055  0.6185
 5191TIP3    H139768   0.173   0.487  19.473  0.9604 -0.7039  1.2894
 5191TIP3    H239769   0.203   0.347  19.424  0.2196 -0.3131 -0.3889
 5192TIP3   OH239770   1.514   6.409  19.737  0.6549  0.2548 -0.3496
 5192TIP3    H139771   1.485   6.493  19.773 -3.7721 -0.8531 -0.8026
 5192TIP3    H239772   1.503   6.419  19.643  0.1329 -0.8114 -0.4073
 5193TIP3   OH239773   0.001   5.696  20.233  0.3004 -0.0367  0.8417
 5193TIP3    H139774  -0.089   5.663  20.235  0.3886 -0.3007  0.5323
 5193TIP3    H239775  -0.008   5.791  20.227  0.0161 -0.1466 -1.0102
 5194TIP3   OH239776   3.927   2.302  17.571 -0.5326  0.2036  0.1088
 5194TIP3    H139777   3.846   2.320  17.523 -1.0595 -0.8578  0.5865
 5194TIP3    H239778   3.995   2.306  17.504 -1.2347 -1.0194 -0.7177
 5195TIP3   OH239779   1.788   1.419  20.602  0.3364 -0.5275  0.5713
 5195TIP3    H139780   1.703   1.380  20.622 -0.3175 -0.2062 -1.2920
 5195TIP3    H239781   1.839   1.410  20.682 -1.2408 -1.3025  1.5365
 5196TIP3   OH239782   1.223   5.270  18.218 -0.4049 -0.0813  0.1630
 5196TIP3    H139783   1.158   5.270  18.147 -0.6673 -4.8621  0.0404
 5196TIP3    H239784   1.307   5.272  18.173 -0.5540 -0.4635 -0.1449
 5197TIP3   OH239785   0.560   0.291  18.583  0.2952 -0.2516  0.6821
 5197TIP3    H139786   0.532   0.373  18.623 -1.1349 -1.1209  1.5194
 5197TIP3    H239787   0.495   0.226  18.611  0.5028 -1.3633 -1.2141
 5198TIP3   OH239788   1.519   5.605  18.926 -0.0142  0.0092  0.6833
 5198TIP3    H139789   1.499   5.680  18.982  1.3378  1.6819 -0.9374
 5198TIP3    H239790   1.607   5.578  18.952  0.0112 -0.1860  0.4065
 5199TIP3   OH239791   3.570   3.629  19.205  0.4752  0.1367 -0.2200
 5199TIP3    H139792   3.610   3.703  19.248 -3.2286  3.9968 -2.6158
 5199TIP3    H239793   3.514   3.589  19.272  0.4696  1.2590  0.4602
 5200TIP3   OH239794   4.444   6.152  18.637 -0.3305 -0.5076  0.3802
 5200TIP3    H139795   4.522   6.136  18.584  0.2898  1.8719  0.4417
 5200TIP3    H239796   4.458   6.239  18.674 -2.9771 -0.0225  0.4446
 5201TIP3   OH239797   6.737   3.997  17.984  0.4222  0.1016  0.5546
 5201TIP3    H139798   6.832   3.985  17.986  0.4393  0.2771  1.8289
 5201TIP3    H239799   6.705   3.925  17.929  1.2664 -0.1035  0.3146
 5202TIP3   OH239800   1.918   6.616  18.919  0.2786  0.6078 -0.0697
 5202TIP3    H139801   1.991   6.555  18.926  1.1680  1.6863  0.2567
 5202TIP3    H239802   1.901   6.623  18.825 -0.2076 -0.5529 -0.0833
 5203TIP3   OH239803   5.188   2.177  19.327  0.3696  0.5893 -0.3992
 5203TIP3    H139804   5.229   2.263  19.338 -1.0989  1.2633 -0.0315
 5203TIP3    H239805   5.262   2.117  19.322  1.4137  1.6367  1.2722
 5204TIP3   OH239806   0.456   3.493  19.814 -0.2319  0.8731 -0.1520
 5204TIP3    H139807   0.545   3.477  19.783  1.1574  4.5535  1.3281
 5204TIP3    H239808   0.442   3.587  19.800 -3.6534  0.5817  0.3359
 5205TIP3   OH239809   1.595   0.919  19.389  0.2386 -0.1370  0.0359
 5205TIP3    H139810   1.684   0.934  19.421  0.1509  1.0595 -0.2337
 5205TIP3    H239811   1.596   0.952  19.299 -0.4247 -0.2906 -0.0288
 5206TIP3   OH239812   3.320   0.558  19.123  0.4368  0.1504 -0.1159
 5206TIP3    H139813   3.247   0.505  19.156  0.7811 -0.6051 -0.5367
 5206TIP3    H239814   3.310   0.643  19.166 -0.6175  0.0148 -0.0686
 5207TIP3   OH239815   2.699   2.982  20.299  0.3257 -0.3190  0.4867
 5207TIP3    H139816   2.695   3.077  20.287 -0.5266 -0.5040 -0.8283
 5207TIP3    H239817   2.789   2.965  20.325  1.4295  0.5146 -2.4920
 5208TIP3   OH239818   5.892   5.932  18.897 -0.2065  0.2803 -0.2566
 5208TIP3    H139819   5.969   5.988  18.887  0.7204 -0.6263  1.4303
 5208TIP3    H239820   5.836   5.979  18.958  0.4348 -0.4492  0.9236
 5209TIP3   OH239821   3.722   1.596  19.203 -1.1994 -0.5487  0.0418
 5209TIP3    H139822   3.702   1.508  19.172 -0.1688 -0.4889 -0.8966
 5209TIP3    H239823   3.795   1.584  19.264  1.2520 -0.1352 -2.5938
 5210TIP3   OH239824   0.429   2.770  17.561  0.1565 -0.3702 -0.5105
 5210TIP3    H139825   0.496   2.714  17.602  1.3705  0.7982 -0.8016
 5210TIP3    H239826   0.411   2.837  17.627 -0.6043 -0.5759 -0.5069
 5211TIP3   OH239827   4.977   6.383  19.856  0.5335  0.3781 -0.0544
 5211TIP3    H139828   5.002   6.433  19.777  0.7987  0.5760  0.1505
 5211TIP3    H239829   4.927   6.446  19.908  1.4506  0.6512  0.5199
 5212TIP3   OH239830   1.909   0.775  19.946  0.1269  0.1276 -0.7806
 5212TIP3    H139831   1.962   0.705  19.907  0.8249 -2.3194  3.7864
 5212TIP3    H239832   1.969   0.818  20.007 -1.4619  1.8978 -0.3952
 5213TIP3   OH239833   1.877   3.321  20.055  0.5708  0.2392  0.6080
 5213TIP3    H139834   1.869   3.361  20.141  0.4122 -0.4596  0.9221
 5213TIP3    H239835   1.954   3.362  20.016 -0.3369  1.8197  0.3876
 5214TIP3   OH239836   4.001   4.959  18.505 -0.6486  0.2103 -0.6204
 5214TIP3    H139837   4.042   5.045  18.510  0.2732 -0.2820  3.6541
 5214TIP3    H239838   4.031   4.924  18.421  1.4657  2.8644 -1.1182
 5215TIP3   OH239839   0.091   0.980  19.468  0.1877 -0.4407 -0.0222
 5215TIP3    H139840   0.081   1.043  19.539 -0.4352 -0.0260 -0.4604
 5215TIP3    H239841   0.004   0.975  19.428  0.5699 -0.5233 -0.8612
 5216TIP3   OH239842   0.347   1.170  19.202  0.3199  0.0616  0.4785
 5216TIP3    H139843   0.259   1.208  19.200 -0.2882 -1.3277 -1.5197
 5216TIP3    H239844   0.392   1.211  19.129  0.3425 -1.4071 -0.3608
 5217TIP3   OH239845   5.194   2.888  20.870 -0.4269 -0.2402 -0.1676
 5217TIP3    H139846   5.252   2.957  20.838  0.2619 -0.4609  0.5818
 5217TIP3    H239847   5.173   2.914  20.960 -2.3579  0.3845 -0.7563
 5218TIP3   OH239848   4.670   5.647  20.626 -0.0247 -0.4760 -0.8576
 5218TIP3    H139849   4.762   5.673  20.622  0.4165 -1.6051  0.8749
 5218TIP3    H239850   4.621   5.730  20.621  1.0868  0.1769 -1.2895
 5219TIP3   OH239851   0.271   5.504  20.353 -0.0907  0.4349 -0.2136
 5219TIP3    H139852   0.194   5.551  20.385 -0.0857  1.0044 -1.0039
 5219TIP3    H239853   0.344   5.566  20.364  0.5244 -0.5414  1.7167
 5220TIP3   OH239854   2.257   4.274  17.605  1.1152 -0.7326 -0.7341
 5220TIP3    H139855   2.202   4.341  17.565  2.0714  0.2530 -0.4186
 5220TIP3    H239856   2.329   4.261  17.544  1.4235 -0.8026 -0.3619
 5221TIP3   OH239857   0.717   0.551  18.794  0.5170  0.2160  0.4643
 5221TIP3    H139858   0.760   0.627  18.833  1.5983 -0.3100  0.3345
 5221TIP3    H239859   0.780   0.479  18.805  0.3478 -0.2229 -1.1403
 5222TIP3   OH239860   0.488   4.125  18.123  0.2716  0.4595 -0.2347
 5222TIP3    H139861   0.509   4.187  18.193  1.5347  0.1098 -0.2733
 5222TIP3    H239862   0.546   4.051  18.139  0.2343  0.1662 -1.3744
 5223TIP3   OH239863   6.350   4.290  17.053 -0.3637 -0.5323  0.0828
 5223TIP3    H139864   6.332   4.322  16.964 -1.3034  1.2565  0.8666
 5223TIP3    H239865   6.442   4.313  17.068 -0.6628  0.6768  0.1549
 5224TIP3   OH239866   2.931   4.185  17.460  0.4992  0.1265 -0.2408
 5224TIP3    H139867   2.927   4.225  17.373  1.4054 -2.3782 -1.5203
 5224TIP3    H239868   3.002   4.232  17.505  0.3394  1.1241 -0.9965
 5225TIP3   OH239869   5.156   2.166  19.614 -0.2248  0.2251 -0.7364
 5225TIP3    H139870   5.166   2.163  19.518 -0.4666 -0.5452 -0.7482
 5225TIP3    H239871   5.063   2.145  19.628 -0.1016 -0.0466 -0.3193
 5226TIP3   OH239872   6.412   5.999  19.205  0.5931 -0.7276 -0.2935
 5226TIP3    H139873   6.357   5.965  19.134 -0.0070  0.3633 -0.3854
 5226TIP3    H239874   6.394   6.093  19.205  0.8078 -0.6709  1.1251
 5227TIP3   OH239875   1.408   5.016  20.006  0.6765 -0.4821  0.4356
 5227TIP3    H139876   1.476   5.000  19.940  0.3803 -2.9130  0.6320
 5227TIP3    H239877   1.327   5.025  19.955  0.9872  1.8182  0.2445
 5228TIP3   OH239878   1.820   6.514  17.848  0.1770 -0.3958 -0.1515
 5228TIP3    H139879   1.878   6.447  17.883 -1.6762 -2.5029 -0.8705
 5228TIP3    H239880   1.754   6.527  17.917  0.2867  0.4093 -0.1884
 5229TIP3   OH239881   2.194   5.088  20.695 -0.4440 -0.3211  0.0822
 5229TIP3    H139882   2.122   5.140  20.660  0.0535  0.7462  0.5997
 5229TIP3    H239883   2.151   5.017  20.744 -1.1291 -0.3965 -0.6023
 5230TIP3   OH239884   1.234   0.196  19.811  0.3670  0.0789 -0.0558
 5230TIP3    H139885   1.271   0.227  19.729 -0.0647 -2.2559 -1.2059
 5230TIP3    H239886   1.250   0.101  19.811  0.4691  0.0128  2.6296
 5231TIP3   OH239887   6.700   2.386  19.199 -0.2186 -0.1791  0.0560
 5231TIP3    H139888   6.636   2.315  19.210 -0.0334 -0.9538 -3.0128
 5231TIP3    H239889   6.785   2.342  19.205 -0.0841 -0.0309 -0.6830
 5232TIP3   OH239890   2.923   2.742  17.373 -0.1363  0.1640  0.6388
 5232TIP3    H139891   2.893   2.653  17.355  0.9629 -0.4685  1.7247
 5232TIP3    H239892   2.869   2.771  17.447  0.1608  0.0049  0.9241
 5233TIP3   OH239893   5.907   2.090  18.238  0.4407 -0.2810  0.6317
 5233TIP3    H139894   5.848   2.020  18.268  0.1246 -0.3073 -0.0225
 5233TIP3    H239895   5.925   2.068  18.147  2.1411 -0.7189  1.0443
 5234TIP3   OH239896   1.230   0.874  18.449  0.1605 -0.0650  0.0961
 5234TIP3    H139897   1.137   0.861  18.467 -0.1530  1.2204 -0.4802
 5234TIP3    H239898   1.252   0.954  18.498  0.8879 -0.2003 -0.0046
 5235TIP3   OH239899   2.915   2.858  20.819 -0.0902 -0.1576 -0.6605
 5235TIP3    H139900   2.944   2.947  20.799 -0.0250  0.3778  1.5651
 5235TIP3    H239901   2.994   2.804  20.812  0.5300  0.4963  0.7993
 5236TIP3   OH239902   5.605   4.014  20.163 -0.1339 -0.0575 -0.0355
 5236TIP3    H139903   5.564   4.096  20.192 -1.0679 -0.4920 -0.0898
 5236TIP3    H239904   5.649   4.037  20.082  0.4463  0.6164  0.4571
 5237TIP3   OH239905   2.619   2.284  18.737 -0.2610 -0.3586  0.0465
 5237TIP3    H139906   2.526   2.298  18.715 -0.1823 -2.6894 -2.2964
 5237TIP3    H239907   2.617   2.219  18.807 -0.3506  0.6920  1.0644
 5238TIP3   OH239908   2.106   3.659  18.765  0.3056 -0.8979  0.0794
 5238TIP3    H139909   2.082   3.571  18.792  0.3788 -0.6126  1.1184
 5238TIP3    H239910   2.200   3.654  18.748  0.1185 -1.2669 -0.9456
 5239TIP3   OH239911   2.937   2.851  20.102  0.1255  0.3607 -0.0892
 5239TIP3    H139912   2.951   2.870  20.009  2.8887 -0.2401  0.1292
 5239TIP3    H239913   2.964   2.930  20.147  2.0631 -0.4810  0.3168
 5240TIP3   OH239914   2.521   1.501  20.043 -0.6610 -0.1260  0.0139
 5240TIP3    H139915   2.553   1.587  20.070 -1.2956  0.5898 -1.4224
 5240TIP3    H239916   2.530   1.501  19.948 -0.1719 -1.8647  0.0393
 5241TIP3   OH239917   2.929   2.095  18.802  0.2127 -0.1398  0.1225
 5241TIP3    H139918   2.843   2.114  18.838 -0.8539  0.0383 -2.2779
 5241TIP3    H239919   2.961   2.021  18.853 -1.6216 -0.5899  0.6961
 5242TIP3   OH239920   6.015   6.436  19.446 -0.1941 -0.1536 -0.4830
 5242TIP3    H139921   6.102   6.475  19.438 -0.0880 -0.3767 -0.4266
 5242TIP3    H239922   5.965   6.499  19.498  0.7607 -1.3128  2.0064
 5243TIP3   OH239923   1.816   3.247  18.076  0.3798 -0.6315 -0.9293
 5243TIP3    H139924   1.768   3.276  17.998  0.1776 -0.6135 -0.7980
 5243TIP3    H239925   1.907   3.271  18.058  0.1786  0.3896 -0.6890
 5244TIP3   OH239926   4.424   0.641  19.186 -0.0054  0.0764 -0.7937
 5244TIP3    H139927   4.429   0.721  19.134 -0.3956  0.3936 -0.3542
 5244TIP3    H239928   4.400   0.671  19.274 -1.3118 -0.6208 -0.8819
 5245TIP3   OH239929   3.928   2.422  18.483  0.0249 -0.2818 -0.2309
 5245TIP3    H139930   3.851   2.442  18.537 -0.7660  1.0247 -1.7500
 5245TIP3    H239931   3.891   2.384  18.403  1.0213 -0.3684 -0.6564
 5246TIP3   OH239932   6.041   1.973  17.199  0.6505  0.2587  0.1816
 5246TIP3    H139933   6.015   1.884  17.222  0.9049  0.5843  1.8062
 5246TIP3    H239934   6.116   1.962  17.141 -0.5057 -0.5973 -1.2352
 5247TIP3   OH239935   0.223   6.130  17.453 -0.4752 -0.0669 -0.5672
 5247TIP3    H139936   0.181   6.044  17.460  0.8265 -0.6793  0.0012
 5247TIP3    H239937   0.305   6.113  17.408 -0.6725  1.0619 -1.3888
 5248TIP3   OH239938   2.619   2.521  17.929  0.3272 -0.5816  0.3433
 5248TIP3    H139939   2.540   2.563  17.964  0.1470 -0.9142  0.3462
 5248TIP3    H239940   2.631   2.559  17.842 -1.1889 -2.1917 -0.6385
 5249TIP3   OH239941   0.308   4.810  20.709  0.6506  0.2273 -0.1951
 5249TIP3    H139942   0.272   4.727  20.680  1.3656 -0.1326 -0.0898
 5249TIP3    H239943   0.236   4.872  20.701  0.3448 -0.2278 -1.0590
 5250TIP3   OH239944   4.002   0.878  20.226 -0.3479 -0.5576  0.4521
 5250TIP3    H139945   3.956   0.850  20.147 -1.0828  2.0591 -0.1587
 5250TIP3    H239946   4.093   0.852  20.212 -0.3990  0.1094 -1.4351
 5251TIP3   OH239947   3.352   4.971  20.364  0.1209 -0.3248  0.0451
 5251TIP3    H139948   3.446   4.960  20.381  0.1550 -0.0096  0.0594
 5251TIP3    H239949   3.339   5.066  20.363 -0.3403 -0.3731  0.7961
 5252TIP3   OH239950   4.542   5.788  19.131  0.6585 -0.5251 -0.1567
 5252TIP3    H139951   4.446   5.795  19.130  0.7040  0.1134 -0.3103
 5252TIP3    H239952   4.572   5.871  19.095  1.3165  0.1024  1.7282
 5253TIP3   OH239953   6.624   1.260  20.102  0.1515 -0.7101 -0.4917
 5253TIP3    H139954   6.563   1.326  20.137  0.3063  0.2410 -1.9222
 5253TIP3    H239955   6.646   1.205  20.177 -0.4203  0.5372  0.6251
 5254TIP3   OH239956   6.298   4.589  18.588 -0.1556 -0.6014  0.8120
 5254TIP3    H139957   6.353   4.633  18.653 -0.8391 -0.7636  1.5113
 5254TIP3    H239958   6.301   4.646  18.511 -0.4959  0.3301  1.4750
 5255TIP3   OH239959   1.634   3.323  18.651  0.2314 -0.3186  0.1488
 5255TIP3    H139960   1.606   3.411  18.676  1.4159 -0.1898  1.0995
 5255TIP3    H239961   1.597   3.266  18.718 -1.1843 -0.6754 -0.8863
 5256TIP3   OH239962   3.562   4.369  20.718 -0.6547 -0.3681 -0.4602
 5256TIP3    H139963   3.649   4.407  20.705 -1.0617 -0.1635 -3.4129
 5256TIP3    H239964   3.514   4.435  20.768 -0.0863  1.1608 -1.8164
 5257TIP3   OH239965   5.720   2.032  17.754 -0.2341  0.1225 -0.4534
 5257TIP3    H139966   5.715   2.058  17.662 -3.0005  1.0756 -0.1500
 5257TIP3    H239967   5.660   1.958  17.761  0.3052 -0.2371  0.4954
 5258TIP3   OH239968   0.017   2.251  18.927  0.1878  0.0957  1.0300
 5258TIP3    H139969   0.059   2.336  18.916 -0.6004  0.2746 -0.8063
 5258TIP3    H239970   0.045   2.200  18.851  0.6001 -1.3025  2.0650
 5259TIP3   OH239971   4.234   2.910  20.471 -0.1741 -0.0379 -0.5375
 5259TIP3    H139972   4.265   2.843  20.532  0.4944  0.3217 -0.4661
 5259TIP3    H239973   4.197   2.861  20.398 -0.5718 -0.4754 -0.0448
 5260TIP3   OH239974   6.712   4.342  18.443  0.4328  0.1087 -0.0217
 5260TIP3    H139975   6.622   4.347  18.411  0.7052  2.1306 -0.6382
 5260TIP3    H239976   6.762   4.307  18.369  0.5635  1.7708 -0.7711
 5261TIP3   OH239977   3.000   3.116  20.779  0.0083  0.1667 -0.2018
 5261TIP3    H139978   3.092   3.116  20.802  0.2837  0.4663 -1.2668
 5261TIP3    H239979   2.960   3.180  20.838 -0.2134 -2.4260  2.7507
 5262TIP3   OH239980   0.295   4.404  17.909 -0.4851  0.5354 -0.4154
 5262TIP3    H139981   0.347   4.325  17.925 -0.0759  0.8193 -0.3494
 5262TIP3    H239982   0.305   4.456  17.989  0.6188  1.4299 -1.1172
 5263TIP3   OH239983   5.565   2.299  20.431 -0.0176 -0.0505 -0.5543
 5263TIP3    H139984   5.640   2.329  20.380 -0.6390  1.7386 -0.4922
 5263TIP3    H239985   5.598   2.289  20.520  0.3316 -0.0566 -0.6842
 5264TIP3   OH239986   3.450   1.655  17.740  0.0616  0.0829 -0.0061
 5264TIP3    H139987   3.440   1.674  17.647  1.1701 -0.5364 -0.2650
 5264TIP3    H239988   3.401   1.724  17.784  1.3490  1.6851 -0.9946
 5265TIP3   OH239989   3.686   3.992  18.374  0.5553 -0.2928 -0.5428
 5265TIP3    H139990   3.736   3.921  18.415  0.1033 -0.2196  0.1527
 5265TIP3    H239991   3.749   4.063  18.364  1.1315 -0.9322 -1.6619
 5266TIP3   OH239992   1.444   1.352  19.085  0.0539 -0.2104  0.5618
 5266TIP3    H139993   1.520   1.321  19.135 -0.6177  0.4621  2.0430
 5266TIP3    H239994   1.398   1.271  19.060  0.5983 -0.5729  0.7044
 5267TIP3   OH239995   4.734   1.319  18.150 -0.4512  0.3812  0.3403
 5267TIP3    H139996   4.811   1.321  18.207 -1.1630  3.6838  1.4135
 5267TIP3    H239997   4.769   1.316  18.062  0.7172 -2.7929  0.7778
 5268TIP3   OH239998   4.217   1.430  19.241 -0.0440  0.6300  0.6224
 5268TIP3    H139999   4.297   1.395  19.202  0.2569  3.2735 -1.4429
 5268TIP3    H240000   4.233   1.429  19.335  1.6555 -0.5563  0.3536
 5269TIP3   OH240001   4.051   2.848  20.820  0.0310  0.0638 -0.5097
 5269TIP3    H140002   4.093   2.794  20.753 -4.1695 -0.8898 -2.7089
 5269TIP3    H240003   4.081   2.937  20.800  1.7320 -0.6190 -1.2119
 5270TIP3   OH240004   4.939   0.396  20.479 -0.0040 -0.4526  0.4621
 5270TIP3    H140005   4.911   0.445  20.402  1.2563  0.4925  0.5677
 5270TIP3    H240006   4.986   0.320  20.444  0.5301 -0.0471  0.2857
 5271TIP3   OH240007   0.938   2.669  17.897 -0.9613 -0.1200 -0.1982
 5271TIP3    H140008   1.034   2.659  17.904 -1.0041 -0.3093  0.1797
 5271TIP3    H240009   0.922   2.683  17.804 -0.5867 -0.3660 -0.3025
 5272TIP3   OH240010   5.543   1.015  19.325 -0.7319  0.1004 -0.1519
 5272TIP3    H140011   5.594   0.958  19.268  0.6706 -0.6335  1.7391
 5272TIP3    H240012   5.607   1.076  19.361 -1.8206  1.4240 -0.3493
 5273TIP3   OH240013   4.612   0.801  17.379  0.3408 -0.2975  0.1193
 5273TIP3    H140014   4.555   0.790  17.303 -1.7777  3.2872  0.9491
 5273TIP3    H240015   4.566   0.758  17.451  1.2897 -1.8098 -0.1356
 5274TIP3   OH240016   0.047   4.587  19.707 -0.0843  0.2592 -0.1018
 5274TIP3    H140017   0.004   4.548  19.631 -0.4831  1.5875 -0.5843
 5274TIP3    H240018   0.078   4.513  19.758 -0.2777 -0.6653 -1.2948
 5275TIP3   OH240019   5.241   0.321  19.757  0.1176 -0.3662 -0.2020
 5275TIP3    H140020   5.319   0.278  19.792  0.5993  0.4844 -0.1954
 5275TIP3    H240021   5.243   0.408  19.795 -1.2135 -0.5480  0.3273
 5276TIP3   OH240022   1.035   2.806  19.286  0.3118  0.0662  0.0143
 5276TIP3    H140023   1.042   2.874  19.219  0.7716 -2.1943 -2.4105
 5276TIP3    H240024   0.941   2.786  19.291  0.2106  0.6279  0.5179
 5277TIP3   OH240025   3.221   4.845  20.588 -0.4411  0.1194  0.7564
 5277TIP3    H140026   3.200   4.793  20.510 -0.9346 -0.7974  1.4716
 5277TIP3    H240027   3.316   4.849  20.589 -0.4125 -0.3412  0.4139
 5278TIP3   OH240028   3.134   1.923  20.564  0.6167  0.1905 -0.1499
 5278TIP3    H140029   3.183   1.841  20.551 -1.2349 -1.1594  0.9178
 5278TIP3    H240030   3.175   1.963  20.642  0.3639 -0.6785  0.4431
 5279TIP3   OH240031   2.278   2.273  20.354  0.1447  0.6649  0.1583
 5279TIP3    H140032   2.322   2.192  20.330 -0.6242 -0.7245  2.9395
 5279TIP3    H240033   2.321   2.341  20.302  1.7389 -1.3238 -1.2731
 5280TIP3   OH240034   1.243   3.307  18.785 -0.4208  0.1183  0.2429
 5280TIP3    H140035   1.207   3.308  18.874 -1.2875  2.7735 -0.0628
 5280TIP3    H240036   1.237   3.398  18.755  1.7157 -0.3296 -1.8233
 5281TIP3   OH240037   1.996   4.321  20.431 -0.1141  0.3279 -0.1708
 5281TIP3    H140038   1.923   4.364  20.388  0.2223  0.9066 -0.1675
 5281TIP3    H240039   1.965   4.232  20.448 -0.3184  0.1293 -1.4667
 5282TIP3   OH240040   4.394   1.750  18.184 -0.0548 -0.3885 -0.1756
 5282TIP3    H140041   4.394   1.767  18.278 -0.7287  0.8248 -0.3804
 5282TIP3    H240042   4.396   1.654  18.177  3.2207 -0.5340  1.0375
 5283TIP3   OH240043   1.400   4.686  18.146  0.2271  0.3089 -0.7230
 5283TIP3    H140044   1.326   4.745  18.161  0.1656 -0.0448  0.4334
 5283TIP3    H240045   1.417   4.693  18.052 -1.3319  0.3161 -1.0274
 5284TIP3   OH240046   3.228   3.886  18.927  0.2193 -0.3498 -0.6051
 5284TIP3    H140047   3.207   3.979  18.936 -0.4222 -0.6646  2.3289
 5284TIP3    H240048   3.314   3.885  18.884  1.2898  1.7728  1.2337
 5285TIP3   OH240049   5.516   0.815  17.252  0.3380  0.0232 -0.5760
 5285TIP3    H140050   5.523   0.723  17.227  1.5481 -0.5180  1.5312
 5285TIP3    H240051   5.591   0.858  17.210  1.6262 -0.6287  0.9466
 5286TIP3   OH240052   2.365   5.820  19.088 -0.6458 -0.2082 -0.1805
 5286TIP3    H140053   2.366   5.913  19.110 -0.8062 -0.0842 -0.7027
 5286TIP3    H240054   2.328   5.778  19.166  1.1245 -0.0357  0.8052
 5287TIP3   OH240055   3.037   2.538  17.634 -0.3949  0.3408  0.4934
 5287TIP3    H140056   3.058   2.544  17.541  0.4180 -0.0327  0.6424
 5287TIP3    H240057   2.982   2.615  17.651  1.3600  1.7302  0.1907
 5288TIP3   OH240058   5.359   6.156  19.719  0.2831 -0.4822  0.1360
 5288TIP3    H140059   5.327   6.085  19.663 -0.2453  1.0853 -1.6542
 5288TIP3    H240060   5.285   6.178  19.775  0.3672 -1.1317  0.5201
 5289TIP3   OH240061   4.642   2.930  18.614  0.6203  0.1409  0.7046
 5289TIP3    H140062   4.686   2.853  18.577 -0.1389  0.5130 -1.0708
 5289TIP3    H240063   4.672   3.003  18.559 -1.4088  0.5556  0.0812
 5290TIP3   OH240064   2.391   1.036  17.204  0.4032 -0.1219  0.1285
 5290TIP3    H140065   2.339   0.956  17.190  2.0515 -1.1182 -0.6766
 5290TIP3    H240066   2.368   1.093  17.131 -0.1734 -0.1869  0.2540
 5291TIP3   OH240067   0.408   3.948  20.403  0.3560  0.5762 -0.3282
 5291TIP3    H140068   0.491   3.908  20.380  1.8453  1.8659  2.4059
 5291TIP3    H240069   0.348   3.875  20.417  1.0944 -0.3774 -1.9282
 5292TIP3   OH240070   4.286   4.892  19.157 -0.1104 -0.2014 -0.8162
 5292TIP3    H140071   4.337   4.963  19.195 -0.3972 -0.4597  0.0682
 5292TIP3    H240072   4.200   4.899  19.199 -0.4426 -0.4804 -1.4335
 5293TIP3   OH240073   6.654   4.392  19.210 -0.1673  0.3583  0.4409
 5293TIP3    H140074   6.587   4.323  19.204  0.6064 -0.2718 -1.5795
 5293TIP3    H240075   6.725   4.362  19.154  1.0128  1.9456  1.0038
 5294TIP3   OH240076   5.214   2.040  17.806  0.2111 -0.4256 -0.4200
 5294TIP3    H140077   5.165   1.958  17.792 -0.7294 -0.0900  0.7029
 5294TIP3    H240078   5.211   2.084  17.721 -1.0151 -0.6650 -0.5277
 5295TIP3   OH240079   0.991   5.823  19.956  0.1796 -0.0961  0.1772
 5295TIP3    H140080   0.951   5.801  20.040 -0.2332  0.4019  0.1087
 5295TIP3    H240081   0.943   5.771  19.892 -1.6523  1.8954 -0.1476
 5296TIP3   OH240082   6.297   6.669  17.647  0.2200  0.1744  0.6716
 5296TIP3    H140083   6.263   6.713  17.569  1.6344  1.2401  0.6314
 5296TIP3    H240084   6.342   6.592  17.612 -0.8130 -0.4220  0.6125
 5297TIP3   OH240085   5.984   2.024  19.062  0.1531  0.7057  0.1410
 5297TIP3    H140086   5.924   2.065  19.125  0.4908  2.3625 -0.5686
 5297TIP3    H240087   6.036   1.964  19.115 -1.5832 -0.2172  0.9078
 5298TIP3   OH240088   4.581   0.096  20.132 -0.5394  0.0177  0.2980
 5298TIP3    H140089   4.505   0.151  20.112 -1.2751 -0.6472  1.1868
 5298TIP3    H240090   4.625   0.084  20.048 -0.7110  1.4343 -0.0220
 5299TIP3   OH240091   1.038   5.424  17.408  0.5633 -0.5965  0.6093
 5299TIP3    H140092   1.024   5.329  17.397 -0.5884 -0.1685 -2.6543
 5299TIP3    H240093   0.963   5.453  17.460  0.1593 -1.2762  0.4181
 5300TIP3   OH240094   5.570   2.515  19.748 -0.6452 -0.6053  0.2127
 5300TIP3    H140095   5.540   2.518  19.657 -1.0859  0.6641  0.3720
 5300TIP3    H240096   5.629   2.591  19.756  0.2252 -1.3111  0.7165
 5301TIP3   OH240097   2.893   3.219  18.789  0.1164 -0.3268 -0.4359
 5301TIP3    H140098   2.865   3.263  18.869 -0.0170 -3.7715  1.5920
 5301TIP3    H240099   2.812   3.209  18.738 -0.1286  0.2240 -0.1657
 5302TIP3   OH240100   5.613   0.996  19.794 -0.0823  0.0284 -0.1940
 5302TIP3    H140101   5.535   1.019  19.743 -0.7754 -0.1235  0.7550
 5302TIP3    H240102   5.579   0.944  19.867  0.7191  1.0935  0.9896
 5303TIP3   OH240103   0.676   6.165  18.277  0.0115  0.3478  0.3316
 5303TIP3    H140104   0.584   6.139  18.283  0.3349 -0.6200  1.4677
 5303TIP3    H240105   0.673   6.255  18.245 -1.4446  1.0417  2.2138
 5304TIP3   OH240106   0.256   3.456  18.503  0.1826 -0.5518 -0.3036
 5304TIP3    H140107   0.297   3.521  18.560  0.3293 -0.2663 -0.7329
 5304TIP3    H240108   0.327   3.394  18.484  0.6007  0.2981 -1.5764
 5305TIP3   OH240109   5.260   1.782  17.565  0.3870  0.2057 -0.0743
 5305TIP3    H140110   5.340   1.797  17.513  0.5517  0.5297  0.2669
 5305TIP3    H240111   5.228   1.697  17.535  0.1173  0.6799 -1.1831
 5306TIP3   OH240112   1.298   4.656  20.758  0.2015 -0.6566  0.6022
 5306TIP3    H140113   1.353   4.686  20.830  0.4043 -1.0346  0.6066
 5306TIP3    H240114   1.328   4.567  20.740 -0.0880 -0.6931  0.2877
 5307TIP3   OH240115   2.286   4.836  20.339  0.1620 -0.0158 -0.1959
 5307TIP3    H140116   2.236   4.755  20.326  0.4026 -0.2486  0.3143
 5307TIP3    H240117   2.345   4.817  20.412  0.7575  0.3680 -0.5653
 5308TIP3   OH240118   3.482   5.297  19.614  0.1501 -0.0601  0.2915
 5308TIP3    H140119   3.471   5.206  19.588  1.1162 -0.3978  1.0045
 5308TIP3    H240120   3.566   5.299  19.659 -0.8766  0.7305  2.2869
 5309TIP3   OH240121   5.540   5.669  18.651  0.1059  0.0171 -0.0501
 5309TIP3    H140122   5.513   5.671  18.743  0.3457 -1.0087  0.0583
 5309TIP3    H240123   5.622   5.718  18.649 -0.1030  0.3784  0.2107
 5310TIP3   OH240124   3.669   5.365  18.860 -0.7547 -0.2312 -0.4590
 5310TIP3    H140125   3.661   5.382  18.954 -0.2792 -2.6644  0.0878
 5310TIP3    H240126   3.750   5.409  18.834 -1.2513  1.0533  0.0814
 5311TIP3   OH240127   2.341   0.816  20.238 -0.4501 -0.1649 -0.4052
 5311TIP3    H140128   2.393   0.809  20.318 -0.3784 -0.8709 -0.5043
 5311TIP3    H240129   2.339   0.727  20.203 -2.8960 -0.4503  0.3106
 5312TIP3   OH240130   0.256   4.517  20.592  0.2636  0.2084  0.4405
 5312TIP3    H140131   0.193   4.445  20.595 -1.6905  1.8342  2.8211
 5312TIP3    H240132   0.295   4.512  20.505  0.2851 -3.6889  0.5088
 5313TIP3   OH240133   6.018   6.519  16.692 -0.0479  0.0218 -0.3324
 5313TIP3    H140134   5.976   6.551  16.612  0.5033 -0.2573 -0.7442
 5313TIP3    H240135   5.965   6.555  16.763 -1.3940 -0.9098 -0.8306
 5314TIP3   OH240136   3.629   5.800  18.233 -0.4919  0.6034  0.1231
 5314TIP3    H140137   3.602   5.851  18.309  0.6616 -0.7392  1.5007
 5314TIP3    H240138   3.716   5.766  18.256 -1.1898 -1.9901 -0.6786
 5315TIP3   OH240139   1.161   1.383  17.217 -0.4829  0.1611 -0.0696
 5315TIP3    H140140   1.079   1.391  17.168 -1.6332 -0.7364  1.6130
 5315TIP3    H240141   1.173   1.470  17.257  0.2249  0.7574 -1.4850
 5316TIP3   OH240142   5.105   2.956  19.965 -0.0797 -0.3045 -0.1398
 5316TIP3    H140143   5.047   2.927  20.035  0.1310  1.3776  0.7991
 5316TIP3    H240144   5.062   2.927  19.885 -3.3496  2.4889  0.3533
 5317TIP3   OH240145   3.540   3.695  18.285 -0.0710  0.0688  0.1132
 5317TIP3    H140146   3.585   3.653  18.211  2.0070 -0.8971  1.8260
 5317TIP3    H240147   3.501   3.623  18.333  2.1219  0.1209  2.1641
 5318TIP3   OH240148   2.097   5.194  20.113 -0.2670 -0.4125  0.3078
 5318TIP3    H140149   2.154   5.138  20.060  0.2550  0.1506  0.2601
 5318TIP3    H240150   2.073   5.139  20.188 -0.6199 -1.0502 -0.2610
 5319TIP3   OH240151   4.378   4.529  17.748 -0.2190 -0.4917  0.6084
 5319TIP3    H140152   4.423   4.478  17.681 -2.7032 -2.1563  0.0931
 5319TIP3    H240153   4.433   4.608  17.758  0.8196 -0.6541 -2.5893
 5320TIP3   OH240154   0.363   3.467  20.868 -0.5120  0.4373  0.3783
 5320TIP3    H140155   0.303   3.512  20.926 -1.3962 -0.4639  0.1807
 5320TIP3    H240156   0.328   3.379  20.859 -0.6333  0.6485 -1.8210
 5321TIP3   OH240157   1.136   1.602  19.671 -0.1656  0.6038 -0.3470
 5321TIP3    H140158   1.110   1.563  19.755 -1.3618  0.6947 -0.6466
 5321TIP3    H240159   1.138   1.696  19.688 -3.4062  0.9446 -1.0674
 5322TIP3   OH240160   0.294   0.874  19.618  0.5192  0.3594 -0.4303
 5322TIP3    H140161   0.217   0.919  19.582 -0.2788  3.0360  3.9765
 5322TIP3    H240162   0.261   0.789  19.646  0.0101  0.1958 -1.4738
 5323TIP3   OH240163   6.488   4.890  20.206 -0.3355  0.1282 -0.1617
 5323TIP3    H140164   6.424   4.888  20.277 -0.3265 -0.2749 -0.1612
 5323TIP3    H240165   6.515   4.799  20.196 -3.0449 -0.5143 -3.1396
 5324TIP3   OH240166   0.869   0.201  19.174  0.8705 -0.7401  0.3646
 5324TIP3    H140167   0.913   0.286  19.177  1.0480 -0.8382  0.6698
 5324TIP3    H240168   0.779   0.220  19.201  0.4613 -0.3885 -1.1608
 5325TIP3   OH240169   5.237   0.809  19.251 -0.0583 -0.2950 -0.2462
 5325TIP3    H140170   5.244   0.855  19.167 -0.0356  1.7736  0.8184
 5325TIP3    H240171   5.328   0.788  19.274 -0.1291 -1.6857 -1.1225
 5326TIP3   OH240172   0.239   3.368  17.850  0.1563 -0.0267  0.6560
 5326TIP3    H140173   0.186   3.319  17.787 -0.1991 -0.0664  0.9812
 5326TIP3    H240174   0.248   3.308  17.925  2.6783 -1.0140 -0.2906
 5327TIP3   OH240175   1.831   3.673  20.148  0.4493 -0.7257  0.0306
 5327TIP3    H140176   1.806   3.764  20.162 -0.9209 -0.6917 -2.1133
 5327TIP3    H240177   1.924   3.677  20.123  0.7220 -0.0751  1.0776
 5328TIP3   OH240178   2.305   3.556  18.079  0.6143 -0.6935  0.0917
 5328TIP3    H140179   2.284   3.648  18.061  0.2658 -0.5608  1.1371
 5328TIP3    H240180   2.362   3.530  18.006  0.3834  0.2255 -0.4338
 5329TIP3   OH240181   1.010   4.870  19.340  0.1675 -0.5043  0.2187
 5329TIP3    H140182   0.958   4.899  19.414  0.6079 -1.3396  0.8826
 5329TIP3    H240183   0.960   4.896  19.263 -0.5507 -0.0865  0.8179
 5330TIP3   OH240184   4.136   5.422  19.920 -0.3045  0.0633  0.0540
 5330TIP3    H140185   4.182   5.338  19.914  1.0101  0.8363 -1.1849
 5330TIP3    H240186   4.125   5.451  19.830 -1.7149  0.7452  0.4106
 5331TIP3   OH240187   5.684   0.288  20.321  0.2637  0.4154 -0.2593
 5331TIP3    H140188   5.692   0.193  20.333 -0.1236  0.0057 -2.6628
 5331TIP3    H240189   5.590   0.304  20.321  0.2587  0.4966 -1.5233
 5332TIP3   OH240190   0.533   4.898  17.872  0.0803 -0.7043 -0.1696
 5332TIP3    H140191   0.460   4.919  17.931 -0.9553 -1.6054 -1.0677
 5332TIP3    H240192   0.550   4.979  17.824 -1.9192 -1.0306 -1.5673
 5333TIP3   OH240193   0.683   3.473  17.866 -0.5162  0.0717 -0.5771
 5333TIP3    H140194   0.742   3.445  17.796  0.1139  0.9057 -0.3905
 5333TIP3    H240195   0.736   3.470  17.945 -0.3222  2.0996 -0.5992
 5334TIP3   OH240196   1.760   6.290  19.499 -0.2891  0.7222 -0.4663
 5334TIP3    H140197   1.772   6.377  19.536 -1.3317  0.4872  0.4620
 5334TIP3    H240198   1.665   6.282  19.485 -0.3297 -0.6194  0.3910
 5335TIP3   OH240199   6.339   2.008  20.220 -0.3678  0.2732  0.1393
 5335TIP3    H140200   6.339   2.077  20.286 -0.2913 -0.4116  0.8624
 5335TIP3    H240201   6.373   2.051  20.141 -0.5618  1.1218  0.5041
 5336TIP3   OH240202   2.931   3.816  19.082  0.2324  0.1946  0.0644
 5336TIP3    H140203   2.970   3.875  19.147 -0.6284 -0.7967  1.5258
 5336TIP3    H240204   2.851   3.784  19.123 -0.4999 -0.2522 -1.6192
 5337TIP3   OH240205   2.204   0.622  19.623  0.2439  0.1847  0.1812
 5337TIP3    H140206   2.278   0.568  19.594  0.4751  1.1369 -1.0862
 5337TIP3    H240207   2.187   0.681  19.549  0.8573  2.7359  1.9154
 5338TIP3   OH240208   2.390   1.798  20.575 -0.0895  0.7560  0.8751
 5338TIP3    H140209   2.369   1.880  20.620 -1.5789  0.3309  1.0083
 5338TIP3    H240210   2.472   1.817  20.529 -1.6738  3.2382 -1.2762
 5339TIP3   OH240211   0.929   3.458  18.702 -0.2454 -0.2712  0.3513
 5339TIP3    H140212   0.904   3.549  18.692  1.8537  0.3931  0.6795
 5339TIP3    H240213   0.962   3.451  18.791  0.4901 -1.1020  0.0358
 5340TIP3   OH240214   6.723   6.517  18.878 -0.1370  0.2449 -0.2779
 5340TIP3    H140215   6.731   6.436  18.828 -1.8918 -0.3305  0.3097
 5340TIP3    H240216   6.709   6.489  18.968  1.4291  1.2576  0.3360
 5341TIP3   OH240217   4.671   0.863  20.039  0.0411  0.4628  0.0100
 5341TIP3    H140218   4.615   0.786  20.031 -0.2465  0.7262 -0.6728
 5341TIP3    H240219   4.660   0.892  20.129 -2.2901  1.4834 -0.5148
 5342TIP3   OH240220   4.896   3.057  18.221 -0.2603 -0.6943  0.0243
 5342TIP3    H140221   4.850   3.141  18.209 -1.0233 -1.1800 -0.5762
 5342TIP3    H240222   4.967   3.059  18.157 -1.6107 -1.3993 -1.5778
 5343TIP3   OH240223   4.009   2.911  19.129 -0.0787  0.1898  0.3962
 5343TIP3    H140224   3.969   2.900  19.043 -1.9185 -2.7518  1.4850
 5343TIP3    H240225   3.950   2.970  19.175 -0.6397 -0.4414  0.5016
 5344TIP3   OH240226   2.570   4.901  19.384  0.0409  0.5197 -0.1067
 5344TIP3    H140227   2.552   4.992  19.357 -1.5130  0.1536 -0.4090
 5344TIP3    H240228   2.585   4.855  19.302  3.4136  0.9277  0.1362
 5345TIP3   OH240229   1.177   3.646  18.492  0.3905 -0.3433  0.4422
 5345TIP3    H140230   1.167   3.559  18.453 -0.3991  0.2874 -0.8425
 5345TIP3    H240231   1.116   3.701  18.443  1.0184  0.9814  1.0974
 5346TIP3   OH240232   4.135   6.423  18.280 -0.7202 -0.2876 -0.0730
 5346TIP3    H140233   4.040   6.422  18.297 -1.0332  1.5542 -1.4818
 5346TIP3    H240234   4.171   6.477  18.350 -0.6975 -0.8694  0.3785
 5347TIP3   OH240235   3.778   3.838  20.491  0.9062 -0.1902  0.0764
 5347TIP3    H140236   3.781   3.743  20.477 -0.5039 -0.2260 -0.0829
 5347TIP3    H240237   3.687   3.856  20.512  1.0145  1.2508 -0.6349
 5348TIP3   OH240238   4.289   0.994  18.749  0.2336  0.1788 -1.0137
 5348TIP3    H140239   4.304   0.900  18.734  0.7081  0.0317  0.2895
 5348TIP3    H240240   4.375   1.028  18.773 -0.5418  0.1964  2.1700
 5349TIP3   OH240241   2.608   1.243  18.642  0.4590  0.6251  0.0104
 5349TIP3    H140242   2.651   1.265  18.560 -1.3926 -0.0955 -1.2444
 5349TIP3    H240243   2.573   1.325  18.674 -1.4143  0.5349 -1.5854
 5350TIP3   OH240244   3.912   3.741  19.707 -0.7609  0.2524  0.0128
 5350TIP3    H140245   3.853   3.781  19.771 -0.7124  0.8886 -0.3377
 5350TIP3    H240246   3.934   3.812  19.647  0.6033  0.0867  0.3062
 5351TIP3   OH240247   1.457   5.741  19.935  0.9823 -0.4411 -0.1069
 5351TIP3    H140248   1.508   5.672  19.979 -0.1183 -2.4823 -1.8261
 5351TIP3    H240249   1.377   5.748  19.988  1.4389  0.1434  0.5294
 5352TIP3   OH240250   5.846   5.849  18.025 -0.0532 -0.4430 -0.6309
 5352TIP3    H140251   5.797   5.790  17.968  0.4891 -0.9583 -0.5791
 5352TIP3    H240252   5.784   5.873  18.094 -0.2454 -1.0855 -0.5703
 5353TIP3   OH240253   2.936   2.305  19.234  0.0063 -0.1555  0.1282
 5353TIP3    H140254   2.948   2.245  19.308  1.8706 -0.8460 -0.6783
 5353TIP3    H240255   3.024   2.326  19.205 -0.5644  3.1405  0.4266
 5354TIP3   OH240256   3.180   1.306  16.663 -0.9865  0.2323  0.2546
 5354TIP3    H140257   3.172   1.242  16.734 -0.2158 -2.1223 -1.6403
 5354TIP3    H240258   3.240   1.265  16.601  0.1933  3.1972 -0.7387
 5355TIP3   OH240259   0.119   0.249  18.053 -0.1514  0.2466 -0.4088
 5355TIP3    H140260   0.101   0.169  18.003 -1.0705  0.6342 -0.7138
 5355TIP3    H240261   0.036   0.296  18.054 -0.1137  0.3634  1.3054
 5356TIP3   OH240262   6.162   6.547  17.168  0.5032 -0.0912  0.6399
 5356TIP3    H140263   6.071   6.516  17.161  0.7612 -0.7352 -0.0722
 5356TIP3    H240264   6.157   6.625  17.222 -0.5368  0.1197  0.2651
 5357TIP3   OH240265   0.406   0.434  18.125  0.4801  0.8382 -0.3231
 5357TIP3    H140266   0.403   0.340  18.138  0.2854  0.8996  0.0825
 5357TIP3    H240267   0.337   0.469  18.182  1.7540  1.3853  0.9525
 5358TIP3   OH240268   1.791   5.922  18.171  0.1225  0.4346  0.1094
 5358TIP3    H140269   1.799   5.930  18.266 -0.5286 -0.9119  0.3000
 5358TIP3    H240270   1.774   6.011  18.141 -0.5879  0.7469  1.3608
 5359TIP3   OH240271   2.568   5.843  20.366  0.0868  0.1867 -0.3115
 5359TIP3    H140272   2.617   5.798  20.434 -1.4476  0.2041  0.8779
 5359TIP3    H240273   2.596   5.803  20.284 -0.9208 -2.7284  0.6571
 5360TIP3   OH240274   2.487   0.222  20.163  0.2361 -0.2438  0.1831
 5360TIP3    H140275   2.444   0.150  20.210 -1.1839  1.0382  0.9496
 5360TIP3    H240276   2.564   0.243  20.217  0.3977 -0.8593  0.2049
 5361TIP3   OH240277   6.515   1.510  18.701  0.3226 -0.3729 -0.0816
 5361TIP3    H140278   6.441   1.517  18.762  1.4130  0.6837  1.1826
 5361TIP3    H240279   6.508   1.422  18.665 -1.7564 -0.1696 -0.2773
 5362TIP3   OH240280   0.239   0.352  16.939 -0.2593  0.6370 -0.2565
 5362TIP3    H140281   0.147   0.380  16.937 -0.9833 -1.4616  0.9376
 5362TIP3    H240282   0.274   0.380  16.855 -2.1016  1.1709 -0.8927
 5363TIP3   OH240283   2.279   5.359  20.769 -0.1897  0.2097 -0.0239
 5363TIP3    H140284   2.330   5.278  20.763  0.2134  0.4861 -0.3948
 5363TIP3    H240285   2.210   5.339  20.832  1.4443  0.3773  1.9391
 5364TIP3   OH240286   1.706   0.920  19.132 -0.1475 -0.8106 -0.2108
 5364TIP3    H140287   1.728   0.888  19.044 -0.2690 -1.6501  0.0610
 5364TIP3    H240288   1.787   0.961  19.163 -0.1560 -0.3422 -0.7835
 5365TIP3   OH240289   5.481   3.884  19.382 -0.1982  0.1518 -0.7266
 5365TIP3    H140290   5.465   3.791  19.367  1.2757  0.1236 -2.5540
 5365TIP3    H240291   5.577   3.892  19.383 -0.2890  1.5236  0.3308
 5366TIP3   OH240292   4.355   5.468  17.862 -0.1245  0.0798 -0.1368
 5366TIP3    H140293   4.362   5.429  17.775 -1.2230 -2.0417  0.6438
 5366TIP3    H240294   4.286   5.534  17.853 -0.0389  0.0710 -0.9464
 5367TIP3   OH240295   3.615   2.543  20.081 -1.1091 -0.1066  0.3860
 5367TIP3    H140296   3.538   2.590  20.113 -0.7615 -0.1616  1.3293
 5367TIP3    H240297   3.593   2.450  20.094 -0.3619 -0.1050  1.9971
 5368TIP3   OH240298   4.434   4.769  18.154  0.6805 -0.9219  0.3343
 5368TIP3    H140299   4.506   4.731  18.103  0.9856 -0.6566  0.5635
 5368TIP3    H240300   4.357   4.757  18.098  1.4669  2.2088 -1.6952
 5369TIP3   OH240301   2.860   1.950  20.427 -0.0560 -0.0592 -0.2812
 5369TIP3    H140302   2.950   1.938  20.458 -0.6634  0.7610  1.9921
 5369TIP3    H240303   2.835   2.036  20.459 -1.9776 -0.6533 -0.0617
 5370TIP3   OH240304   0.902   5.626  18.151  0.7000  0.9187  0.5700
 5370TIP3    H140305   0.966   5.577  18.100  1.1366 -0.0244  1.9698
 5370TIP3    H240306   0.940   5.632  18.238 -1.3683 -0.2366  1.6312
 5371TIP3   OH240307   2.154   6.336  17.979  0.1858  0.0203 -0.3146
 5371TIP3    H140308   2.175   6.368  17.891  1.0137  0.8951  0.1821
 5371TIP3    H240309   2.171   6.411  18.036 -2.4400  0.1939  0.3764
 5372TIP3   OH240310   2.678   1.464  18.075 -0.2201  0.0711  0.4414
 5372TIP3    H140311   2.610   1.527  18.051  0.0646  0.3169  0.2734
 5372TIP3    H240312   2.728   1.510  18.143  1.0895  0.7438 -0.9380
 5373TIP3   OH240313   3.105   5.853  20.218  0.7950  0.6076  0.7562
 5373TIP3    H140314   3.088   5.781  20.157 -1.2459  1.3577  0.3336
 5373TIP3    H240315   3.098   5.814  20.305 -0.2743  0.2602  0.5323
 5374TIP3   OH240316   4.326   5.343  19.143  0.1286  0.6250  0.0326
 5374TIP3    H140317   4.404   5.398  19.142  0.2537  0.6218  2.7317
 5374TIP3    H240318   4.254   5.404  19.130  0.4648  0.8166 -1.0697
 5375TIP3   OH240319   3.685   3.544  18.598 -0.4890  0.2994 -0.5938
 5375TIP3    H140320   3.705   3.471  18.540 -1.4978  1.0929 -1.9773
 5375TIP3    H240321   3.591   3.559  18.587 -0.5945  0.8393  0.8275
 5376TIP3   OH240322   5.238   5.343  18.665 -0.0063  0.1336  0.2232
 5376TIP3    H140323   5.288   5.306  18.738  1.0672 -1.3180 -1.1802
 5376TIP3    H240324   5.298   5.403  18.622 -0.7072  1.1494  0.6013
 5377TIP3   OH240325   4.279   1.412  20.926 -0.3433 -0.2655  0.1229
 5377TIP3    H140326   4.311   1.501  20.913  1.2325 -0.8967 -0.5621
 5377TIP3    H240327   4.185   1.417  20.904  0.2991  0.6111 -2.9434
 5378TIP3   OH240328   0.441   2.976  19.902  0.7333 -0.5534 -0.1256
 5378TIP3    H140329   0.521   3.006  19.945  0.6725  1.5484 -1.3719
 5378TIP3    H240330   0.379   3.048  19.912 -0.5047 -1.5193 -0.5343
 5379TIP3   OH240331   1.929   4.115  17.913 -0.4493 -0.1469 -0.2253
 5379TIP3    H140332   1.847   4.124  17.865 -0.7538  0.7159  0.4351
 5379TIP3    H240333   1.996   4.111  17.844 -1.0414 -1.0483 -0.7758
 5380TIP3   OH240334   1.922   1.916  20.030  0.0400  0.7147  0.4199
 5380TIP3    H140335   2.003   1.866  20.021  0.1779  1.1736 -1.1543
 5380TIP3    H240336   1.896   1.903  20.122  1.9137  0.6101  0.9834
 5381TIP3   OH240337   3.500   6.610  20.151 -0.2941 -0.5568  0.6811
 5381TIP3    H140338   3.514   6.701  20.174  2.4202 -0.4536 -0.9383
 5381TIP3    H240339   3.563   6.561  20.204  0.3504 -1.1148 -0.5347
 5382TIP3   OH240340   2.426   2.654  20.406  0.0991  0.0872 -0.0290
 5382TIP3    H140341   2.449   2.700  20.325 -0.3216 -0.7523 -0.6338
 5382TIP3    H240342   2.337   2.623  20.392  0.9355 -2.3463 -0.3201
 5383TIP3   OH240343   2.039   1.515  17.899  0.0874  0.7816 -0.0962
 5383TIP3    H140344   2.065   1.429  17.932 -0.7518  0.4804 -0.1830
 5383TIP3    H240345   1.964   1.540  17.954 -1.1499  0.4002 -1.5346
 5384TIP3   OH240346   4.608   4.494  19.286  0.1968 -0.6730  0.4683
 5384TIP3    H140347   4.598   4.588  19.271 -0.3500 -0.9388 -0.9347
 5384TIP3    H240348   4.700   4.476  19.266  0.0722 -0.5901 -0.2045
 5385TIP3   OH240349   6.581   3.503  17.962 -0.3235  0.3057 -0.0416
 5385TIP3    H140350   6.579   3.438  17.892 -0.8895  2.2500 -1.9481
 5385TIP3    H240351   6.536   3.460  18.035 -2.2056 -0.8905 -1.7660
 5386TIP3   OH240352   0.423   0.606  18.477  0.2020 -0.1468 -0.4206
 5386TIP3    H140353   0.518   0.619  18.474  0.2660 -0.6963 -0.8901
 5386TIP3    H240354   0.410   0.519  18.440 -0.6996  1.0334 -3.1219
 5387TIP3   OH240355   5.297   5.394  20.104  0.3046  0.0370 -0.5271
 5387TIP3    H140356   5.264   5.357  20.022 -0.0926 -1.5127  0.2830
 5387TIP3    H240357   5.232   5.367  20.170  1.8676 -0.8799  0.6953
 5388TIP3   OH240358   1.981   5.557  19.622 -0.4341 -0.4307 -0.2299
 5388TIP3    H140359   1.914   5.578  19.686  0.8801 -0.0072  1.0460
 5388TIP3    H240360   2.063   5.559  19.671  0.6207 -0.0660 -1.9219
 5389TIP3   OH240361   3.988   4.337  17.772  0.4116  0.8329  0.4112
 5389TIP3    H140362   4.036   4.323  17.853  0.1301  1.2112  0.6531
 5389TIP3    H240363   4.045   4.304  17.703  0.4991  0.1725  0.7958
 5390TIP3   OH240364   5.996   5.830  20.491 -0.2044  0.0966 -0.1234
 5390TIP3    H140365   5.948   5.757  20.452  0.2294  0.4304 -1.3016
 5390TIP3    H240366   6.085   5.822  20.457  0.3872 -0.0178  1.3794
 5391TIP3   OH240367   3.754   1.020  11.263 -0.1480 -0.0291  0.1855
 5391TIP3    H140368   3.661   1.030  11.283  0.0009  3.2707 -0.2636
 5391TIP3    H240369   3.797   1.018  11.348 -0.4682  0.6935  0.3675
 5392TIP3   OH240370   1.278   4.534  11.967  0.0330 -0.3643 -0.1941
 5392TIP3    H140371   1.317   4.446  11.967  0.3212 -0.3248  2.5002
 5392TIP3    H240372   1.353   4.593  11.974 -0.2630 -0.1767  2.4686
 5393TIP3   OH240373   3.245   6.743  10.486  0.2922  0.5500 -0.4726
 5393TIP3    H140374   3.273   6.669  10.540 -0.5682 -0.7516 -1.7453
 5393TIP3    H240375   3.212   6.807  10.549 -2.7895 -1.8054  0.5403
 5394TIP3   OH240376   6.394   6.324  11.076  0.1211 -0.1099 -0.0347
 5394TIP3    H140377   6.469   6.295  11.024  1.2298 -0.6842  1.7895
 5394TIP3    H240378   6.325   6.260  11.056 -0.5942  1.4638 -3.1310
 5395TIP3   OH240379   3.796   1.853  10.379  0.1176  0.3397  0.2233
 5395TIP3    H140380   3.804   1.834  10.286 -0.6616 -0.9831  0.3912
 5395TIP3    H240381   3.851   1.787  10.422 -1.9982 -1.1632  0.7985
 5396TIP3   OH240382   6.026   3.746  11.842  0.3410  0.2136  0.0146
 5396TIP3    H140383   5.963   3.808  11.808  1.3565  0.9673 -0.5525
 5396TIP3    H240384   6.083   3.798  11.898 -0.9696 -0.9003  2.5448
 5397TIP3   OH240385   6.721   2.647  10.700  0.2450  0.1028 -0.5869
 5397TIP3    H140386   6.784   2.718  10.688  2.4984 -1.6690  0.0499
 5397TIP3    H240387   6.693   2.656  10.792  1.1089 -0.2432 -0.2765
 5398TIP3   OH240388   6.267   4.553  10.593  0.0034  0.2182  0.7364
 5398TIP3    H140389   6.299   4.643  10.604 -0.2557  0.4017 -0.0074
 5398TIP3    H240390   6.193   4.546  10.653 -1.9921  1.5087 -1.4268
 5399TIP3   OH240391   3.313   5.590  11.908  0.2070 -0.1093 -0.2621
 5399TIP3    H140392   3.348   5.508  11.942  0.6487  1.2300  2.8903
 5399TIP3    H240393   3.385   5.629  11.860  0.5906 -0.7162 -0.1913
 5400TIP3   OH240394   0.179   5.586  11.896  0.3425  0.0607 -0.0443
 5400TIP3    H140395   0.232   5.644  11.840  0.9467 -0.5402 -0.1066
 5400TIP3    H240396   0.111   5.552  11.838  0.3948  0.1802 -0.1768
 5401TIP3   OH240397   4.736   6.560   9.914 -0.2086 -0.1428  0.6635
 5401TIP3    H140398   4.772   6.472   9.928 -0.0539 -0.0128  1.1056
 5401TIP3    H240399   4.716   6.592  10.002 -1.8023 -0.3589  0.4061
 5402TIP3   OH240400   6.701   0.937  11.652  0.2473  0.5961 -0.2999
 5402TIP3    H140401   6.667   0.848  11.659 -0.6562  1.0799  2.2533
 5402TIP3    H240402   6.644   0.990  11.707  1.4140  2.5850 -0.8893
 5403TIP3   OH240403   2.706   0.877   9.474  0.0350 -0.1718  0.3401
 5403TIP3    H140404   2.719   0.839   9.561 -1.3482 -0.4272  0.4557
 5403TIP3    H240405   2.617   0.852   9.450  0.0898  0.6429 -0.7837
 5404TIP3   OH240406   3.294   0.688  12.370 -0.2971  0.3462  0.0599
 5404TIP3    H140407   3.351   0.761  12.392  0.1037  0.5348 -1.5034
 5404TIP3    H240408   3.350   0.610  12.378  0.0497  0.4806 -0.9336
 5405TIP3   OH240409   6.418   0.662   9.539  0.0315 -0.2580  0.2691
 5405TIP3    H140410   6.466   0.739   9.508  0.7089 -0.0853  1.6791
 5405TIP3    H240411   6.356   0.642   9.468  0.4928  1.0032 -0.5197
 5406TIP3   OH240412   5.815   4.666  12.213 -0.1672 -0.3835 -0.0657
 5406TIP3    H140413   5.776   4.704  12.292 -0.2338 -1.6667  0.5363
 5406TIP3    H240414   5.740   4.638  12.160 -0.1631  1.3981 -1.0991
 5407TIP3   OH240415   3.860   0.817  11.111  0.3360 -0.3217  0.2363
 5407TIP3    H140416   3.898   0.759  11.178  0.7681 -0.1459  0.1453
 5407TIP3    H240417   3.807   0.879  11.161 -0.9959 -1.4370  0.2595
 5408TIP3   OH240418   4.205   6.115  10.291  0.4863  0.6248 -0.3383
 5408TIP3    H140419   4.115   6.132  10.262  0.2590 -0.1843 -0.1290
 5408TIP3    H240420   4.222   6.180  10.359 -0.1638  0.3867  0.0556
 5409TIP3   OH240421   0.044   2.750   9.942 -0.2744 -0.1997 -0.4011
 5409TIP3    H140422  -0.033   2.755   9.998 -1.0726 -1.1845 -1.3604
 5409TIP3    H240423   0.013   2.779   9.856  0.2914 -1.0375 -0.9052
 5410TIP3   OH240424   4.580   1.888   9.923  0.3117 -0.1378 -0.5596
 5410TIP3    H140425   4.518   1.866   9.854 -1.7541 -0.3309  1.2446
 5410TIP3    H240426   4.528   1.936   9.988  2.1692  0.1234  0.8342
 5411TIP3   OH240427   3.357   4.337  11.961 -0.3103 -0.4696 -0.2391
 5411TIP3    H140428   3.401   4.271  12.015 -2.1057 -1.5058  0.0200
 5411TIP3    H240429   3.317   4.286  11.890  0.9130  0.7177 -1.8694
 5412TIP3   OH240430   1.685   2.853   9.814 -0.3845 -0.4760 -0.2691
 5412TIP3    H140431   1.667   2.788   9.746 -4.2389 -0.1540  0.1914
 5412TIP3    H240432   1.703   2.934   9.766  3.3184 -1.4442 -0.8230
 5413TIP3   OH240433   3.669   0.770  10.244 -0.0010  0.0027 -0.1498
 5413TIP3    H140434   3.584   0.761  10.286 -0.5101  1.2521 -0.8766
 5413TIP3    H240435   3.658   0.730  10.157  0.4184 -0.6126  0.0694
 5414TIP3   OH240436   1.911   1.093  12.958 -0.0525  0.4159 -0.0483
 5414TIP3    H140437   1.858   1.098  12.878 -0.3617 -0.1977  0.1079
 5414TIP3    H240438   1.898   1.177  13.002 -0.1767  0.6127 -0.4581
 5415TIP3   OH240439   6.482   3.839  10.038 -0.0643 -0.5109  0.0411
 5415TIP3    H140440   6.438   3.888   9.969 -1.4969  0.3589  1.5077
 5415TIP3    H240441   6.421   3.769  10.060 -0.5396  0.3755  1.7146
 5416TIP3   OH240442   0.853   0.187  11.947 -0.3325 -0.2274  0.1552
 5416TIP3    H140443   0.833   0.122  12.014 -1.1747 -0.8507 -0.6749
 5416TIP3    H240444   0.819   0.269  11.981  0.1591 -0.3383  0.9281
 5417TIP3   OH240445   4.488   5.927  11.009 -0.5097 -0.0367 -0.6322
 5417TIP3    H140446   4.434   5.852  11.033  0.7079 -0.3729  1.2281
 5417TIP3    H240447   4.445   6.002  11.051  0.3138 -0.2719  0.6643
 5418TIP3   OH240448   4.841   3.060  12.429 -0.1443  1.0639  0.1676
 5418TIP3    H140449   4.765   3.089  12.378  0.7449 -0.2283 -2.0186
 5418TIP3    H240450   4.804   3.034  12.513 -2.3484 -0.5749 -1.1800
 5419TIP3   OH240451   6.240   4.294  11.516 -0.4717  0.1789  0.0030
 5419TIP3    H140452   6.241   4.383  11.481  1.8515  0.4202  0.4912
 5419TIP3    H240453   6.303   4.246  11.461  1.2884 -0.0958  2.1346
 5420TIP3   OH240454   2.146   0.619   9.388 -0.1942 -0.5251  0.0462
 5420TIP3    H140455   2.225   0.646   9.436  0.1867  0.1664 -0.9406
 5420TIP3    H240456   2.148   0.671   9.308 -0.9818 -1.4389 -0.5833
 5421TIP3   OH240457   4.368   5.677  11.073 -0.0590 -0.2425 -0.7330
 5421TIP3    H140458   4.395   5.602  11.126  2.7924 -0.0257 -1.7162
 5421TIP3    H240459   4.388   5.651  10.983  1.8109  1.9383 -1.0319
 5422TIP3   OH240460   4.148   3.093   9.993 -0.0179 -0.4354 -0.1371
 5422TIP3    H140461   4.239   3.065  10.001  0.3905  0.6218 -0.8916
 5422TIP3    H240462   4.145   3.178  10.037 -0.1707  0.4438 -1.7834
 5423TIP3   OH240463   1.087   2.611  11.961  0.1358  0.1321 -0.1040
 5423TIP3    H140464   1.162   2.597  12.019  0.5345  0.3667 -0.5576
 5423TIP3    H240465   1.035   2.679  12.005  0.7814  0.7877 -0.3384
 5424TIP3   OH240466   5.301   6.347   9.990 -0.0508  0.5253 -0.2361
 5424TIP3    H140467   5.265   6.321  10.075 -1.1414 -1.2436 -1.1732
 5424TIP3    H240468   5.383   6.298   9.983  2.6243  4.2440  1.7200
 5425TIP3   OH240469   5.100   3.093   9.304 -0.2489  0.6726  0.5699
 5425TIP3    H140470   5.017   3.112   9.348  0.8675  1.0620  2.6311
 5425TIP3    H240471   5.148   3.176   9.306  1.2604 -0.1739  1.9221
 5426TIP3   OH240472   5.250   6.567  11.694 -0.6876 -0.7247 -0.0441
 5426TIP3    H140473   5.286   6.492  11.742 -0.1122 -0.2923  0.2078
 5426TIP3    H240474   5.268   6.548  11.602 -2.4808 -1.9324 -0.1939
 5427TIP3   OH240475   2.280   1.394  11.232  0.2140  0.6022 -0.0126
 5427TIP3    H140476   2.335   1.437  11.166  2.6559  0.1202  1.5478
 5427TIP3    H240477   2.312   1.430  11.315 -1.5597 -0.0942  1.0080
 5428TIP3   OH240478   2.018   1.727  11.360 -0.7370  0.3153 -0.0877
 5428TIP3    H140479   2.102   1.765  11.387  0.4492 -1.0020 -1.6415
 5428TIP3    H240480   1.981   1.791  11.299 -0.6574  0.7163  0.2818
 5429TIP3   OH240481   0.793   3.646  11.157  0.3764  0.5712  0.5302
 5429TIP3    H140482   0.883   3.626  11.184  0.1932 -0.1915  0.5888
 5429TIP3    H240483   0.755   3.561  11.136 -0.4674  0.8503  0.9077
 5430TIP3   OH240484   5.148   6.382   9.772 -0.2968 -0.8755 -0.1504
 5430TIP3    H140485   5.214   6.362   9.839 -0.5906 -1.0522  0.0875
 5430TIP3    H240486   5.074   6.325   9.794 -1.4236  0.9247  0.9227
 5431TIP3   OH240487   2.387   1.691  11.355 -0.0308 -0.3784 -0.4730
 5431TIP3    H140488   2.393   1.611  11.407 -0.3894 -1.7783 -2.4785
 5431TIP3    H240489   2.300   1.727  11.375 -0.9127 -1.8868 -1.3838
 5432TIP3   OH240490   5.208   2.976  10.258 -0.5192  0.5878 -0.4485
 5432TIP3    H140491   5.206   3.035  10.333 -0.3948 -0.8039  0.6877
 5432TIP3    H240492   5.278   3.011  10.202  0.6761  0.5971  0.9848
 5433TIP3   OH240493   1.576   4.669   9.394  0.3241 -0.0335  0.1186
 5433TIP3    H140494   1.545   4.595   9.341 -0.7077  0.9535 -0.6830
 5433TIP3    H240495   1.567   4.639   9.485 -0.5807 -0.7025 -0.1841
 5434TIP3   OH240496   0.243   1.927  12.496 -0.4148 -0.0559 -0.1590
 5434TIP3    H140497   0.312   1.962  12.440  0.8828 -2.0431  0.1060
 5434TIP3    H240498   0.285   1.855  12.543 -1.9545  0.3621  2.0208
 5435TIP3   OH240499   5.895   2.731  10.171 -0.3062  0.1412 -0.0428
 5435TIP3    H140500   5.887   2.747  10.077 -0.1811  0.7954  0.0501
 5435TIP3    H240501   5.848   2.805  10.211  0.5841  0.4734  0.4157
 5436TIP3   OH240502   5.324   4.150  10.143  0.0718  0.3477  0.5679
 5436TIP3    H140503   5.299   4.192  10.061  0.2156 -2.3676 -0.9653
 5436TIP3    H240504   5.358   4.064  10.117  0.0215 -0.6527  3.4779
 5437TIP3   OH240505   0.317   0.328  11.100  0.0042  0.2378  0.9445
 5437TIP3    H140506   0.389   0.330  11.164 -1.0572 -1.3413  2.2555
 5437TIP3    H240507   0.240   0.305  11.151 -1.2818  0.9066 -0.6060
 5438TIP3   OH240508   4.891   2.168  10.301 -0.0654  0.2735  0.6101
 5438TIP3    H140509   4.833   2.149  10.228  0.5359  1.3380 -0.1582
 5438TIP3    H240510   4.915   2.260  10.291 -1.3400  0.9901  3.1193
 5439TIP3   OH240511   5.456   2.543  12.477 -0.0688 -0.3122  0.2125
 5439TIP3    H140512   5.439   2.559  12.570 -1.5863  0.4192 -0.1580
 5439TIP3    H240513   5.369   2.528  12.439  0.4215  0.4346 -1.2765
 5440TIP3   OH240514   6.236   5.859  10.060 -0.2737  0.4590 -0.2030
 5440TIP3    H140515   6.311   5.800  10.053 -0.2283  0.4833  0.0539
 5440TIP3    H240516   6.256   5.931  10.001 -0.3346  0.2144 -0.5281
 5441TIP3   OH240517   0.648   1.250  10.214 -0.1705 -0.4916 -0.2075
 5441TIP3    H140518   0.656   1.338  10.249 -0.7055 -0.9784  1.2333
 5441TIP3    H240519   0.737   1.214  10.218 -0.2453 -0.5911  0.8571
 5442TIP3   OH240520   5.781   0.114  10.869 -0.4341 -0.3544 -0.0727
 5442TIP3    H140521   5.848   0.068  10.918 -2.1159  1.0852  3.9966
 5442TIP3    H240522   5.810   0.206  10.870 -1.1849 -0.1038 -0.6157
 5443TIP3   OH240523   4.897   3.015  11.031  0.1169 -0.5281 -0.0746
 5443TIP3    H140524   4.931   3.059  10.953  0.1791  0.9170  0.7195
 5443TIP3    H240525   4.922   3.073  11.103 -0.2519 -1.6473  0.9793
 5444TIP3   OH240526   5.371   3.421  11.936 -0.3774 -0.6488  0.1535
 5444TIP3    H140527   5.365   3.370  11.855  0.1929 -0.4631 -0.0141
 5444TIP3    H240528   5.369   3.512  11.908 -2.0037 -0.5558  0.5038
 5445TIP3   OH240529   2.705   0.340  10.983  0.0423  0.0436  0.0802
 5445TIP3    H140530   2.675   0.275  11.047 -0.5816 -0.7797 -1.0167
 5445TIP3    H240531   2.679   0.424  11.021 -1.3143 -0.4941  0.3963
 5446TIP3   OH240532   4.142   2.694  12.354  0.1144  0.2289  0.7711
 5446TIP3    H140533   4.098   2.777  12.374  1.3255  0.7623  1.3798
 5446TIP3    H240534   4.074   2.638  12.318 -0.8118  1.3741  0.6861
 5447TIP3   OH240535   5.393   1.967  12.009  0.5063 -0.2768  0.5156
 5447TIP3    H140536   5.360   1.878  11.991 -0.2572 -0.1552  1.2636
 5447TIP3    H240537   5.331   2.003  12.072  0.9993  0.6797  0.4653
 5448TIP3   OH240538   2.053   2.844   9.459  0.5517 -0.2330  0.4925
 5448TIP3    H140539   2.076   2.754   9.435  0.2674 -0.8943  2.4399
 5448TIP3    H240540   2.051   2.892   9.377  1.0638 -1.9363 -0.5598
 5449TIP3   OH240541   5.214   0.195  12.686 -0.0040  0.1285  0.1466
 5449TIP3    H140542   5.171   0.271  12.648  0.7514  0.2009 -0.6125
 5449TIP3    H240543   5.285   0.232  12.739 -0.4895 -0.0094  0.9156
 5450TIP3   OH240544   5.731   2.625   9.398 -0.2082 -0.4250 -0.6727
 5450TIP3    H140545   5.789   2.675   9.341  0.0608 -0.6027 -0.5518
 5450TIP3    H240546   5.650   2.676   9.399 -0.0864 -0.2238 -0.9104
 5451TIP3   OH240547   3.047   4.633   9.261 -0.2438  0.0641 -0.1170
 5451TIP3    H140548   3.006   4.557   9.302 -0.3859 -0.5478 -1.3512
 5451TIP3    H240549   3.011   4.635   9.172  0.2791  1.1691 -0.3212
 5452TIP3   OH240550   3.740   0.452  10.405 -0.4835  0.2129  0.2617
 5452TIP3    H140551   3.749   0.358  10.392  0.8719  0.2907  0.4077
 5452TIP3    H240552   3.647   0.470  10.394 -1.0657 -1.4102  1.9617
 5453TIP3   OH240553   6.394   0.980  10.989 -0.0966 -1.1507 -0.5661
 5453TIP3    H140554   6.350   1.034  10.923  0.7264  0.4657  0.1543
 5453TIP3    H240555   6.440   1.043  11.045 -1.8581 -2.2973  2.4145
 5454TIP3   OH240556   4.345   1.022  10.891 -0.3235 -0.3019 -0.0498
 5454TIP3    H140557   4.266   0.997  10.938 -0.4865 -0.4878 -0.4197
 5454TIP3    H240558   4.416   1.004  10.952 -0.2917 -2.9170 -0.7191
 5455TIP3   OH240559   5.999   2.491   9.589  0.3545  0.0996 -0.2507
 5455TIP3    H140560   5.989   2.407   9.544 -2.8706  1.0747 -1.6822
 5455TIP3    H240561   6.094   2.502   9.598  0.9383 -3.1319 -0.9880
 5456TIP3   OH240562   6.707   4.959  10.873 -0.3214  0.2866 -0.0984
 5456TIP3    H140563   6.801   4.949  10.857 -0.6264 -1.7428 -0.9642
 5456TIP3    H240564   6.689   4.902  10.947 -0.5688  2.2644  1.4392
 5457TIP3   OH240565   4.216   6.044   9.380  0.1262 -0.2691  0.0850
 5457TIP3    H140566   4.182   5.961   9.414  1.4025 -0.8980 -0.1253
 5457TIP3    H240567   4.138   6.100   9.372 -0.9482 -1.8556 -1.0129
 5458TIP3   OH240568   1.464   0.277   9.282 -0.0298  0.1851 -0.1183
 5458TIP3    H140569   1.452   0.278   9.377 -1.3129 -1.3252 -0.2185
 5458TIP3    H240570   1.489   0.187   9.262  0.5112  0.5551 -1.2003
 5459TIP3   OH240571   4.369   4.418  11.101 -0.1968 -0.6915  0.3306
 5459TIP3    H140572   4.331   4.408  11.014  2.2941  1.3011 -1.1198
 5459TIP3    H240573   4.402   4.331  11.123 -0.2950 -1.0945 -1.0142
 5460TIP3   OH240574   4.742   1.873  11.989 -0.4546 -0.1364  0.4436
 5460TIP3    H140575   4.762   1.850  12.080  0.0124  0.4472  0.4971
 5460TIP3    H240576   4.740   1.969  11.988  0.3881 -0.1110 -0.3233
 5461TIP3   OH240577   5.980   6.389  10.242 -0.2682 -0.6963  0.6606
 5461TIP3    H140578   5.962   6.438  10.162  0.7793 -0.2835  0.6616
 5461TIP3    H240579   5.982   6.297  10.214  0.4975 -0.5271  0.1164
 5462TIP3   OH240580   1.955   3.730   9.650 -0.2362 -0.4311 -0.1974
 5462TIP3    H140581   1.936   3.800   9.587 -3.1752 -2.5485 -1.9456
 5462TIP3    H240582   1.877   3.727   9.706  0.0701 -1.8685  0.2025
 5463TIP3   OH240583   1.532   6.197  10.895 -0.1813 -0.2024  0.4774
 5463TIP3    H140584   1.542   6.202  10.990  0.4384 -1.9679  0.5517
 5463TIP3    H240585   1.439   6.211  10.880 -0.1485  0.9579  1.2520
 5464TIP3   OH240586   6.619   2.070   9.762 -0.2854 -0.1910  0.9330
 5464TIP3    H140587   6.696   2.126   9.772  0.4024 -0.7873 -0.7334
 5464TIP3    H240588   6.605   2.034   9.850  0.0182  1.5596  1.7550
 5465TIP3   OH240589   2.243   2.345  11.565  0.2812  0.5741  0.0967
 5465TIP3    H140590   2.215   2.414  11.505  2.4190 -0.4298 -2.2393
 5465TIP3    H240591   2.333   2.368  11.587 -0.1532  0.3883  2.2091
 5466TIP3   OH240592   0.744   2.325  11.333 -0.4540  0.2040 -0.8813
 5466TIP3    H140593   0.801   2.319  11.410 -1.2225  1.4526 -0.1654
 5466TIP3    H240594   0.739   2.235  11.300  0.7876 -0.1691 -0.1464
 5467TIP3   OH240595   0.476   3.745  10.619 -0.0659  0.3214 -0.3757
 5467TIP3    H140596   0.459   3.728  10.712 -1.0976  1.9236 -0.2232
 5467TIP3    H240597   0.389   3.741  10.578  0.4259 -0.7746 -1.3687
 5468TIP3   OH240598   6.309   4.729  12.261 -0.0289  0.1773  0.0997
 5468TIP3    H140599   6.388   4.776  12.286  0.7489 -0.9194 -0.1796
 5468TIP3    H240600   6.279   4.774  12.182 -0.8026  1.7848  1.2518
 5469TIP3   OH240601   6.227   3.306  11.606  0.4581 -0.2197 -0.9534
 5469TIP3    H140602   6.225   3.226  11.658 -0.4337 -0.1573 -0.8674
 5469TIP3    H240603   6.317   3.337  11.611  0.4692 -0.4119  0.2568
 5470TIP3   OH240604   3.193   2.759   9.387  0.2755  0.4284  0.2110
 5470TIP3    H140605   3.260   2.823   9.364 -1.9436  2.1390 -1.9324
 5470TIP3    H240606   3.166   2.784   9.476  0.1557  1.9153 -0.2070
 5471TIP3   OH240607   5.576   3.350  12.341  0.0779 -0.2678 -0.6000
 5471TIP3    H140608   5.519   3.297  12.286 -0.6763 -0.0977  0.0155
 5471TIP3    H240609   5.662   3.343  12.299 -0.1647 -1.3813 -0.9339
 5472TIP3   OH240610   0.961   1.477  11.566 -0.1797 -0.1080 -0.1699
 5472TIP3    H140611   0.937   1.550  11.508  1.8055  1.2803  0.6291
 5472TIP3    H240612   1.039   1.440  11.526  1.9062  1.5761  2.0129
 5473TIP3   OH240613   2.072   5.500  12.153 -0.5212 -0.3835  0.0807
 5473TIP3    H140614   2.007   5.523  12.219 -0.1978  1.6331 -0.2408
 5473TIP3    H240615   2.123   5.429  12.192 -0.9141  0.1549  1.6130
 5474TIP3   OH240616   4.991   6.277  12.003 -0.2989 -0.1782 -0.0668
 5474TIP3    H140617   4.940   6.353  11.975  0.5591  1.1306  1.7206
 5474TIP3    H240618   4.947   6.246  12.083  0.8001  0.0517  0.6526
 5475TIP3   OH240619   6.160   4.383  12.214 -0.1385 -0.0341 -0.2551
 5475TIP3    H140620   6.195   4.370  12.302 -1.6412  1.8684  0.6982
 5475TIP3    H240621   6.071   4.350  12.219 -0.7708  1.5711 -0.5660
 5476TIP3   OH240622   4.823   3.351  11.827 -0.6970  0.2203 -0.7567
 5476TIP3    H140623   4.907   3.341  11.783  0.3144  1.5288  0.7665
 5476TIP3    H240624   4.803   3.263  11.860  0.4994  0.0617 -0.4075
 5477TIP3   OH240625   0.481   0.716  11.323  0.1407  0.0336  0.3462
 5477TIP3    H140626   0.402   0.710  11.377  0.1088 -0.2787  0.2679
 5477TIP3    H240627   0.534   0.641  11.348 -1.0161 -1.6368 -1.8422
 5478TIP3   OH240628   3.751   5.048  10.656  0.0970  0.1226 -0.0370
 5478TIP3    H140629   3.822   4.995  10.620  0.1056  0.9663 -1.3783
 5478TIP3    H240630   3.777   5.138  10.636 -0.5810  0.5509  0.9236
 5479TIP3   OH240631   2.252   0.430   9.995  0.3749 -0.5518 -0.0377
 5479TIP3    H140632   2.329   0.379  10.024 -0.5376 -2.0293 -0.1106
 5479TIP3    H240633   2.281   0.473   9.915  1.2366 -0.8397  0.1000
 5480TIP3   OH240634   1.029   0.471  12.180 -0.1282 -0.4392  0.4219
 5480TIP3    H140635   1.085   0.531  12.230 -0.2041  1.8645 -2.0254
 5480TIP3    H240636   1.037   0.387  12.226  0.7303  1.1631  3.5017
 5481TIP3   OH240637   0.579   6.333  10.272  0.2229  0.9082  0.1885
 5481TIP3    H140638   0.604   6.414  10.228  2.6670 -0.5400 -1.3110
 5481TIP3    H240639   0.627   6.264  10.226  0.0814 -1.1678  2.8573
 5482TIP3   OH240640   1.919   2.764  11.377  0.4654  0.1766 -0.1020
 5482TIP3    H140641   1.955   2.813  11.303  0.4826  0.1273 -0.1263
 5482TIP3    H240642   1.997   2.730  11.422  0.4153 -2.0003 -1.5441
 5483TIP3   OH240643   0.548   1.331  10.875  0.2628 -0.3747  0.0866
 5483TIP3    H140644   0.537   1.385  10.797  1.8894  0.8253  0.6152
 5483TIP3    H240645   0.620   1.272  10.853  1.5085  0.7251  0.9802
 5484TIP3   OH240646   6.577   2.710  12.265  0.3364  0.3166 -0.3970
 5484TIP3    H140647   6.672   2.719  12.262  0.2780  1.8263  1.1927
 5484TIP3    H240648   6.557   2.694  12.357 -1.0336  1.1790 -0.5199
 5485TIP3   OH240649   3.405   3.364  10.203  0.2102  0.1208 -0.1140
 5485TIP3    H140650   3.413   3.386  10.110  0.3113 -1.4054 -0.4883
 5485TIP3    H240651   3.407   3.269  10.205 -2.3265  0.0069  1.1963
 5486TIP3   OH240652   5.291   3.051  10.991 -0.1010 -0.5071 -0.2769
 5486TIP3    H140653   5.263   3.022  10.904 -0.8988  0.4208 -0.3516
 5486TIP3    H240654   5.227   3.013  11.051 -0.2917 -0.1189 -0.2305
 5487TIP3   OH240655   5.493   6.691   9.728  0.2417  0.0429 -0.7016
 5487TIP3    H140656   5.420   6.753   9.722 -1.3279 -1.0412  3.5663
 5487TIP3    H240657   5.463   6.614   9.680 -0.1205  0.6334 -1.4440
 5488TIP3   OH240658   2.556   1.724  11.148 -0.0145 -0.0607  0.3786
 5488TIP3    H140659   2.515   1.717  11.234  0.1641 -1.8519  0.3529
 5488TIP3    H240660   2.497   1.675  11.090 -0.0936  1.0536 -0.5177
 5489TIP3   OH240661   3.144   2.034  11.613  0.6208  0.2296 -0.9493
 5489TIP3    H140662   3.196   1.954  11.628  0.8135  0.6091  0.5854
 5489TIP3    H240663   3.069   2.025  11.672  0.2649  0.8690 -1.2937
 5490TIP3   OH240664   1.271   3.967  10.872  0.5724 -0.1713  0.1621
 5490TIP3    H140665   1.344   4.028  10.864  0.0191  0.5019  0.1152
 5490TIP3    H240666   1.197   4.013  10.832  0.7242 -1.9543 -2.3750
 5491TIP3   OH240667   5.109   3.357  10.702  0.1094  0.3647  0.9610
 5491TIP3    H140668   5.102   3.437  10.753  0.4063 -0.3512  2.1558
 5491TIP3    H240669   5.198   3.358  10.667 -0.1871  0.9950  0.1831
 5492TIP3   OH240670   4.938   6.380  11.232 -0.2499  0.0806 -0.5307
 5492TIP3    H140671   5.016   6.340  11.273  0.2076  0.5989 -0.8850
 5492TIP3    H240672   4.923   6.326  11.154 -0.8355 -0.6148  0.0481
 5493TIP3   OH240673   2.193   1.877   9.733 -0.1652  0.0156 -0.4722
 5493TIP3    H140674   2.143   1.818   9.790 -0.2040  0.8946  0.4178
 5493TIP3    H240675   2.258   1.820   9.692 -1.8362 -1.1637 -1.6321
 5494TIP3   OH240676   5.161   0.717  10.294 -0.1731  0.2797  0.5902
 5494TIP3    H140677   5.134   0.784  10.356 -0.0187 -0.1014  1.0803
 5494TIP3    H240678   5.254   0.704  10.311  0.2837  1.3468 -0.8637
 5495TIP3   OH240679   0.057   3.958  11.997  0.0742  0.0181  0.3704
 5495TIP3    H140680   0.068   3.891  12.064  0.9629 -0.1350  0.0877
 5495TIP3    H240681   0.146   3.981  11.971 -0.2379  0.0005 -0.8168
 5496TIP3   OH240682   1.275   2.269   9.849 -0.0228 -0.1969  0.1727
 5496TIP3    H140683   1.353   2.247   9.900 -0.2130  0.2655  0.6717
 5496TIP3    H240684   1.242   2.349   9.889 -0.2949  0.0617 -0.5502
 5497TIP3   OH240685   6.509   5.751  12.792 -0.2756  0.0416  0.3491
 5497TIP3    H140686   6.510   5.845  12.812 -0.6829 -0.3384  2.3413
 5497TIP3    H240687   6.490   5.747  12.698  2.1998  1.9829 -0.3432
 5498TIP3   OH240688   6.255   2.592   9.670 -0.0456  1.1571 -0.2039
 5498TIP3    H140689   6.326   2.653   9.690  0.4799  0.0047  1.7170
 5498TIP3    H240690   6.253   2.533   9.745  0.5521 -2.2459 -2.6372
 5499TIP3   OH240691   5.906   3.900  12.389 -0.0835  0.0314 -0.0114
 5499TIP3    H140692   5.831   3.888  12.447  0.5235  0.6536  0.9540
 5499TIP3    H240693   5.952   3.976  12.427 -0.0434  0.9070 -1.7307
 5500TIP3   OH240694   2.008   6.087  12.549  0.7420  0.2634 -0.3862
 5500TIP3    H140695   2.048   6.146  12.613 -0.2406 -0.1919  0.6962
 5500TIP3    H240696   1.920   6.122  12.537 -0.2577 -1.5306  1.1182
 5501TIP3   OH240697   4.848   3.666  10.040 -0.3065  0.3850 -0.2440
 5501TIP3    H140698   4.850   3.725   9.965 -1.0538  2.5506  1.3505
 5501TIP3    H240699   4.758   3.634  10.043  0.1361 -1.0276 -1.1974
 5502TIP3   OH240700   4.821   5.088  10.523  0.0760 -0.2846  0.2317
 5502TIP3    H140701   4.842   5.002  10.560 -0.3211 -0.4576  0.0620
 5502TIP3    H240702   4.757   5.125  10.583 -0.4917 -0.5226 -0.2132
 5503TIP3   OH240703   0.883   2.391   9.362 -0.6636  0.1681  0.2869
 5503TIP3    H140704   0.835   2.469   9.334  1.6909  1.1386 -1.3199
 5503TIP3    H240705   0.856   2.378   9.453 -2.4939  1.7291  0.0469
 5504TIP3   OH240706   0.615   5.083   9.125  0.2323 -0.1880  0.5813
 5504TIP3    H140707   0.573   5.000   9.147  0.8389 -0.8472 -0.6931
 5504TIP3    H240708   0.701   5.078   9.167  0.6127 -0.5909 -0.2359
 5505TIP3   OH240709   1.477   0.011   9.231  0.4382 -0.3242  0.2714
 5505TIP3    H140710   1.509   0.014   9.141 -0.4398 -0.4936 -0.0581
 5505TIP3    H240711   1.556   0.006   9.285  0.9293 -1.9953 -0.5561
 5506TIP3   OH240712   4.244   0.866  11.773 -0.4539 -0.1851  0.1018
 5506TIP3    H140713   4.198   0.783  11.760  0.2897 -0.4426 -0.9997
 5506TIP3    H240714   4.279   0.888  11.686  1.1375  0.2089  0.8030
 5507TIP3   OH240715   5.897   0.077  10.020  0.0069 -0.1846  0.4407
 5507TIP3    H140716   5.828   0.064  10.085 -0.4515  0.6225  0.1234
 5507TIP3    H240717   5.854   0.066   9.936  0.2532  0.3814  0.2385
 5508TIP3   OH240718   0.962   2.442  10.718 -0.3478  0.1406  0.3049
 5508TIP3    H140719   0.877   2.404  10.741 -0.2647 -0.1388  0.1555
 5508TIP3    H240720   1.018   2.366  10.702 -0.1988  0.3262 -0.0560
 5509TIP3   OH240721   5.394   1.640   9.692 -0.0052  0.0429  1.0458
 5509TIP3    H140722   5.329   1.616   9.625  0.5753  0.4534  0.3211
 5509TIP3    H240723   5.419   1.557   9.731  0.9784 -0.4284 -0.5041
 5510TIP3   OH240724   1.186   0.589  11.123  0.0930  0.7198 -0.0170
 5510TIP3    H140725   1.220   0.568  11.209  0.3989 -2.1647 -0.7203
 5510TIP3    H240726   1.110   0.644  11.139 -1.0396 -1.3345  2.2789
 5511TIP3   OH240727   4.549   5.951  11.421  0.1085  0.3800  0.0811
 5511TIP3    H140728   4.623   5.899  11.391 -0.9020 -1.9974  1.4215
 5511TIP3    H240729   4.516   5.994  11.342  0.7530 -1.3611 -1.1863
 5512TIP3   OH240730   6.332   0.334  11.383  0.2457  0.1797 -0.1068
 5512TIP3    H140731   6.379   0.410  11.416 -2.3651  1.1626  1.7146
 5512TIP3    H240732   6.241   0.362  11.378 -0.6732 -2.5255 -0.3676
 5513TIP3   OH240733   0.123   4.491  10.639 -0.0845 -0.5381 -0.0853
 5513TIP3    H140734   0.038   4.448  10.650 -0.1791 -0.6715 -1.2773
 5513TIP3    H240735   0.138   4.534  10.723 -2.0474  0.7426 -0.3055
 5514TIP3   OH240736   5.575   0.293   9.748 -0.3323  0.0238  0.1194
 5514TIP3    H140737   5.598   0.376   9.706 -1.0952 -0.3832 -1.1985
 5514TIP3    H240738   5.602   0.303   9.839  1.1199  1.0807 -0.3860
 5515TIP3   OH240739   5.611   5.813   9.485  0.4846  0.0633 -0.4056
 5515TIP3    H140740   5.671   5.800   9.412 -0.9795 -1.9105 -1.3322
 5515TIP3    H240741   5.524   5.820   9.445 -0.6745 -3.2254  1.1189
 5516TIP3   OH240742   5.652   2.111  11.243  0.0096  0.1733  0.2232
 5516TIP3    H140743   5.738   2.102  11.204  0.0295  1.0312  0.0377
 5516TIP3    H240744   5.664   2.089  11.335  0.1461 -0.9835 -0.0591
 5517TIP3   OH240745   6.477   1.774  18.831 -0.4067 -0.5390 -0.3267
 5517TIP3    H140746   6.415   1.704  18.814  0.1504 -1.0009 -0.5096
 5517TIP3    H240747   6.429   1.854  18.813 -1.6621 -0.7620  1.7779
 5518TIP3   OH240748   2.860   3.817  11.125  0.0622  0.1375  1.1249
 5518TIP3    H140749   2.859   3.855  11.037 -1.1311  0.4118  1.2459
 5518TIP3    H240750   2.776   3.772  11.133  0.2250 -0.0209  2.0730
 5519TIP3   OH240751   0.360   4.920  10.608 -0.1321  0.1154  0.0797
 5519TIP3    H140752   0.374   5.009  10.575  1.3245 -0.6501 -1.5405
 5519TIP3    H240753   0.323   4.873  10.533  1.1694 -1.1497  0.1937
 5520TIP3   OH240754   0.894   5.051  12.452  0.9021 -0.2036  0.4176
 5520TIP3    H140755   0.941   5.129  12.483  1.6415 -0.9193  1.1672
 5520TIP3    H240756   0.962   4.984  12.448  0.5147 -0.5249 -1.3631
 5521TIP3   OH240757   5.201   5.139  11.086  0.3010  0.2770 -0.2302
 5521TIP3    H140758   5.286   5.141  11.042  1.1221 -3.0666  0.8520
 5521TIP3    H240759   5.211   5.198  11.161  0.6774  1.9715 -1.5596
 5522TIP3   OH240760   2.605   4.263  12.294  0.0092 -0.1202  0.6769
 5522TIP3    H140761   2.540   4.202  12.258  0.2472  0.9439 -1.7237
 5522TIP3    H240762   2.689   4.221  12.277  0.0988 -0.0722  0.9874
 5523TIP3   OH240763   3.036   5.761  11.350  0.4877 -0.2886 -0.0571
 5523TIP3    H140764   3.083   5.679  11.335  1.7833  0.6051 -1.1009
 5523TIP3    H240765   3.092   5.810  11.411 -0.6120 -0.4476  1.1049
 5524TIP3   OH240766   0.453   4.318  10.850 -0.6958  0.4072 -0.4848
 5524TIP3    H140767   0.374   4.343  10.898  0.1309  1.3500  0.4348
 5524TIP3    H240768   0.460   4.223  10.863 -1.6305  0.3352 -0.4985
 5525TIP3   OH240769   1.230   1.341  10.375 -0.1501  0.0611  0.5523
 5525TIP3    H140770   1.167   1.269  10.376 -0.9987  0.7276 -1.0912
 5525TIP3    H240771   1.315   1.300  10.391 -0.8237 -1.0502  1.3572
 5526TIP3   OH240772   5.309   1.339  10.060 -0.2234 -0.5958 -0.4032
 5526TIP3    H140773   5.312   1.364  10.152 -1.5534 -0.4324 -0.3885
 5526TIP3    H240774   5.216   1.326  10.041  0.0933 -1.4480 -1.5078
 5527TIP3   OH240775   1.335   1.516  10.596 -0.1234 -0.6767 -0.0821
 5527TIP3    H140776   1.356   1.484  10.508  1.6981 -0.4475  0.2329
 5527TIP3    H240777   1.281   1.448  10.635 -1.6221 -0.4432 -1.6241
 5528TIP3   OH240778   0.602   4.128  11.907  0.4461 -0.1588  0.4609
 5528TIP3    H140779   0.586   4.046  11.953  2.8126 -0.3618  1.0571
 5528TIP3    H240780   0.569   4.196  11.965  0.5416 -0.5758  1.0064
 5529TIP3   OH240781   1.122   4.309  20.306  0.6851  0.7837  0.3043
 5529TIP3    H140782   1.087   4.324  20.218 -0.2425  0.9551  0.6929
 5529TIP3    H240783   1.189   4.242  20.293 -0.0395  0.1642 -0.4244
 5530TIP3   OH240784   3.399   6.389  11.626  0.5136 -0.4181  0.0984
 5530TIP3    H140785   3.370   6.409  11.715 -1.0734 -0.3146 -0.4103
 5530TIP3    H240786   3.333   6.429  11.569  1.3597 -0.6908 -1.1306
 5531TIP3   OH240787   1.562   5.237  12.086  0.2660  0.0699  0.9312
 5531TIP3    H140788   1.638   5.278  12.046 -0.1362  1.8585  1.8820
 5531TIP3    H240789   1.489   5.294  12.061 -0.7550 -1.5195  0.1677
 5532TIP3   OH240790   1.250   3.970   9.777  0.3657 -0.0510 -0.3198
 5532TIP3    H140791   1.224   4.054   9.815 -0.4603 -0.2947 -0.3261
 5532TIP3    H240792   1.250   3.909   9.850  0.5358 -0.1391 -0.3927
 5533TIP3   OH240793   0.035   5.408   9.745  0.2006  0.2777  0.6300
 5533TIP3    H140794   0.086   5.410   9.826 -0.8449  3.0102  1.3267
 5533TIP3    H240795   0.093   5.448   9.680  0.7759 -1.2891  0.1143
 5534TIP3   OH240796   1.811   1.620  11.845  0.4260 -0.6146  0.3543
 5534TIP3    H140797   1.889   1.661  11.807 -0.4255 -0.2346 -1.0746
 5534TIP3    H240798   1.739   1.675  11.815 -0.6476 -2.4897 -0.6373
 5535TIP3   OH240799   5.793   6.447  10.962 -0.1769  0.0404  0.0742
 5535TIP3    H140800   5.862   6.487  10.909 -0.6827 -0.4010 -0.9551
 5535TIP3    H240801   5.722   6.511  10.961 -0.2781 -0.0725  0.0117
 5536TIP3   OH240802   1.029   1.054  11.908 -0.3830 -0.3190 -0.2658
 5536TIP3    H140803   0.958   1.060  11.971 -1.0175 -1.5917 -0.8372
 5536TIP3    H240804   1.095   1.000  11.952 -0.2012  0.0096 -0.1319
 5537TIP3   OH240805   0.517   2.631  11.922  0.2358 -0.1396 -0.0216
 5537TIP3    H140806   0.496   2.691  11.994  1.8740  0.9499 -0.4117
 5537TIP3    H240807   0.432   2.610  11.884 -0.5798  0.1082  1.5433
 5538TIP3   OH240808   1.147   3.824  11.845  0.2570  0.4160  0.5403
 5538TIP3    H140809   1.106   3.775  11.916  1.7141 -0.7212  0.6517
 5538TIP3    H240810   1.192   3.897  11.889  0.2134  0.3651  0.6698
 5539TIP3   OH240811   4.801   5.072   9.724 -0.2286  0.2600  0.4888
 5539TIP3    H140812   4.787   5.061   9.630  0.0055  0.3618  0.4397
 5539TIP3    H240813   4.714   5.087   9.760 -0.2858  0.5063  0.2483
 5540TIP3   OH240814   0.227   1.411  11.658  0.1900 -0.2863 -0.6533
 5540TIP3    H140815   0.150   1.359  11.684  0.2644  0.1001  0.4143
 5540TIP3    H240816   0.244   1.466  11.734  1.9393 -0.8330 -0.6049
 5541TIP3   OH240817   3.400   6.118  11.627 -0.0441  0.3412 -0.4219
 5541TIP3    H140818   3.427   6.107  11.536  0.4761  1.3254 -0.3908
 5541TIP3    H240819   3.406   6.212  11.643  1.3190  0.0347  1.0636
 5542TIP3   OH240820   2.297   0.853  10.072  0.4006 -0.4006 -0.5389
 5542TIP3    H140821   2.210   0.881  10.098  0.5271 -0.4541 -0.0367
 5542TIP3    H240822   2.299   0.864   9.977  0.4480  1.2946 -0.3663
 5543TIP3   OH240823   6.407   6.145   9.301 -0.4210 -0.6768 -0.3540
 5543TIP3    H140824   6.315   6.165   9.284 -0.2269  0.2860 -0.3320
 5543TIP3    H240825   6.421   6.172   9.392  0.7804  2.8443 -1.3976
 5544TIP3   OH240826   5.129   4.538  10.675 -0.0026  0.0061  0.4780
 5544TIP3    H140827   5.036   4.556  10.658  0.0584  0.2398  0.3857
 5544TIP3    H240828   5.176   4.606  10.626  0.2545 -0.7149 -0.2988
 5545TIP3   OH240829   0.837   4.634  12.041 -0.2828  0.4777  0.3064
 5545TIP3    H140830   0.864   4.604  12.127 -1.9623 -2.9230 -0.1715
 5545TIP3    H240831   0.919   4.649  11.993  0.6949 -0.6968  1.5536
 5546TIP3   OH240832   5.083   4.418  11.174  0.0488  0.0894  0.0949
 5546TIP3    H140833   4.994   4.440  11.149 -0.2180  0.7197  1.5594
 5546TIP3    H240834   5.089   4.323  11.161 -0.3431  0.2396 -1.4243
 5547TIP3   OH240835   0.807   3.746  11.524 -0.1256  0.0581 -0.1098
 5547TIP3    H140836   0.871   3.675  11.531 -0.7032 -0.3226  1.8284
 5547TIP3    H240837   0.851   3.812  11.471  1.3661 -0.7435  0.0745
 5548TIP3   OH240838   3.747   5.396  10.957 -0.1127 -0.3086  0.1088
 5548TIP3    H140839   3.828   5.447  10.965  0.2125 -0.7475 -0.3548
 5548TIP3    H240840   3.725   5.373  11.047 -0.6364  1.2138  0.3935
 5549TIP3   OH240841   0.716   5.554  11.135 -0.1280  0.1434 -0.8213
 5549TIP3    H140842   0.634   5.504  11.130  0.1648 -0.2193 -2.3662
 5549TIP3    H240843   0.691   5.642  11.105 -0.3207  0.5490  0.4667
 5550TIP3   OH240844   2.264   6.717  12.006  0.1057  0.0059 -0.2784
 5550TIP3    H140845   2.186   6.773  11.999  1.4410  1.9479 -0.2804
 5550TIP3    H240846   2.268   6.693  12.099  0.5255  1.4816  0.1079
 5551TIP3   OH240847   2.916   6.494   9.701 -0.3577  0.2304 -0.2607
 5551TIP3    H140848   2.902   6.540   9.784  1.3142  1.1276 -0.4302
 5551TIP3    H240849   3.009   6.470   9.703 -0.4367 -0.2618 -1.6332
 5552TIP3   OH240850   0.805   0.068   9.796  1.0523 -0.6772 -0.1560
 5552TIP3    H140851   0.835   0.005   9.731  0.5544 -0.6461 -0.4167
 5552TIP3    H240852   0.717   0.094   9.767  0.7607 -0.7814  0.6088
 5553TIP3   OH240853   1.026   0.209  10.844 -0.3176 -0.2754 -0.5898
 5553TIP3    H140854   1.028   0.283  10.783 -0.3074  1.1568  1.0615
 5553TIP3    H240855   1.110   0.212  10.888 -0.6913 -0.6662  0.1648
 5554TIP3   OH240856   1.477   1.812  11.218  0.1480 -0.0977  0.1002
 5554TIP3    H140857   1.524   1.842  11.296  1.0896  1.2664 -0.9271
 5554TIP3    H240858   1.389   1.789  11.250  0.3801  0.8083  1.4983
 5555TIP3   OH240859   2.696   1.112   9.342  0.6103  0.1692 -0.6440
 5555TIP3    H140860   2.611   1.138   9.377  1.4987  2.1383  0.2317
 5555TIP3    H240861   2.717   1.030   9.387 -0.6544 -0.1710 -0.6448
 5556TIP3   OH240862   1.022   0.909  11.220  0.2267 -0.5720  0.4298
 5556TIP3    H140863   1.098   0.887  11.274  0.0162 -2.1269  0.1190
 5556TIP3    H240864   0.965   0.833  11.226 -0.7963  0.1178 -0.2678
 5557TIP3   OH240865   6.731   4.606  12.538  0.3977 -0.1043  0.3001
 5557TIP3    H140866   6.679   4.618  12.617  1.0164  0.3842  0.6459
 5557TIP3    H240867   6.792   4.680  12.538 -0.7604  0.9256 -1.5631
 5558TIP3   OH240868   2.388   0.704  12.036 -0.0390 -0.6763 -0.2482
 5558TIP3    H140869   2.310   0.735  12.081  0.9979  0.2241  1.0385
 5558TIP3    H240870   2.461   0.735  12.091  1.2635 -0.5249 -1.9670
 5559TIP3   OH240871   3.031   1.409  11.858 -0.2472 -0.0741 -0.2629
 5559TIP3    H140872   2.939   1.420  11.833 -0.7422 -3.3801 -0.2698
 5559TIP3    H240873   3.072   1.367  11.783  0.3399 -2.0149  1.0613
 5560TIP3   OH240874   6.337   3.006   9.971 -0.5784 -0.6411 -0.0176
 5560TIP3    H140875   6.243   3.025   9.965 -0.3509  0.6406  0.2612
 5560TIP3    H240876   6.367   3.007   9.880 -0.2926  2.0333  0.0206
 5561TIP3   OH240877   5.074   2.156   9.153  0.2069 -0.1740 -0.2950
 5561TIP3    H140878   4.992   2.204   9.145  0.7029  0.7741  0.2326
 5561TIP3    H240879   5.049   2.074   9.196 -0.4445  0.1562 -0.0296
 5562TIP3   OH240880   3.270   4.006  12.531  0.3100 -0.4081  0.7843
 5562TIP3    H140881   3.265   4.101  12.541 -1.0857 -0.4831  0.9426
 5562TIP3    H240882   3.272   3.972  12.621 -0.3442 -0.5753  0.7369
 5563TIP3   OH240883   2.903   3.885   9.194 -0.5406  0.2535  0.2160
 5563TIP3    H140884   2.878   3.795   9.216  1.1514 -0.5784 -1.0215
 5563TIP3    H240885   2.820   3.932   9.190 -1.4766 -1.2639  0.8352
 5564TIP3   OH240886   4.641   2.627  12.176  0.2565  0.3008  0.6968
 5564TIP3    H140887   4.643   2.532  12.169  0.6916  0.3169  0.6060
 5564TIP3    H240888   4.677   2.646  12.263 -0.4565  0.3536  0.9907
 5565TIP3   OH240889   4.902   5.341   9.440  0.1389 -0.2098 -0.0539
 5565TIP3    H140890   4.813   5.305   9.440 -0.1481  0.4422 -1.3100
 5565TIP3    H240891   4.958   5.267   9.418 -0.0670 -0.6479  0.8476
 5566TIP3   OH240892   5.580   3.234  10.681  0.3942 -0.3265  0.1528
 5566TIP3    H140893   5.556   3.154  10.728  0.7997  0.0583  1.0457
 5566TIP3    H240894   5.670   3.252  10.708  0.1324  0.7248  0.3931
 5567TIP3   OH240895   3.731   3.826  11.881 -0.4123  0.1292 -0.7967
 5567TIP3    H140896   3.757   3.763  11.947 -0.3412  2.0040  1.0742
 5567TIP3    H240897   3.637   3.838  11.894 -0.4432  0.3383 -1.1797
 5568TIP3   OH240898   3.734   1.735   9.330  0.2094 -0.5672 -0.1723
 5568TIP3    H140899   3.726   1.655   9.277 -0.3029 -1.0151  0.5580
 5568TIP3    H240900   3.653   1.737   9.382  0.7501 -0.2078  0.6795
 5569TIP3   OH240901   0.293   1.266  11.235  0.1006 -0.1813  0.3420
 5569TIP3    H140902   0.385   1.253  11.212  0.1030  0.1546  0.1511
 5569TIP3    H240903   0.282   1.218  11.317  0.8501  1.0752  1.2133
 5570TIP3   OH240904   1.106   1.508  10.195  0.1796  0.0081  0.3272
 5570TIP3    H140905   1.096   1.586  10.249  0.8437 -0.8817  1.8177
 5570TIP3    H240906   1.152   1.446  10.251 -1.1902 -1.8088 -0.4286
 5571TIP3   OH240907   1.647   1.012  10.337 -0.2950 -0.3970  0.1633
 5571TIP3    H140908   1.686   0.926  10.346 -0.4568 -0.4993 -0.0913
 5571TIP3    H240909   1.679   1.045  10.254 -1.5995 -0.9423 -0.5956
 5572TIP3   OH240910   4.478   6.171  13.364 -0.4930  0.6779  0.4565
 5572TIP3    H140911   4.544   6.199  13.427  0.0340 -0.1901  0.3029
 5572TIP3    H240912   4.512   6.198  13.279  1.4972 -2.9018 -0.0504
 5573TIP3   OH240913   3.438   5.271   9.077  0.1120 -0.5064 -0.2104
 5573TIP3    H140914   3.407   5.219   9.152  3.6754 -2.3014  0.2125
 5573TIP3    H240915   3.372   5.256   9.010 -1.7080 -1.2240  1.6169
 5574TIP3   OH240916   2.838   0.548  12.602  0.5888  0.9860  0.5680
 5574TIP3    H140917   2.788   0.489  12.545 -1.4099  0.5543  2.6242
 5574TIP3    H240918   2.925   0.508  12.608  0.4653  0.3800 -1.1212
 5575TIP3   OH240919   2.302   1.805  10.828 -0.3377 -0.5018 -0.8091
 5575TIP3    H140920   2.266   1.731  10.877 -1.2390  0.3965 -0.0724
 5575TIP3    H240921   2.246   1.813  10.751  0.1887 -1.0021 -1.2567
 5576TIP3   OH240922   3.562   2.112  10.175  0.4000 -1.1008 -0.1034
 5576TIP3    H140923   3.516   2.056  10.112 -1.2099 -0.5915  0.5492
 5576TIP3    H240924   3.493   2.142  10.235  1.4488  0.4581  0.3922
 5577TIP3   OH240925   3.040   1.419  10.676 -0.0523 -0.0157 -0.3817
 5577TIP3    H140926   3.004   1.507  10.666  0.6558  0.1771 -1.4731
 5577TIP3    H240927   3.129   1.433  10.709 -0.6782 -0.4494  1.5886
 5578TIP3   OH240928   4.372   2.830  12.787  0.0296  0.0138  0.5559
 5578TIP3    H140929   4.315   2.761  12.822  0.0089  0.1370  0.7644
 5578TIP3    H240930   4.458   2.789  12.782  0.1341  0.1365  1.1982
 5579TIP3   OH240931   6.298   2.799  12.095 -0.6956 -0.7545  0.1924
 5579TIP3    H140932   6.249   2.879  12.077  1.2187  0.2553 -0.8769
 5579TIP3    H240933   6.301   2.753  12.011 -1.5955 -1.8684  0.7467
 5580TIP3   OH240934   1.766   1.970   9.759  0.0998  0.2155 -0.2697
 5580TIP3    H140935   1.798   1.969   9.669  1.2684 -2.6785  0.0865
 5580TIP3    H240936   1.681   1.926   9.755 -0.4202  1.1844 -0.1134
 5581TIP3   OH240937   2.215   1.382   9.221 -0.0473 -0.5173 -0.1312
 5581TIP3    H140938   2.163   1.324   9.165 -3.2405  1.3221  0.6207
 5581TIP3    H240939   2.166   1.385   9.304  1.2943  1.3593  0.6682
 5582TIP3   OH240940   2.901   4.491  11.193 -0.7081  0.0849  0.0477
 5582TIP3    H140941   2.875   4.446  11.273 -1.0909 -2.5412 -1.4245
 5582TIP3    H240942   2.959   4.429  11.149  0.1313  1.7852 -1.3368
 5583TIP3   OH240943   3.802   0.686  10.873 -0.1571  0.2173  0.1288
 5583TIP3    H140944   3.885   0.640  10.865 -0.2614 -0.1842  1.2112
 5583TIP3    H240945   3.808   0.731  10.957 -1.4130 -0.5976  0.6776
 5584TIP3   OH240946   2.977   3.959  12.461  0.4703 -0.0304 -0.4134
 5584TIP3    H140947   2.935   3.988  12.542  0.2332 -1.3991 -0.0233
 5584TIP3    H240948   3.069   3.947  12.485  0.4988  0.0611 -0.4777
 5585TIP3   OH240949   5.233   2.196  10.189 -0.3240  0.3919  0.2243
 5585TIP3    H140950   5.189   2.252  10.125 -1.4663 -0.0144  0.6270
 5585TIP3    H240951   5.234   2.109  10.148  1.1185  0.6091 -0.2484
 5586TIP3   OH240952   3.237   1.310  11.105  0.1456 -0.1228 -0.5046
 5586TIP3    H140953   3.183   1.365  11.049  0.5045  1.1567  0.3758
 5586TIP3    H240954   3.242   1.357  11.188  0.1997 -1.6410  0.3949
 5587TIP3   OH240955   4.021   3.122  11.113 -0.7252 -0.0438 -0.0702
 5587TIP3    H140956   3.943   3.172  11.135 -1.1573 -0.6666 -0.1741
 5587TIP3    H240957   4.073   3.181  11.059 -1.0187  0.4497  0.1804
 5588TIP3   OH240958   6.612   3.251  11.164  0.3159 -0.3728 -0.3003
 5588TIP3    H140959   6.527   3.233  11.206  0.3529  1.1195  0.4763
 5588TIP3    H240960   6.589   3.295  11.082  0.3317  0.3293  0.0648
 5589TIP3   OH240961   4.261   1.030   9.967 -0.4538  0.0983  0.0170
 5589TIP3    H140962   4.284   1.001   9.879  1.3529 -0.7721  0.7053
 5589TIP3    H240963   4.265   0.950  10.020  0.5136  0.9079  1.2270
 5590TIP3   OH240964   2.278   3.226   9.680  0.0132  0.3945 -0.4117
 5590TIP3    H140965   2.329   3.154   9.717  3.1600  0.7842 -3.3984
 5590TIP3    H240966   2.192   3.188   9.662  0.2224 -1.3445  1.7787
 5591TIP3   OH240967   2.470   4.754  12.674  0.4019 -0.0367  0.1202
 5591TIP3    H140968   2.538   4.730  12.737  0.0636 -0.6864  0.2359
 5591TIP3    H240969   2.391   4.764  12.726  0.8728  3.2893  0.4229
 5592TIP3   OH240970   0.174   3.506  12.039  0.3720 -0.0655  0.6563
 5592TIP3    H140971   0.222   3.448  11.981 -0.8611 -0.0292 -0.4310
 5592TIP3    H240972   0.096   3.457  12.065 -0.2484  0.7696  0.4207
 5593TIP3   OH240973   5.030   5.785   9.750  0.0629 -0.0050  0.1513
 5593TIP3    H140974   4.975   5.742   9.685  1.5326  1.0025 -1.8571
 5593TIP3    H240975   5.021   5.878   9.731  1.6150  0.2362  0.4772
 5594TIP3   OH240976   3.351   3.282  10.643  0.0022  0.1720 -0.3368
 5594TIP3    H140977   3.422   3.319  10.591 -0.5296  0.0823 -1.1438
 5594TIP3    H240978   3.332   3.198  10.602 -1.0791  0.5312 -0.6234
 5595TIP3   OH240979   4.319   3.076  12.876 -0.3985 -0.4102  0.0381
 5595TIP3    H140980   4.327   3.068  12.971 -1.6311 -0.7917  0.1247
 5595TIP3    H240981   4.331   2.987  12.843 -0.1145 -0.3005 -0.1642
 5596TIP3   OH240982   6.659   4.759  11.678  0.8527  0.4624  0.3805
 5596TIP3    H140983   6.630   4.803  11.758  1.3297 -0.1162  0.8727
 5596TIP3    H240984   6.578   4.735  11.633  0.5838  0.8523  0.6507
 5597TIP3   OH240985   4.357   1.837  10.361 -0.3308  0.0704 -0.1206
 5597TIP3    H140986   4.273   1.812  10.324 -1.1459 -0.0758  1.7561
 5597TIP3    H240987   4.382   1.915  10.312 -1.0917 -0.4013 -1.3165
 5598TIP3   OH240988   4.462   1.950  11.210  0.2353  0.6128  0.1841
 5598TIP3    H140989   4.410   2.013  11.160 -0.0228  0.8724  0.7704
 5598TIP3    H240990   4.488   1.997  11.289  1.4553  0.5196 -0.1442
 5599TIP3   OH240991   5.174   0.448   9.798  0.0064  0.4680  0.4546
 5599TIP3    H140992   5.236   0.506   9.842  0.3489  0.0608  0.5132
 5599TIP3    H240993   5.090   0.468   9.839  0.5048 -0.7368  2.1763
 5600TIP3   OH240994   1.454   0.070   9.701 -0.3223  0.0997  0.2903
 5600TIP3    H140995   1.496   0.135   9.645  0.2511 -1.2242 -0.8851
 5600TIP3    H240996   1.363   0.100   9.710  0.0339  1.2565  0.1069
 5601TIP3   OH240997   1.402   6.449   9.364 -0.0438  0.0834  0.3025
 5601TIP3    H140998   1.363   6.536   9.365 -0.5399 -0.1068  2.4668
 5601TIP3    H240999   1.327   6.390   9.372  0.4432 -0.4252  1.2688
 5602TIP3   OH241000   5.581   2.055   9.192  0.4682  0.6142 -0.5108
 5602TIP3    H141001   5.595   2.024   9.281  1.0114  0.9450 -0.4827
 5602TIP3    H241002   5.584   2.150   9.198 -1.3810  0.7093 -0.5732
 5603TIP3   OH241003   4.481   3.782   9.182 -0.0498  0.3624  0.0958
 5603TIP3    H141004   4.398   3.740   9.205 -0.3767  0.2917 -1.1391
 5603TIP3    H241005   4.519   3.724   9.116  0.9264  0.4679  0.5575
 5604TIP3   OH241006   5.582   4.295  10.080  0.6295  0.2297 -0.2313
 5604TIP3    H141007   5.562   4.298   9.987  1.0217 -1.8620 -0.4304
 5604TIP3    H241008   5.550   4.210  10.109 -0.5043  1.2658  1.8254
 5605TIP3   OH241009   1.577   6.265   9.277 -0.1890  0.1489  0.0976
 5605TIP3    H141010   1.671   6.282   9.274 -0.0109 -0.8813 -1.0260
 5605TIP3    H241011   1.536   6.351   9.276  0.7021  0.5999 -2.1572
 5606TIP3   OH241012   1.256   0.389   9.673 -0.1230  0.4295 -0.4820
 5606TIP3    H141013   1.338   0.438   9.662  0.0102  0.1894 -0.5571
 5606TIP3    H241014   1.219   0.425   9.754  0.2389  0.2827 -0.2485
 5607TIP3   OH241015   2.847   3.368   9.223  0.0859  0.0204 -0.3551
 5607TIP3    H141016   2.784   3.396   9.156 -0.3165  3.2796  1.1802
 5607TIP3    H241017   2.804   3.297   9.269 -1.3549  0.4465 -0.9864
 5608TIP3   OH241018   6.699   3.736  11.111 -0.2888  0.1021 -0.4228
 5608TIP3    H141019   6.638   3.793  11.065  0.2036  1.4726  0.5530
 5608TIP3    H241020   6.755   3.795  11.161  0.5268 -1.2208  0.3095
 5609TIP3   OH241021   0.503   6.333   9.888 -0.6845 -0.3743 -0.1982
 5609TIP3    H141022   0.466   6.298   9.807  0.6746 -2.4585  0.0075
 5609TIP3    H241023   0.487   6.265   9.954  1.4226 -0.3536  0.4118
 5610TIP3   OH241024   5.810   5.719  10.087  0.0809 -0.7334  0.2608
 5610TIP3    H141025   5.763   5.767  10.018  0.4820 -1.9863 -0.9165
 5610TIP3    H241026   5.752   5.646  10.109 -0.4575  0.1267  1.9515
 5611TIP3   OH241027   0.814   4.741   9.616  0.2284 -0.6573 -0.3501
 5611TIP3    H141028   0.874   4.796   9.564  1.2937 -1.3395  0.1286
 5611TIP3    H241029   0.755   4.703   9.551 -1.2651  1.8588 -0.6051
 5612TIP3   OH241030   6.672   6.258  10.951  0.2335 -0.3240  0.0996
 5612TIP3    H141031   6.654   6.177  10.903 -0.2649  0.2779 -0.7525
 5612TIP3    H241032   6.729   6.231  11.023  0.1017 -1.4248 -0.1954
 5613TIP3   OH241033   4.715   1.826  11.129 -0.3558  0.6840 -0.0812
 5613TIP3    H141034   4.623   1.848  11.147 -0.8009 -0.4504 -0.8410
 5613TIP3    H241035   4.733   1.749  11.183 -0.0938  0.4374 -0.5121
 5614TIP3   OH241036   4.020   5.067   9.501 -0.7677 -0.0659  0.4897
 5614TIP3    H141037   4.093   5.011   9.475 -0.5929 -0.4771  1.8081
 5614TIP3    H241038   4.048   5.156   9.477 -0.7755 -0.4438 -1.0113
 5615TIP3   OH241039   4.522   5.942   9.844 -0.2958 -0.0913  0.7662
 5615TIP3    H141040   4.514   5.855   9.805  0.7382 -0.3138  1.0290
 5615TIP3    H241041   4.543   5.926   9.936  0.1075  0.4303  0.7688
 5616TIP3   OH241042   6.315   4.765  12.556 -0.3966  0.0083  0.5940
 5616TIP3    H141043   6.350   4.791  12.642 -1.4981  0.0727  1.0361
 5616TIP3    H241044   6.301   4.847  12.510 -0.7625  0.0327  0.7437
 5617TIP3   OH241045   1.471   2.584   9.923 -0.3519  0.0909  0.5363
 5617TIP3    H141046   1.469   2.520   9.852  2.7980 -0.2531  0.6056
 5617TIP3    H241047   1.523   2.656   9.888 -1.1252  1.1772  1.5640
 5618TIP3   OH241048   4.748   5.620  12.529 -0.2743 -0.1081 -1.1853
 5618TIP3    H141049   4.779   5.624  12.619 -0.8165 -2.8088 -0.7887
 5618TIP3    H241050   4.824   5.645  12.476  0.6875 -0.5402 -0.0544
 5619TIP3   OH241051   4.174   5.703  11.719  0.3665 -0.1913  0.0819
 5619TIP3    H141052   4.208   5.784  11.757  2.3893 -1.0444  0.2524
 5619TIP3    H241053   4.090   5.689  11.763  1.2779  0.3946  2.1460
 5620TIP3   OH241054   2.304   4.329  10.840  0.1966  0.2507 -0.1350
 5620TIP3    H141055   2.384   4.352  10.888 -0.3702  0.3368  0.7945
 5620TIP3    H241056   2.238   4.318  10.908 -0.2803 -1.1282 -0.7896
 5621TIP3   OH241057   1.307   4.153  13.210  0.1152 -0.3354 -0.0942
 5621TIP3    H141058   1.354   4.161  13.126  1.3964 -2.1600  0.4092
 5621TIP3    H241059   1.313   4.061  13.232 -0.2472  0.1100  2.0106
 5622TIP3   OH241060   2.031   3.485  12.306  0.5539  0.4642 -0.0045
 5622TIP3    H141061   2.038   3.500  12.400  1.4094 -0.6819  0.1265
 5622TIP3    H241062   2.088   3.552  12.267  0.1463  0.9848  0.2737
 5623TIP3   OH241063   0.917   3.931  10.346  0.4547  0.2795  0.1826
 5623TIP3    H141064   0.832   3.929  10.388  0.6725 -0.7555  0.5911
 5623TIP3    H241065   0.980   3.927  10.418  0.8350 -1.5851 -0.2149
 5624TIP3   OH241066   4.071   1.153  11.404  0.3899  0.1319  0.6182
 5624TIP3    H141067   4.101   1.156  11.313  0.1863 -1.1637  0.4826
 5624TIP3    H241068   4.031   1.238  11.419  0.5081  0.3966 -0.4780
 5625TIP3   OH241069   6.746   2.686  11.597  0.0542 -0.5979 -0.0119
 5625TIP3    H141070   6.700   2.668  11.679  0.2565  1.9089  0.7339
 5625TIP3    H241071   6.697   2.758  11.558  1.2204 -0.3304 -1.0224
 5626TIP3   OH241072   1.461   1.552  11.132  0.3553 -0.0137  0.6498
 5626TIP3    H141073   1.471   1.647  11.137 -2.0187  0.4102 -1.0946
 5626TIP3    H241074   1.372   1.535  11.161  0.8244 -1.7792  1.1804
 5627TIP3   OH241075   3.366   0.217  11.033 -0.0494 -0.2150  0.0419
 5627TIP3    H141076   3.379   0.209  10.939 -0.3516  2.4173 -0.3015
 5627TIP3    H241077   3.452   0.241  11.067 -0.4542  1.3754  0.0262
 5628TIP3   OH241078   3.046   4.341   9.628  0.1387  0.0205  0.8807
 5628TIP3    H141079   2.980   4.353   9.559 -0.0285 -0.1672  1.0083
 5628TIP3    H241080   3.062   4.429   9.661  1.7291  0.4013 -0.7914
 5629TIP3   OH241081   3.767   2.497  10.956 -0.4003 -0.0442 -0.1701
 5629TIP3    H141082   3.804   2.456  11.034 -1.4105 -1.0113 -0.1883
 5629TIP3    H241083   3.804   2.586  10.957 -0.4030 -0.0220  1.4179
 5630TIP3   OH241084   4.283   6.090  13.205  0.0264  0.8412 -0.3918
 5630TIP3    H141085   4.315   6.113  13.293  1.5794 -1.0034 -0.4068
 5630TIP3    H241086   4.351   6.123  13.146 -0.2111  0.6288 -0.7840
 5631TIP3   OH241087   5.562   5.070  10.705  0.3817  0.1034 -0.0195
 5631TIP3    H141088   5.593   4.985  10.672 -1.3812  0.0119 -1.5969
 5631TIP3    H241089   5.484   5.089  10.653 -0.2558  1.9010  1.4881
 5632TIP3   OH241090   1.405   2.945   9.627 -0.2372  0.0182 -0.3795
 5632TIP3    H141091   1.420   2.936   9.721 -0.6385 -0.0886 -0.3276
 5632TIP3    H241092   1.414   2.856   9.593  0.1825  0.0949 -0.4868
 5633TIP3   OH241093   0.293   0.419  11.828  0.3093 -0.3285 -0.8235
 5633TIP3    H141094   0.339   0.335  11.827  1.3149  0.2204 -1.3097
 5633TIP3    H241095   0.342   0.473  11.890  0.7460  0.4757 -1.8291
 5634TIP3   OH241096   5.174   5.904  11.691  0.0288 -0.0113  0.1869
 5634TIP3    H141097   5.099   5.860  11.651 -0.5444 -0.2755  1.5116
 5634TIP3    H241098   5.145   5.995  11.704 -0.1243 -0.1428  0.8123
 5635TIP3   OH241099   4.002   6.082  12.361  0.2596 -0.1108  0.2535
 5635TIP3    H141100   3.954   6.159  12.392  1.2455  0.5656  0.1097
 5635TIP3    H241101   4.052   6.052  12.437  0.6965  0.0170  0.0143
 5636TIP3   OH241102   3.179   1.789   9.423 -0.3534  0.2130 -0.2711
 5636TIP3    H141103   3.115   1.726   9.390  0.3183 -0.6753  0.0742
 5636TIP3    H241104   3.139   1.825   9.502 -0.5051 -0.1953 -0.1624
 5637TIP3   OH241105   4.172   5.119  10.820 -0.1006 -0.0526 -0.5469
 5637TIP3    H141106   4.158   5.058  10.894 -3.1403  0.3848 -0.6230
 5637TIP3    H241107   4.123   5.198  10.845 -2.1199 -0.2560 -3.3696
 5638TIP3   OH241108   3.871   5.748  11.148  0.2603 -0.0865  0.2690
 5638TIP3    H141109   3.896   5.791  11.230 -0.3732 -1.5857  1.2808
 5638TIP3    H241110   3.778   5.766  11.140  0.4072  0.4142 -0.3560
 5639TIP3   OH241111   2.988   3.417  11.725 -0.0610 -0.3441  0.4836
 5639TIP3    H141112   2.973   3.323  11.739  0.6089 -0.4818  0.3348
 5639TIP3    H241113   3.076   3.432  11.760 -0.3581  0.3296  0.9350
 5640TIP3   OH241114   5.459   3.896  12.149  0.1255  0.1950  0.5421
 5640TIP3    H141115   5.463   3.802  12.163  0.1256  0.3821  2.0699
 5640TIP3    H241116   5.547   3.921  12.120  0.7379 -0.0380  2.0830
 5641TIP3   OH241117   0.791   2.832  10.840  0.1265  0.1667 -0.2008
 5641TIP3    H141118   0.858   2.897  10.819 -0.3853  0.6033 -0.5123
 5641TIP3    H241119   0.746   2.817  10.757  0.7229 -1.1604 -0.3044
 5642TIP3   OH241120   0.033   1.436  10.800  0.4760  0.3746  0.0920
 5642TIP3    H141121   0.077   1.361  10.841 -0.5779  0.4846  1.4905
 5642TIP3    H241122   0.040   1.420  10.706  1.7539 -0.6016  0.3302
 5643TIP3   OH241123   3.940   5.892  10.263  0.3103  0.1282 -0.0111
 5643TIP3    H141124   3.957   5.985  10.248  1.9414  0.1003  1.3963
 5643TIP3    H241125   4.026   5.851  10.260 -0.2764 -1.1962  0.4298
 5644TIP3   OH241126   2.230   5.599  12.454  0.4918 -0.2362  0.1709
 5644TIP3    H141127   2.140   5.567  12.441 -0.5075  1.6965  1.8052
 5644TIP3    H241128   2.277   5.523  12.488 -0.7301 -1.0498  0.1327
 5645TIP3   OH241129   3.848   5.241  11.999 -0.1228  0.0532 -0.3777
 5645TIP3    H141130   3.823   5.203  11.915 -2.7361 -0.7065  0.6489
 5645TIP3    H241131   3.782   5.308  12.016 -1.1123 -1.4164  2.0917
 5646TIP3   OH241132   4.624   4.062  12.419 -0.0236  0.1351 -0.2378
 5646TIP3    H141133   4.623   4.155  12.441 -0.1188  0.4874 -1.6535
 5646TIP3    H241134   4.715   4.045  12.393 -0.0759 -0.0890 -0.2737
 5647TIP3   OH241135   0.248   2.135  10.541 -0.9412  0.1664  0.5821
 5647TIP3    H141136   0.190   2.116  10.615  0.3573  0.2993  1.6691
 5647TIP3    H241137   0.326   2.174  10.581  0.6681 -1.6434 -0.6356
 5648TIP3   OH241138   4.318   2.265  10.827 -0.9332  0.0533 -0.0994
 5648TIP3    H141139   4.271   2.348  10.832 -1.0878  0.1692 -2.3400
 5648TIP3    H241140   4.290   2.227  10.744  2.6191 -0.0082 -1.4573
 5649TIP3   OH241141   6.260   3.420  12.428 -0.2734  0.4362  0.3517
 5649TIP3    H141142   6.172   3.383  12.433 -0.2400  0.3213  0.1198
 5649TIP3    H241143   6.318   3.344  12.419 -0.3826  0.5967 -2.5732
 5650TIP3   OH241144   5.036   1.482  10.310  0.1234  0.6815 -0.3708
 5650TIP3    H141145   4.992   1.538  10.373  0.6624 -0.8249  1.4247
 5650TIP3    H241146   5.129   1.503  10.318  0.3001 -0.2169  0.0977
 5651TIP3   OH241147   3.451   5.013  12.538  0.2339  0.2698 -0.6739
 5651TIP3    H141148   3.410   5.058  12.464 -1.0189 -0.8226 -0.6716
 5651TIP3    H241149   3.448   4.920  12.515  1.5090  0.0485 -0.0595
 5652TIP3   OH241150   1.459   3.727  10.682  0.4749  0.5572  0.1292
 5652TIP3    H141151   1.532   3.728  10.743  0.3985  1.0984  0.2187
 5652TIP3    H241152   1.388   3.773  10.728  0.8669  2.2868 -0.8858
 5653TIP3   OH241153   3.964   6.339  10.714 -0.3306  0.0033  0.2733
 5653TIP3    H141154   3.869   6.332  10.708 -0.5358  1.5469  1.1648
 5653TIP3    H241155   3.980   6.384  10.797  1.1574  0.0722 -0.0188
 5654TIP3   OH241156   2.771   5.484  11.618 -0.5856 -0.0785 -0.2839
 5654TIP3    H141157   2.814   5.458  11.536 -0.6451 -0.7161 -0.1204
 5654TIP3    H241158   2.686   5.440  11.615 -1.1890  1.0907 -0.5553
 5655TIP3   OH241159   6.112   3.511   9.699 -0.5910 -0.3137 -0.6101
 5655TIP3    H141160   6.079   3.522   9.788  1.6780  0.4629  0.2213
 5655TIP3    H241161   6.085   3.423   9.673  0.7448 -1.5294  1.8245
 5656TIP3   OH241162   4.523   6.340   9.991  0.0235 -0.8091 -0.2633
 5656TIP3    H141163   4.568   6.282  10.053  1.7043  0.5683 -0.0999
 5656TIP3    H241164   4.470   6.397  10.046 -1.0576 -1.6711 -0.3738
 5657TIP3   OH241165   5.257   3.171  10.458  0.1014 -0.0568 -0.0123
 5657TIP3    H141166   5.311   3.100  10.492 -0.4044 -1.1233 -1.3545
 5657TIP3    H241167   5.305   3.251  10.480  1.5400 -0.9037 -0.0030
 5658TIP3   OH241168   3.956   5.734  12.512 -0.5516  0.6736 -0.2478
 5658TIP3    H141169   3.933   5.641  12.521  3.0440 -0.2830  0.7286
 5658TIP3    H241170   3.972   5.745  12.419 -0.2291  0.0643 -0.2736
 5659TIP3   OH241171   5.710   5.291  11.289 -0.0210  0.4236  0.2506
 5659TIP3    H141172   5.691   5.214  11.237 -0.8050  0.3553  0.6242
 5659TIP3    H241173   5.789   5.328  11.250 -0.8079  0.6021 -1.2485
 5660TIP3   OH241174   4.296   5.000   9.337 -0.2200 -0.0950  0.0683
 5660TIP3    H141175   4.265   4.916   9.304 -0.8281  0.3893 -0.6108
 5660TIP3    H241176   4.389   5.001   9.316 -0.1753 -0.6644  0.2239
 5661TIP3   OH241177   2.951   2.989   9.413  0.0448  0.1330 -0.1432
 5661TIP3    H141178   2.955   3.084   9.410  0.3609  0.1191 -0.2298
 5661TIP3    H241179   3.041   2.962   9.430 -0.1402 -0.1314  0.4397
 5662TIP3   OH241180   4.918   5.018  11.042  0.0796 -0.3112  0.2610
 5662TIP3    H141181   4.859   5.044  10.972  1.5608 -1.1314 -1.3753
 5662TIP3    H241182   4.982   5.090  11.047  1.0610 -1.0985 -0.5624
 5663TIP3   OH241183   3.442   3.783  11.819  0.1075  0.1108  0.1431
 5663TIP3    H141184   3.480   3.868  11.843 -1.2917  0.5881  0.7331
 5663TIP3    H241185   3.362   3.804  11.773  0.3103 -0.8939 -0.7050
 5664TIP3   OH241186   3.679   2.247  11.657  0.8690  0.0109  0.1393
 5664TIP3    H141187   3.601   2.221  11.608  1.2346  0.8855 -0.9451
 5664TIP3    H241188   3.707   2.168  11.702 -0.4395 -0.4028  0.2601
 5665TIP3   OH241189   5.842   3.207  10.162 -0.4311 -0.2356  0.0769
 5665TIP3    H141190   5.788   3.210  10.241 -0.4109  2.5605  0.0832
 5665TIP3    H241191   5.931   3.200  10.194 -0.3871  1.3362  0.3883
 5666TIP3   OH241192   5.863   2.666  11.844  0.3106 -0.5641 -1.0829
 5666TIP3    H141193   5.901   2.578  11.844 -1.8352 -1.5563 -0.4778
 5666TIP3    H241194   5.824   2.676  11.931  1.6823  1.5775 -0.6375
 5667TIP3   OH241195   1.376   6.177  10.555 -0.2957 -0.0698 -0.0044
 5667TIP3    H141196   1.385   6.131  10.472  1.1029 -0.5422  0.3739
 5667TIP3    H241197   1.289   6.216  10.552  0.4192  1.5754 -2.5230
 5668TIP3   OH241198   4.871   4.567  10.561  0.2755  0.3126 -0.0486
 5668TIP3    H141199   4.791   4.579  10.511  0.4209  1.7822  0.0333
 5668TIP3    H241200   4.925   4.509  10.507 -1.0624 -1.2127  0.1842
 5669TIP3   OH241201   2.302   4.009  11.624  0.1233  0.0950 -0.1607
 5669TIP3    H141202   2.218   4.051  11.642  1.1366  2.0317  0.4119
 5669TIP3    H241203   2.359   4.037  11.696  1.5692 -0.2143 -1.1246
 5670TIP3   OH241204   1.728   1.692   9.946  0.1754  0.2295 -0.5297
 5670TIP3    H141205   1.641   1.731   9.960  0.4534  0.6836 -0.0717
 5670TIP3    H241206   1.790   1.762   9.965  0.6558 -0.1768 -0.5736
 5671TIP3   OH241207   3.666   4.862  12.084  0.1658 -0.1347 -0.1080
 5671TIP3    H141208   3.587   4.851  12.138 -0.5033  0.1401 -1.0085
 5671TIP3    H241209   3.694   4.773  12.065 -0.8127 -0.2695 -1.0238
 5672TIP3   OH241210   0.573   1.574  10.997  0.3128 -0.1931  0.3159
 5672TIP3    H141211   0.480   1.595  10.987 -0.1055 -1.0148  2.1291
 5672TIP3    H241212   0.582   1.489  10.954  0.2963  0.0125 -0.1010
 5673TIP3   OH241213   3.237   1.602  11.617  0.1535 -0.0576 -0.4686
 5673TIP3    H141214   3.296   1.623  11.544 -0.2398  0.4655 -0.6415
 5673TIP3    H241215   3.295   1.566  11.684  1.0194  2.3515  0.1817
 5674TIP3   OH241216   5.795   3.070   9.900 -0.0109  0.0632 -0.0388
 5674TIP3    H141217   5.700   3.076   9.889 -0.2706  0.4145  1.9957
 5674TIP3    H241218   5.815   3.133   9.969  1.8361  0.6012 -1.0067
 5675TIP3   OH241219   2.182   6.443   9.614  0.2393  0.2201 -0.1792
 5675TIP3    H141220   2.196   6.516   9.674 -0.0544  1.1972 -1.2631
 5675TIP3    H241221   2.118   6.387   9.659 -0.9055  1.5647 -0.0816
 5676TIP3   OH241222   6.046   1.196  11.412 -0.1154 -0.0623 -0.0981
 5676TIP3    H141223   6.125   1.150  11.440 -1.1518 -1.5895  0.4760
 5676TIP3    H241224   6.000   1.218  11.494 -1.2001 -0.9212 -0.4462
 5677TIP3   OH241225   2.791   5.314  10.665 -0.5209  0.0085 -0.1419
 5677TIP3    H141226   2.748   5.280  10.744 -1.0404 -0.5643 -0.6544
 5677TIP3    H241227   2.866   5.256  10.652 -0.5199  0.0108 -0.1452
 5678TIP3   OH241228   5.597   0.444  10.794  0.0946 -0.4273 -0.3733
 5678TIP3    H141229   5.682   0.485  10.811  0.1571 -1.2464  1.5200
 5678TIP3    H241230   5.553   0.505  10.735  0.7724  1.6157  1.1063
 5679TIP3   OH241231   3.597   0.947  11.560 -0.1146 -0.3106 -0.0922
 5679TIP3    H141232   3.689   0.931  11.539  0.0564 -0.4991  0.7752
 5679TIP3    H241233   3.599   0.999  11.641 -0.6431  3.4003 -2.2181
 5680TIP3   OH241234   2.969   0.091  10.394  0.2989  0.9498 -0.6884
 5680TIP3    H141235   2.907   0.056  10.330 -0.8714  0.5035  0.6568
 5680TIP3    H241236   2.977   0.022  10.460  0.8448  1.7457  0.0898
 5681TIP3   OH241237   1.357   1.180  10.113 -0.3998 -0.1129 -0.0539
 5681TIP3    H141238   1.313   1.145  10.191 -2.4135  1.2177 -0.5149
 5681TIP3    H241239   1.424   1.115  10.092 -1.5724 -1.8310  1.2330
 5682TIP3   OH241240   4.918   3.473  12.645 -0.1401  0.5538 -0.2270
 5682TIP3    H141241   4.974   3.445  12.717 -1.8514 -1.4888  0.4193
 5682TIP3    H241242   4.830   3.446  12.671 -1.4440  3.3640 -1.3307
 5683TIP3   OH241243   2.221   0.813  12.217 -0.1519  0.7057 -0.1591
 5683TIP3    H141244   2.128   0.802  12.197  0.4227 -1.2567 -2.1187
 5683TIP3    H241245   2.224   0.821  12.313 -2.2255 -1.1068  0.1314
 5684TIP3   OH241246   1.979   0.673  11.374  0.6788 -0.0907 -0.4084
 5684TIP3    H141247   1.963   0.647  11.283 -0.7871  0.6933 -0.4068
 5684TIP3    H241248   2.068   0.709  11.373  0.4743  0.4527 -1.6619
 5685TIP3   OH241249   0.258   2.571  10.848 -0.1030 -0.0556 -0.0617
 5685TIP3    H141250   0.256   2.666  10.862  0.8375  0.2664 -1.9027
 5685TIP3    H241251   0.296   2.560  10.761  0.5883 -2.1594  0.4485
 5686TIP3   OH241252   1.344   5.164  11.559 -0.6011  0.8265  0.6162
 5686TIP3    H141253   1.345   5.155  11.464 -0.0023  0.2042  0.6735
 5686TIP3    H241254   1.321   5.077  11.591 -2.1233  1.3560  1.0175
 5687TIP3   OH241255   6.492   4.596  11.252  0.0944 -0.4227 -0.2170
 5687TIP3    H141256   6.578   4.580  11.289  0.9770  2.1642 -0.9254
 5687TIP3    H241257   6.509   4.637  11.167 -1.8092  0.3508 -0.2872
 5688TIP3   OH241258   0.060   1.348  10.439  1.1609  0.4213 -0.0383
 5688TIP3    H141259   0.090   1.331  10.528 -0.2316  1.6714  0.7118
 5688TIP3    H241260   0.030   1.263  10.407  1.1438  0.0650  0.8922
 5689TIP3   OH241261   6.198   0.506  11.141 -0.0052 -0.3263  0.0191
 5689TIP3    H141262   6.107   0.503  11.170 -0.2272 -1.7589 -0.7500
 5689TIP3    H241263   6.225   0.596  11.158 -0.9439 -0.3674  2.0574
 5690TIP3   OH241264   6.120   1.369   9.319 -0.5857  0.3873  0.6695
 5690TIP3    H141265   6.128   1.281   9.282  0.7642  0.7132  0.1087
 5690TIP3    H241266   6.035   1.401   9.289 -0.9090 -0.5726  0.5414
 5691TIP3   OH241267   2.681   1.056  12.439  0.5133 -0.2429  0.5592
 5691TIP3    H141268   2.625   0.979  12.431 -1.6554  1.3574 -0.7367
 5691TIP3    H241269   2.747   1.045  12.370 -1.4790  0.3182 -1.5564
 5692TIP3   OH241270   5.228   0.206  11.673  0.0841  0.2005 -0.0191
 5692TIP3    H141271   5.214   0.280  11.615 -3.4401  1.5085  2.1743
 5692TIP3    H241272   5.233   0.245  11.761  1.6115 -1.9410  0.9425
 5693TIP3   OH241273   5.596   4.860  11.358  0.6202 -0.1108  0.2153
 5693TIP3    H141274   5.579   4.800  11.431 -0.3930  0.9140  0.8718
 5693TIP3    H241275   5.556   4.943  11.386  0.5857  0.4275 -1.3317
 5694TIP3   OH241276   4.080   3.132  12.689 -0.0203 -0.0133 -0.4004
 5694TIP3    H141277   4.004   3.173  12.648 -1.7842 -0.3540  2.3060
 5694TIP3    H241278   4.117   3.201  12.745 -0.3619 -0.7757  0.8060
 5695TIP3   OH241279   1.561   3.809   9.993 -0.3096  0.5685 -0.2702
 5695TIP3    H141280   1.468   3.791   9.982 -0.3508 -1.5196  2.3229
 5695TIP3    H241281   1.568   3.904   9.987 -2.3861  0.7086 -1.6059
 5696TIP3   OH241282   0.345   5.913  12.141  0.0356 -0.1758 -0.0759
 5696TIP3    H141283   0.314   5.857  12.212  0.8054 -2.3518 -1.3312
 5696TIP3    H241284   0.273   5.974  12.125 -1.6169 -1.9114  0.2947
 5697TIP3   OH241285   4.578   5.942  13.129 -0.3866 -0.3297 -0.8075
 5697TIP3    H141286   4.516   6.011  13.105  0.7755  1.8024  1.8952
 5697TIP3    H241287   4.573   5.936  13.224  1.9428 -1.6735 -0.6883
 5698TIP3   OH241288   3.216   1.197  11.913 -0.6582 -0.1755  0.6506
 5698TIP3    H141289   3.299   1.238  11.890 -0.9080 -0.0669 -0.1072
 5698TIP3    H241290   3.236   1.138  11.985 -0.2081  0.9668  1.4759
 5699TIP3   OH241291   3.946   0.447  11.964 -0.0040  0.2456 -0.0832
 5699TIP3    H141292   3.995   0.373  12.001 -1.5404 -1.5217 -1.3507
 5699TIP3    H241293   3.881   0.469  12.030  0.5236  0.5580  0.3408
 5700TIP3   OH241294   2.092   0.436  10.658 -0.0685  0.5885 -0.0599
 5700TIP3    H141295   2.015   0.436  10.715 -1.4707  2.3868 -1.7975
 5700TIP3    H241296   2.156   0.492  10.703 -1.1543  1.9725 -0.1723
 5701TIP3   OH241297   2.523   6.046   9.887 -0.0683 -0.1588  0.2508
 5701TIP3    H141298   2.538   6.066   9.795 -1.8117  3.3690  0.5648
 5701TIP3    H241299   2.610   6.052   9.927  0.2848  1.7566 -0.6789
 5702TIP3   OH241300   4.771   3.928  12.244 -0.1108 -0.1525 -0.1806
 5702TIP3    H141301   4.814   3.845  12.227  0.9383  0.5098 -0.9107
 5702TIP3    H241302   4.686   3.920  12.201 -0.8201 -1.5105  1.3561
 5703TIP3   OH241303   3.301   5.734   9.301 -0.5842  0.0431 -0.4144
 5703TIP3    H141304   3.305   5.819   9.346  1.1053 -0.0547 -0.3141
 5703TIP3    H241305   3.392   5.712   9.285 -0.8863 -2.4479  0.8506
 5704TIP3   OH241306   4.387   5.650  10.299 -0.2891 -0.0496 -0.3305
 5704TIP3    H141307   4.475   5.649  10.337 -0.8246  1.6749  1.1252
 5704TIP3    H241308   4.389   5.722  10.236 -0.8060  0.4362  0.1921
 5705TIP3   OH241309   0.817   5.543   9.922 -0.5140 -0.9624  0.1309
 5705TIP3    H141310   0.828   5.457   9.882 -1.7204 -1.3009  0.4719
 5705TIP3    H241311   0.861   5.536  10.007 -0.8144 -1.3298  0.2596
 5706TIP3   OH241312   2.078   0.696   9.135 -0.9194  0.1276  0.3832
 5706TIP3    H141313   2.089   0.629   9.067 -0.1814  1.7620 -1.2118
 5706TIP3    H241314   1.986   0.691   9.160 -1.1339 -0.7358 -0.5296
 5707TIP3   OH241315   2.286   0.546  11.445  0.0697  0.2303 -0.1062
 5707TIP3    H141316   2.246   0.632  11.449 -2.1192 -0.7082 -0.6262
 5707TIP3    H241317   2.345   0.544  11.521  1.6399  2.8106 -1.1143
 5708TIP3   OH241318   1.063   2.940   9.735 -0.1599  0.0985  0.3220
 5708TIP3    H141319   1.055   2.926   9.830  0.9496 -0.6349  0.3215
 5708TIP3    H241320   1.012   3.019   9.719  0.0033  0.4881  1.6017
 5709TIP3   OH241321   0.122   2.520  12.107 -0.4928  0.4620 -0.1489
 5709TIP3    H141322   0.081   2.456  12.165  2.5642 -0.1894  1.4745
 5709TIP3    H241323   0.130   2.599  12.160  0.0779  0.6707 -0.5401
 5710TIP3   OH241324   4.546   5.039   9.769 -0.2118 -0.5086 -0.4921
 5710TIP3    H141325   4.462   5.083   9.756  0.0389  0.2382  0.3178
 5710TIP3    H241326   4.534   4.952   9.731 -1.0336 -0.0785 -1.2484
 5711TIP3   OH241327   6.141   3.018  12.050  0.8127 -0.2927  0.3329
 5711TIP3    H141328   6.114   3.058  12.132  0.2404  0.2833 -0.1290
 5711TIP3    H241329   6.095   3.067  11.982  1.6572 -0.4418 -0.3695
 5712TIP3   OH241330   2.692   2.718  11.916  0.2520 -0.6595 -0.3031
 5712TIP3    H141331   2.766   2.715  11.855 -0.9404 -2.4549 -1.7820
 5712TIP3    H241332   2.631   2.651  11.883 -2.2246  0.9996  0.6323
 5713TIP3   OH241333   0.279   4.620  12.252  0.0376  0.0469 -0.3597
 5713TIP3    H141334   0.372   4.640  12.266 -0.0219  0.1288 -0.0571
 5713TIP3    H241335   0.257   4.663  12.170  0.6949 -1.3950 -1.3231
 5714TIP3   OH241336   2.207   2.858  10.939 -0.0539 -0.4713 -0.4547
 5714TIP3    H141337   2.237   2.778  10.983  1.6088  0.8035  0.8678
 5714TIP3    H241338   2.263   2.866  10.862  0.3234 -0.1612 -0.1482
 5715TIP3   OH241339   6.008   3.637  12.265 -0.2524  0.3390  0.2603
 5715TIP3    H141340   5.983   3.716  12.314 -0.8471  0.8463 -0.8181
 5715TIP3    H241341   6.100   3.648  12.245 -0.0653  0.2400  1.0490
 5716TIP3   OH241342   1.532   1.336  10.963  0.7841  0.4551 -0.4294
 5716TIP3    H141343   1.502   1.385  10.886 -1.1264 -2.1860 -1.4785
 5716TIP3    H241344   1.523   1.398  11.035 -1.6886  1.6398 -1.6439
 5717TIP3   OH241345   3.993   4.831  11.415 -0.0393 -0.3804  0.2195
 5717TIP3    H141346   4.085   4.815  11.394 -0.4105 -1.7732 -0.4294
 5717TIP3    H241347   3.958   4.746  11.439 -1.1440  0.1550  0.5928
 5718TIP3   OH241348   1.157   5.986   9.592 -0.0504  0.3055 -0.4435
 5718TIP3    H141349   1.240   5.965   9.550 -0.7847 -1.6538 -1.0332
 5718TIP3    H241350   1.091   5.950   9.532 -1.3607  2.0697 -0.1470
 5719TIP3   OH241351   3.901   6.456   9.869 -0.0205 -0.4518 -0.3185
 5719TIP3    H141352   3.925   6.548   9.858 -0.9104 -0.3575 -1.8583
 5719TIP3    H241353   3.971   6.408   9.825  0.0486 -0.4667 -0.1918
 5720TIP3   OH241354   1.025   4.588   9.766 -0.4450  0.3022 -0.5951
 5720TIP3    H141355   1.044   4.509   9.716 -1.2556 -0.0531 -0.3509
 5720TIP3    H241356   0.945   4.623   9.727 -1.7168 -0.5615  1.0835
 5721TIP3   OH241357   3.091   5.063  10.010 -0.3232  0.0985  0.0919
 5721TIP3    H141358   3.058   4.974   9.998  0.0326 -0.3410  1.9361
 5721TIP3    H241359   3.173   5.051  10.059  0.2064  1.4001 -0.4409
 5722TIP3   OH241360   2.304   2.262   9.757 -0.1279 -0.4154  0.4247
 5722TIP3    H141361   2.237   2.213   9.710  0.6740 -0.2034 -0.9825
 5722TIP3    H241362   2.386   2.233   9.719  0.3406  2.7945 -1.3103
 5723TIP3   OH241363   2.392   2.470  10.539  0.5364  0.0788  0.1038
 5723TIP3    H141364   2.426   2.557  10.518  0.6706 -0.2124 -0.9792
 5723TIP3    H241365   2.422   2.452  10.628  0.1864  1.2896  0.4791
 5724TIP3   OH241366   4.837   6.504  10.372 -0.5725  0.2269 -0.4806
 5724TIP3    H141367   4.750   6.464  10.373 -1.0105  1.0697  2.0295
 5724TIP3    H241368   4.822   6.594  10.402  1.1669  0.3175  0.2322
 5725TIP3   OH241369   0.964   3.062  11.348  0.2852  0.0707  0.7884
 5725TIP3    H141370   0.980   2.982  11.398 -2.5464 -0.3319  1.2025
 5725TIP3    H241371   0.948   3.129  11.414 -3.4256 -0.4537  0.5991
 5726TIP3   OH241372   1.781   0.570  10.648 -0.2004  0.1027  0.4432
 5726TIP3    H141373   1.799   0.604  10.736 -0.0566 -1.9622  1.2585
 5726TIP3    H241374   1.858   0.519  10.625 -0.9116 -0.7407 -0.1581
 5727TIP3   OH241375   2.584   0.545  10.617 -0.9439  0.1030  0.5375
 5727TIP3    H141376   2.559   0.601  10.544  1.3210 -0.0677 -0.4682
 5727TIP3    H241377   2.672   0.574  10.640 -1.1488 -0.6446  2.4283
 5728TIP3   OH241378   5.094   6.126   9.700  0.0329 -0.0736  0.1514
 5728TIP3    H141379   5.188   6.128   9.718  0.0779  0.7285 -0.1695
 5728TIP3    H241380   5.087   6.109   9.606 -0.0968  1.5424 -0.1616
 5729TIP3   OH241381   0.314   2.176  11.534 -0.4053  0.2484 -0.1593
 5729TIP3    H141382   0.404   2.208  11.536 -0.0778 -0.5097 -1.4264
 5729TIP3    H241383   0.275   2.220  11.458 -1.5163  1.5283  1.0891
 5730TIP3   OH241384   4.877   3.908  10.586  0.0293  0.1348 -0.3159
 5730TIP3    H141385   4.901   3.823  10.548 -0.2176  0.1799 -0.5760
 5730TIP3    H241386   4.876   3.892  10.681 -1.2611 -0.5019 -0.4024
 5731TIP3   OH241387   5.520   5.451  11.378 -0.4873  0.0720  0.1069
 5731TIP3    H141388   5.591   5.389  11.364 -1.6035 -0.8075 -2.2609
 5731TIP3    H241389   5.478   5.421  11.459 -0.7313 -2.0351 -0.7353
 5732TIP3   OH241390   4.471   3.034  12.117  0.2055 -0.2602  0.4807
 5732TIP3    H141391   4.453   3.026  12.023 -1.6087 -1.6191  0.9031
 5732TIP3    H241392   4.437   2.954  12.155 -0.8592  1.0807  2.5466
 5733TIP3   OH241393   5.547   3.878  13.207  0.4211  0.2486 -0.0678
 5733TIP3    H141394   5.606   3.939  13.251  1.8950 -2.0454  1.3105
 5733TIP3    H241395   5.480   3.857  13.272  0.5464 -0.4016 -0.1385
 5734TIP3   OH241396   3.974   2.673  10.800 -0.3107 -0.1087  0.8223
 5734TIP3    H141397   3.983   2.749  10.857 -0.2240  0.4580  0.0654
 5734TIP3    H241398   3.995   2.705  10.713 -1.1604 -0.7895  0.3469
 5735TIP3   OH241399   2.313   3.981   9.941  0.4765  0.1469  0.0783
 5735TIP3    H141400   2.390   3.971   9.996  0.8630  0.7589 -0.3289
 5735TIP3    H241401   2.345   3.969   9.851  0.1530  0.6437 -0.1127
 5736TIP3   OH241402   2.798   5.645  12.247 -0.2360  0.1187 -0.0961
 5736TIP3    H141403   2.762   5.725  12.283 -0.0388 -0.2609  0.9649
 5736TIP3    H241404   2.817   5.590  12.323 -0.3787 -0.9406 -0.7968
 5737TIP3   OH241405   2.310   4.870   9.913 -0.5560  0.0903 -0.1410
 5737TIP3    H141406   2.364   4.800   9.875 -0.4314  0.5289 -0.7825
 5737TIP3    H241407   2.373   4.936   9.941 -0.7699  0.7619 -1.2097
 5738TIP3   OH241408   4.703   3.669  10.519 -0.4940 -0.3216  0.2543
 5738TIP3    H141409   4.746   3.586  10.541  0.4990  0.1240  0.0433
 5738TIP3    H241410   4.712   3.677  10.424  2.1205  1.4353  0.5576
 5739TIP3   OH241411   4.060   4.833   9.848  0.1185 -0.5778  0.2666
 5739TIP3    H141412   4.132   4.847   9.786 -0.3958 -2.7109 -0.9163
 5739TIP3    H241413   4.004   4.910   9.838  1.7256  0.6900  0.5507
 5740TIP3   OH241414   2.013   4.497  10.554  0.2806  0.0837 -0.2502
 5740TIP3    H141415   1.978   4.492  10.643  0.9282 -0.2400 -0.0076
 5740TIP3    H241416   1.976   4.421  10.509  0.3495 -0.0327 -0.1110
 5741TIP3   OH241417   5.704   2.786  11.292 -0.3524  0.3164  0.3765
 5741TIP3    H141418   5.654   2.738  11.226 -0.0511 -1.4390  1.3630
 5741TIP3    H241419   5.793   2.751  11.285 -0.2721  0.2437  1.5607
 5742TIP3   OH241420   5.611   0.598   9.267 -0.2557 -0.0651 -0.6065
 5742TIP3    H141421   5.554   0.675   9.276 -0.8424 -0.5530 -0.0514
 5742TIP3    H241422   5.655   0.591   9.352  0.1624 -0.0706 -0.8185
 5743TIP3   OH241423   6.238   2.817  19.517 -0.0632  0.6838 -0.1761
 5743TIP3    H141424   6.269   2.905  19.496 -0.2124  0.7828  0.0163
 5743TIP3    H241425   6.301   2.759  19.475  0.6305  0.8782  0.5827
 5744TIP3   OH241426   0.229   5.587   9.595  0.3532 -0.0126  0.3248
 5744TIP3    H141427   0.232   5.592   9.500  0.1639 -3.0355  0.0635
 5744TIP3    H241428   0.320   5.569   9.621  0.3018  0.2086  0.6595
 5745TIP3   OH241429   5.952   0.827   9.302  0.2835  0.0646  0.0847
 5745TIP3    H141430   5.888   0.856   9.367 -0.2119  0.6731 -0.6505
 5745TIP3    H241431   5.899   0.786   9.233  0.5180  1.8257 -1.2082
 5746TIP3   OH241432   0.231   2.335  11.738 -0.3909  0.5524  0.6509
 5746TIP3    H141433   0.271   2.292  11.662 -0.1663 -1.2938  1.7654
 5746TIP3    H241434   0.155   2.281  11.758 -1.6172  2.1771  0.5511
 5747TIP3   OH241435   2.142   4.524   9.743  0.2074 -0.2211 -0.0094
 5747TIP3    H141436   2.221   4.480   9.775  0.8623  1.1959  0.3804
 5747TIP3    H241437   2.157   4.617   9.761 -1.2150  0.1586 -0.6569
 5748TIP3   OH241438   5.597   5.011   9.686 -0.1065  0.1524  0.5472
 5748TIP3    H141439   5.619   5.010   9.779 -0.1778  3.1601  0.6879
 5748TIP3    H241440   5.504   5.031   9.683 -0.1549 -0.1513 -0.1871
 5749TIP3   OH241441   5.344   6.435  10.940  0.1356  0.2553  0.2175
 5749TIP3    H141442   5.262   6.418  10.893 -0.1180 -1.4472  1.1886
 5749TIP3    H241443   5.412   6.404  10.880  0.0253  0.7890 -0.1961
 5750TIP3   OH241444   6.255   4.923   9.739  0.7014  0.0636 -0.3699
 5750TIP3    H141445   6.180   4.910   9.797  1.0465  0.3458  0.1438
 5750TIP3    H241446   6.219   4.913   9.651 -0.2501  1.6491 -0.1936
 5751TIP3   OH241447   2.167   0.712   9.816 -0.2802  0.2542 -0.1366
 5751TIP3    H141448   2.074   0.696   9.801 -0.5725  0.3313  1.4172
 5751TIP3    H241449   2.184   0.797   9.775 -1.5482  1.4821  1.7070
 5752TIP3   OH241450   2.742   4.065  10.959  0.4027  0.4877 -0.1861
 5752TIP3    H141451   2.827   4.107  10.945 -2.2173  6.1284 -2.1742
 5752TIP3    H241452   2.711   4.046  10.871 -1.3132  0.7794  0.3287
 5753TIP3   OH241453   1.060   0.636  10.607 -0.4655 -0.3682  0.3661
 5753TIP3    H141454   1.020   0.722  10.599  0.9489  0.1384 -2.4855
 5753TIP3    H241455   1.110   0.640  10.688  0.9831  2.1997 -0.5537
 5754TIP3   OH241456   2.237   5.216   9.851 -0.5021  0.8270 -0.3433
 5754TIP3    H141457   2.211   5.307   9.850  0.2801  1.0673 -0.0122
 5754TIP3    H241458   2.203   5.182   9.934 -1.4803  0.5993 -0.8299
 5755TIP3   OH241459   5.299   3.239  12.416 -0.0133 -0.6595 -0.3000
 5755TIP3    H141460   5.305   3.256  12.322  2.6121  0.3112 -0.0523
 5755TIP3    H241461   5.211   3.267  12.440 -0.1472  0.7477 -2.1806
 5756TIP3   OH241462   0.144   4.928  12.298  0.4813  0.0996 -0.0934
 5756TIP3    H141463   0.071   4.885  12.253 -0.4420  1.0145  0.4868
 5756TIP3    H241464   0.150   4.884  12.382  0.5976  0.0200 -0.1444
 5757TIP3   OH241465   0.096   3.615  10.917 -0.2436  0.2185 -0.5993
 5757TIP3    H141466   0.148   3.544  10.953  0.2816  0.8403 -0.1189
 5757TIP3    H241467   0.028   3.631  10.983  0.5717  1.1929  0.0301
 5758TIP3   OH241468   3.422   5.211  13.099  0.5004  0.0748 -0.1432
 5758TIP3    H141469   3.437   5.121  13.128 -0.0548 -0.6035 -1.8507
 5758TIP3    H241470   3.501   5.258  13.125  1.7528 -1.4029 -1.0948
 5759TIP3   OH241471   0.081   5.223  11.018  0.4428  0.3374 -0.4069
 5759TIP3    H141472   0.031   5.272  11.083 -0.2370 -1.2090  0.2820
 5759TIP3    H241473   0.018   5.162  10.980  1.1547  0.2859 -1.5698
 5760TIP3   OH241474   4.059   4.489  12.124 -0.0528  0.2792  0.1141
 5760TIP3    H141475   4.141   4.528  12.155  0.3194  1.6854 -2.3582
 5760TIP3    H241476   4.081   4.397  12.110  0.1950 -0.0542  2.2678
 5761TIP3   OH241477   2.761   6.348  10.291  0.3229 -0.3506 -0.2953
 5761TIP3    H141478   2.772   6.260  10.255  0.0474 -1.4009  1.9937
 5761TIP3    H241479   2.840   6.363  10.342 -0.8479 -0.5292  1.6878
 5762TIP3   OH241480   4.918   0.296  10.786  0.3728 -0.9579 -0.0933
 5762TIP3    H141481   4.990   0.234  10.781 -0.2614 -1.6428 -1.0236
 5762TIP3    H241482   4.886   0.303  10.696  1.0318  1.4612 -0.2223
 5763TIP3   OH241483   5.927   4.248   9.740  0.1293  0.0632  0.7197
 5763TIP3    H141484   5.998   4.210   9.791 -0.6700 -1.2119  0.9369
 5763TIP3    H241485   5.862   4.178   9.733 -1.0786  1.1552  0.4642
 5764TIP3   OH241486   2.643   2.671  10.674 -0.1621  0.4406  0.0605
 5764TIP3    H141487   2.632   2.586  10.716 -2.7954  1.7421  2.3711
 5764TIP3    H241488   2.693   2.723  10.737 -0.2246  1.1437 -0.4596
 5765TIP3   OH241489   6.068   2.329  11.280  0.0304 -1.0314  0.2891
 5765TIP3    H141490   6.150   2.319  11.231  0.3292 -0.9238  0.7602
 5765TIP3    H241491   6.083   2.283  11.363 -0.4545 -1.1720  0.3041
 5766TIP3   OH241492   2.281   4.662  10.758 -0.0096  0.0577 -0.1086
 5766TIP3    H141493   2.304   4.576  10.723  0.6525  0.3833 -0.4935
 5766TIP3    H241494   2.344   4.676  10.830  0.5243  0.6273 -0.6759
 5767TIP3   OH241495   1.487   1.785  12.042  0.3625  0.2630 -0.0696
 5767TIP3    H141496   1.521   1.760  11.955 -0.6576  0.1378 -0.4417
 5767TIP3    H241497   1.520   1.874  12.055 -1.3941  1.2231 -1.6444
 5768TIP3   OH241498   1.748   2.263   9.309 -0.0294  0.2742 -0.3595
 5768TIP3    H141499   1.843   2.276   9.319 -0.2623  1.4288  0.5138
 5768TIP3    H241500   1.719   2.337   9.256 -0.2873 -0.7408 -1.6967
 5769TIP3   OH241501   3.561   2.713  10.150  0.5533 -0.2585 -0.0502
 5769TIP3    H141502   3.649   2.698  10.115  0.3780  1.8878 -1.6476
 5769TIP3    H241503   3.565   2.681  10.240  2.9359 -0.3558 -0.1171
 5770TIP3   OH241504   6.722   4.798  11.117  0.4904  0.1451 -0.3320
 5770TIP3    H141505   6.647   4.819  11.173  0.6908  1.5699 -0.5627
 5770TIP3    H241506   6.797   4.839  11.161  0.8458  0.2201 -1.0023
 5771TIP3   OH241507   2.907   5.455  12.434 -0.1294 -0.7196 -0.0295
 5771TIP3    H141508   2.912   5.369  12.477  0.5318 -1.2784 -1.1751
 5771TIP3    H241509   2.997   5.474  12.409 -0.3673  0.0413 -0.3110
 5772TIP3   OH241510   3.210   1.765  11.908  0.0533 -0.0427 -0.1558
 5772TIP3    H141511   3.135   1.749  11.851 -1.7920 -0.1070  2.1279
 5772TIP3    H241512   3.286   1.763  11.850 -1.6853 -0.1030 -2.5550
 5773TIP3   OH241513   4.055   2.279  11.031 -0.6617 -0.2907  0.4998
 5773TIP3    H141514   3.985   2.219  11.056  0.5175 -1.5063  1.0455
 5773TIP3    H241515   4.049   2.285  10.935 -1.7225 -0.0641  0.5679
 5774TIP3   OH241516   4.249   4.516  10.641 -0.0498  0.0591 -0.2931
 5774TIP3    H141517   4.193   4.492  10.567  0.7499 -0.9439 -0.6049
 5774TIP3    H241518   4.237   4.610  10.651 -0.8936  0.0470 -1.1004
 5775TIP3   OH241519   0.054   0.030   9.936 -0.0677 -0.3991  0.3129
 5775TIP3    H141520   0.083   0.052  10.025 -1.0850  0.0488  0.5490
 5775TIP3    H241521   0.018   0.112   9.902  0.9952 -0.3787 -0.8030
 5776TIP3   OH241522   5.859   4.817  11.331  0.0240 -0.1544 -0.1085
 5776TIP3    H141523   5.882   4.897  11.379 -0.1667  0.0409 -0.3379
 5776TIP3    H241524   5.764   4.821  11.323  0.0774 -0.0397 -0.7449
 5777TIP3   OH241525   0.446   2.558  10.010 -0.1089 -0.1820 -0.3281
 5777TIP3    H141526   0.522   2.609  10.039  0.2890 -2.0140  2.0905
 5777TIP3    H241527   0.373   2.595  10.059 -0.2382 -0.4183 -0.3460
 5778TIP3   OH241528   2.327   5.259  11.495 -0.0601  0.3822  0.4135
 5778TIP3    H141529   2.338   5.224  11.406  0.7285 -2.0533  1.3953
 5778TIP3    H241530   2.415   5.284  11.522  0.3231 -1.9725  1.6240
 5779TIP3   OH241531   0.660   2.816  10.589 -0.2339 -0.4579 -0.3635
 5779TIP3    H141532   0.609   2.736  10.583  0.0082 -0.6530  0.2074
 5779TIP3    H241533   0.599   2.885  10.562 -0.5274 -0.7914 -0.5668
 5780TIP3   OH241534   0.244   3.591  11.480  0.0757  0.7266  0.6552
 5780TIP3    H141535   0.312   3.524  11.479  0.1624  0.7867 -1.7165
 5780TIP3    H241536   0.292   3.673  11.493  0.2779  0.6117  0.6385
 5781TIP3   OH241537   6.670   4.839  12.150  0.3196 -0.2414 -0.0265
 5781TIP3    H141538   6.616   4.883  12.215  1.6633  0.4875  0.6332
 5781TIP3    H241539   6.686   4.904  12.082  1.2449 -0.0859  0.3194
 5782TIP3   OH241540   1.403   0.441   9.936 -0.0616 -0.1498  0.3573
 5782TIP3    H141541   1.356   0.358   9.939  0.4082 -0.4004  1.1406
 5782TIP3    H241542   1.445   0.447  10.022 -1.1360  1.5144  0.8029
 5783TIP3   OH241543   1.489   5.593  12.687  0.8540  0.1693  0.3704
 5783TIP3    H141544   1.460   5.645  12.763  0.0951 -0.3848  0.4761
 5783TIP3    H241545   1.508   5.507  12.724  1.6326  0.2238  0.1134
 5784TIP3   OH241546   3.449   4.812  11.766  0.7351  0.0351  0.3546
 5784TIP3    H141547   3.432   4.750  11.837 -0.1532 -1.1157 -0.7952
 5784TIP3    H241548   3.381   4.791  11.701  1.7888  0.7447 -1.0088
 5785TIP3   OH241549   0.225   2.062  10.127 -0.0812 -0.3728  0.0905
 5785TIP3    H141550   0.163   2.038  10.058 -1.5436  0.1699  1.1633
 5785TIP3    H241551   0.214   1.995  10.194 -0.3268  0.3294  0.7686
 5786TIP3   OH241552   0.158   5.064  12.029 -0.3217 -0.4973 -0.1249
 5786TIP3    H141553   0.253   5.076  12.023  0.0649 -1.1228  2.9502
 5786TIP3    H241554   0.146   5.011  12.108 -3.2685 -0.0069 -0.1429
 5787TIP3   OH241555   4.453   1.209  11.913  0.2655 -0.4662  0.5934
 5787TIP3    H141556   4.520   1.197  11.980 -0.3710  0.2053  1.3734
 5787TIP3    H241557   4.371   1.182  11.955 -0.5921  2.5298  1.0773
 5788TIP3   OH241558   0.187   0.025  11.120  0.2641 -0.5238  1.1242
 5788TIP3    H141559   0.103  -0.003  11.084  0.6499  0.2204 -0.4299
 5788TIP3    H241560   0.164   0.093  11.183 -0.2901  0.0081  0.3647
 5789TIP3   OH241561   0.562   0.703  12.147 -0.7002 -0.3463 -0.0135
 5789TIP3    H141562   0.593   0.791  12.127  1.1029 -1.0021 -0.2371
 5789TIP3    H241563   0.641   0.654  12.170 -1.5721 -2.0845 -0.5436
 5790TIP3   OH241564   0.783   4.722  10.517 -0.4903  0.2104  0.2987
 5790TIP3    H141565   0.806   4.815  10.517  2.1462 -0.2903 -2.7983
 5790TIP3    H241566   0.860   4.678  10.552 -0.3109 -0.9930 -1.4906
 5791TIP3   OH241567   6.214   6.065  10.762 -0.3618  0.6732  0.1631
 5791TIP3    H141568   6.222   6.108  10.847 -1.0690 -0.3857  0.7924
 5791TIP3    H241569   6.121   6.075  10.738 -0.3250  0.3454 -0.1386
 5792TIP3   OH241570   6.740   1.141  10.938 -0.1900 -0.3634  0.6483
 5792TIP3    H141571   6.689   1.130  11.018  1.9927 -0.3984  2.1316
 5792TIP3    H241572   6.826   1.171  10.968  0.3677  0.7530 -1.7881
 5793TIP3   OH241573   5.760   6.160  11.178  0.0967  0.6086  0.3642
 5793TIP3    H141574   5.743   6.068  11.153 -0.8487  0.8626  0.0034
 5793TIP3    H241575   5.820   6.154  11.252 -1.0472 -0.3761  1.2676
 5794TIP3   OH241576   0.730   2.598  11.727  0.2738  0.0888  0.2742
 5794TIP3    H141577   0.636   2.603  11.742 -0.2998 -1.0325 -2.3575
 5794TIP3    H241578   0.766   2.672  11.776 -1.9206  0.3930  1.5450
 5795TIP3   OH241579   0.494   0.646  10.740 -0.6406  0.2234  0.3321
 5795TIP3    H141580   0.413   0.608  10.708  0.1043 -0.4333 -0.8087
 5795TIP3    H241581   0.484   0.647  10.835 -1.3081 -1.3960  0.3075
 5796TIP3   OH241582   1.292   0.274  11.583  0.0350 -0.3016  1.2100
 5796TIP3    H141583   1.222   0.335  11.557  0.3230  0.7200  2.6939
 5796TIP3    H241584   1.294   0.209  11.513 -0.3855  1.3120 -0.3946
 5797TIP3   OH241585   6.008   2.798  11.235 -0.4845 -0.7529 -0.1064
 5797TIP3    H141586   6.024   2.887  11.204 -1.2542 -0.8637 -0.8718
 5797TIP3    H241587   6.004   2.806  11.330 -0.7953  0.0783 -0.1805
 5798TIP3   OH241588   1.650   2.252  10.548 -0.1802 -0.1917 -0.0149
 5798TIP3    H141589   1.686   2.192  10.613  0.9127 -0.3889 -0.7557
 5798TIP3    H241590   1.713   2.324  10.546 -0.2993 -0.1025 -0.7042
 5799TIP3   OH241591   3.388   2.164  11.675 -0.0566  0.0111  0.4768
 5799TIP3    H141592   3.296   2.155  11.650  0.0432  0.4044 -0.0370
 5799TIP3    H241593   3.407   2.084  11.724 -0.6530 -0.1033  0.5280
 5800TIP3   OH241594   3.244   5.148   9.282 -0.0490 -0.0928 -0.0117
 5800TIP3    H141595   3.186   5.073   9.295  0.3443 -0.8846 -2.3150
 5800TIP3    H241596   3.315   5.135   9.344 -1.1887 -0.2974  1.2992
 5801TIP3   OH241597   5.480   3.280  10.986 -0.4441  0.4214 -0.0955
 5801TIP3    H141598   5.451   3.227  10.912 -2.2534 -1.6803  1.9641
 5801TIP3    H241599   5.400   3.298  11.036  0.8410  0.7165  1.9854
 5802TIP3   OH241600   3.379   5.939  10.800  0.0416  0.1232 -0.4458
 5802TIP3    H141601   3.311   5.959  10.865  1.3918 -0.7161  1.3361
 5802TIP3    H241602   3.373   5.844  10.788  0.4441  0.1410 -0.8097
 5803TIP3   OH241603   0.933   5.322  10.399  0.2312  0.2064  0.3425
 5803TIP3    H141604   0.921   5.385  10.328 -1.2356  1.6714  1.8056
 5803TIP3    H241605   1.024   5.294  10.391  0.2930  0.8608 -1.6774
 5804TIP3   OH241606   5.348   5.114  12.430 -0.1387 -0.2130  0.1228
 5804TIP3    H141607   5.414   5.055  12.465  0.7023  0.9991  0.6526
 5804TIP3    H241608   5.334   5.178  12.499  0.4105  1.3331 -1.1237
 5805TIP3   OH241609   6.454   4.745   9.782 -0.2855  0.4771  0.4996
 5805TIP3    H141610   6.437   4.731   9.876  2.2370  0.1012  0.9613
 5805TIP3    H241611   6.397   4.819   9.759 -2.3270 -0.5604  1.8340
 5806TIP3   OH241612   2.964   3.653  13.024 -0.0314 -0.4363 -0.0473
 5806TIP3    H141613   2.908   3.681  13.097  0.1444 -2.0695  0.7612
 5806TIP3    H241614   3.043   3.620  13.066  0.2081 -1.1012 -0.9988
 5807TIP3   OH241615   3.364   3.743  12.137 -0.7657  0.2596  0.2262
 5807TIP3    H141616   3.294   3.683  12.112 -0.6210 -0.1479  0.7870
 5807TIP3    H241617   3.337   3.827  12.102 -0.4779 -0.3216 -1.4700
 5808TIP3   OH241618   1.622   0.400  10.490 -0.0402 -0.0059 -0.6428
 5808TIP3    H141619   1.529   0.415  10.511  0.0691 -0.1016 -0.0560
 5808TIP3    H241620   1.668   0.468  10.539  0.1312  0.7371 -1.8167
 5809TIP3   OH241621   3.038   2.402  12.068 -0.1896  0.1668  0.7793
 5809TIP3    H141622   3.086   2.365  12.143 -1.1434 -1.0765  0.8109
 5809TIP3    H241623   3.084   2.484  12.048  1.5064 -0.6207  1.2462
 5810TIP3   OH241624   0.487   3.128  10.830 -0.4193  0.0434  0.6231
 5810TIP3    H141625   0.477   3.057  10.767 -1.1105 -1.2831  2.1638
 5810TIP3    H241626   0.581   3.136  10.843 -0.2882  0.1170 -0.3078
 5811TIP3   OH241627   5.299   4.085  10.946  0.2778  0.0121 -0.2432
 5811TIP3    H141628   5.276   4.163  10.896 -1.0789  0.1753  0.5893
 5811TIP3    H241629   5.221   4.066  10.999  0.6703 -1.7500 -0.2295
 5812TIP3   OH241630   4.016   0.617  11.244  0.0964 -0.8183  0.3880
 5812TIP3    H141631   3.972   0.602  11.328 -0.1019  1.9908  0.8774
 5812TIP3    H241632   4.107   0.596  11.261 -0.1943 -1.8211  0.8132
 5813TIP3   OH241633   0.232   5.010  11.394 -0.4131  0.1818 -0.4767
 5813TIP3    H141634   0.305   5.015  11.332  0.7774  1.9254  0.9367
 5813TIP3    H241635   0.228   4.918  11.419  0.3766 -0.1986 -1.6507
 5814TIP3   OH241636   5.931   0.817  11.279 -0.6394 -0.1552 -0.2432
 5814TIP3    H141637   5.888   0.834  11.196 -0.4337  0.0997 -0.2968
 5814TIP3    H241638   5.876   0.859  11.345  0.0611  1.0714 -0.4080
 5815TIP3   OH241639   4.669   4.293  11.438 -0.1345 -0.4216 -0.1711
 5815TIP3    H141640   4.633   4.210  11.405  0.8125 -1.2416  0.7854
 5815TIP3    H241641   4.607   4.359  11.407 -1.6475 -1.6118  0.1635
 5816TIP3   OH241642   1.324   3.802  11.357 -0.0091  0.1479 -0.9349
 5816TIP3    H141643   1.292   3.784  11.445  0.1934  0.3213 -0.8239
 5816TIP3    H241644   1.247   3.830  11.308 -0.2349 -0.5111 -0.9715
 5817TIP3   OH241645   5.832   4.214   9.423 -0.0726  0.6147 -0.3907
 5817TIP3    H141646   5.753   4.269   9.426 -0.1542  0.4618  1.6297
 5817TIP3    H241647   5.903   4.276   9.407 -0.1198  1.4437  2.2074
 5818TIP3   OH241648   6.449   4.322  11.201 -0.1718  0.7618 -0.6573
 5818TIP3    H141649   6.434   4.348  11.110 -0.3357  0.2178 -0.7885
 5818TIP3    H241650   6.416   4.396  11.253  0.1615  1.1837 -1.0453
 5819TIP3   OH241651   1.710   1.496   9.443  0.1796  0.3951 -0.8398
 5819TIP3    H141652   1.634   1.554   9.432 -0.0665  0.1598 -0.3917
 5819TIP3    H241653   1.716   1.483   9.537 -0.7200 -1.5780 -1.0054
 5820TIP3   OH241654   5.799   3.975  11.073 -0.4760  0.1706  0.1083
 5820TIP3    H141655   5.860   3.939  11.138 -0.4214  0.3395  0.1523
 5820TIP3    H241656   5.721   3.999  11.124 -0.6467 -0.2025  0.0258
 5821TIP3   OH241657   4.065   5.319  12.396  0.7303  0.2420  0.0288
 5821TIP3    H141658   4.117   5.399  12.402  2.5504 -0.9552  1.1521
 5821TIP3    H241659   4.105   5.259  12.459 -1.6614 -0.9922  0.5110
 5822TIP3   OH241660   4.904   2.153  11.825  0.2956 -0.3626  0.4232
 5822TIP3    H141661   4.855   2.191  11.753 -0.1623  2.0965  1.9198
 5822TIP3    H241662   4.837   2.130  11.890  0.8523 -0.4469  0.9790
 5823TIP3   OH241663   4.345   6.446  11.624 -0.7275 -0.1680  0.7397
 5823TIP3    H141664   4.327   6.443  11.719  1.7197 -0.0864  1.2606
 5823TIP3    H241665   4.352   6.355  11.598 -0.2279 -0.1790  0.9011
 5824TIP3   OH241666   3.699   6.349  10.071  0.0545  0.1030 -0.7156
 5824TIP3    H141667   3.688   6.442  10.052 -0.5334  0.0525 -0.6293
 5824TIP3    H241668   3.793   6.334  10.063  0.1631  0.7244 -0.6320
 5825TIP3   OH241669   1.628   5.389   9.608  0.5218 -0.5407 -0.1973
 5825TIP3    H141670   1.696   5.385   9.676  1.2511 -1.2037 -0.9594
 5825TIP3    H241671   1.571   5.461   9.637  1.4879 -0.0232  0.4992
 5826TIP3   OH241672   2.529   4.485   9.687 -0.2632 -0.4509  0.1275
 5826TIP3    H141673   2.474   4.416   9.649  2.6948 -2.0333 -1.6292
 5826TIP3    H241674   2.611   4.480   9.639  0.6693  3.3913  0.9455
 5827TIP3   OH241675   1.445   4.020  11.179  0.3944 -0.1513  0.3249
 5827TIP3    H141676   1.483   4.006  11.092  0.7308 -1.2440  0.6378
 5827TIP3    H241677   1.493   3.960  11.236  0.1434  0.5217  1.2627
 5828TIP3   OH241678   3.017   4.676  11.441  0.0795  0.3341 -0.1428
 5828TIP3    H141679   3.008   4.582  11.426 -0.8402  0.3700  0.1195
 5828TIP3    H241680   2.966   4.693  11.520 -1.0608  1.2889 -1.0435
 5829TIP3   OH241681   0.742   0.897  10.295 -0.2343  0.0182  0.3262
 5829TIP3    H141682   0.754   0.985  10.330  0.5783 -0.7738  2.1641
 5829TIP3    H241683   0.743   0.840  10.372 -2.6554 -1.4545 -0.6041
 5830TIP3   OH241684   6.031   6.555  10.855  0.4967  0.0960  0.1326
 5830TIP3    H141685   6.108   6.513  10.817  0.0392 -0.0659 -0.6570
 5830TIP3    H241686   6.042   6.648  10.835  0.2502  0.0091 -0.4359
 5831TIP3   OH241687   4.858   4.911  10.051  0.0825 -0.1915  0.0303
 5831TIP3    H141688   4.932   4.953  10.008  0.1007  0.4375  0.6611
 5831TIP3    H241689   4.836   4.969  10.124 -0.4843 -0.8083  0.3639
 5832TIP3   OH241690   3.297   6.556  10.690  0.1846  0.5437  0.3544
 5832TIP3    H141691   3.304   6.484  10.627  2.9284 -0.0772  1.2267
 5832TIP3    H241692   3.318   6.516  10.774 -0.2254  2.0002  1.1894
 5833TIP3   OH241693   3.341   4.733  10.009 -0.1024  0.6517 -0.0086
 5833TIP3    H141694   3.312   4.654   9.963 -1.3140  0.8084  0.4493
 5833TIP3    H241695   3.306   4.723  10.097  1.0319  1.0027  0.4971
 5834TIP3   OH241696   0.781   5.960   9.420  0.2781  0.3991  0.0270
 5834TIP3    H141697   0.856   5.903   9.404  0.8657  1.2342 -0.2455
 5834TIP3    H241698   0.808   6.045   9.386 -0.5665  0.8567  0.4813
 5835TIP3   OH241699   5.731   4.257  12.667  0.0083  0.1696 -0.4235
 5835TIP3    H141700   5.777   4.179  12.697  0.8857  1.4148  1.7381
 5835TIP3    H241701   5.776   4.283  12.587  0.7159 -0.6571 -0.3079
 5836TIP3   OH241702   4.830   4.099   9.701 -0.5784  0.2242 -0.3875
 5836TIP3    H141703   4.763   4.120   9.766 -0.5378 -0.6478 -0.0488
 5836TIP3    H241704   4.907   4.148   9.729 -0.5245 -0.2467  0.3009
 5837TIP3   OH241705   6.499   2.294  10.976 -0.0664 -0.2891 -0.0242
 5837TIP3    H141706   6.562   2.318  10.908  1.2939  1.7422  1.8148
 5837TIP3    H241707   6.552   2.263  11.049 -1.3434 -0.5199  0.8521
 5838TIP3   OH241708   6.105   6.270  10.503 -0.2433  0.6925 -0.4063
 5838TIP3    H141709   6.095   6.220  10.422  0.6508  1.2484 -0.8668
 5838TIP3    H241710   6.152   6.349  10.477  0.8733  0.4605  0.8084
 5839TIP3   OH241711   3.512   2.914  11.503 -0.3445  0.5720 -0.5793
 5839TIP3    H141712   3.506   2.839  11.444 -0.3739  0.0201  0.0981
 5839TIP3    H241713   3.602   2.912  11.535 -0.3499  0.8163 -0.5503
 5840TIP3   OH241714   1.523   3.657  12.048 -0.2524 -0.3011 -0.2943
 5840TIP3    H141715   1.596   3.677  11.989  1.0363 -0.4173  1.2163
 5840TIP3    H241716   1.533   3.564  12.068 -1.1117 -0.4329 -0.4468
 5841TIP3   OH241717   1.004   5.020  12.029  0.2039  0.5640 -0.1684
 5841TIP3    H141718   1.085   4.994  12.074 -0.7191 -4.4820 -0.8367
 5841TIP3    H241719   1.032   5.037  11.939  0.7576  0.7914  0.0386
 5842TIP3   OH241720   1.947   3.211  12.300  0.1551 -0.0011  0.3411
 5842TIP3    H141721   1.968   3.303  12.282  1.0674 -0.4252 -0.8778
 5842TIP3    H241722   1.901   3.213  12.384 -2.1459  1.8661 -0.8279
 5843TIP3   OH241723   2.384   1.420  11.758  0.4394  0.1881  0.1350
 5843TIP3    H141724   2.471   1.412  11.720  0.4392 -0.8323  0.3297
 5843TIP3    H241725   2.367   1.335  11.799 -0.3014  0.6549  0.8355
 5844TIP3   OH241726   1.866   0.734  10.882 -0.3512  0.0667 -0.6976
 5844TIP3    H141727   1.825   0.805  10.931 -2.8811 -1.1409 -0.8901
 5844TIP3    H241728   1.932   0.777  10.828 -0.7648  2.0388  0.2871
 5845TIP3   OH241729   0.247   1.255   9.344  0.1795 -0.8426  0.6536
 5845TIP3    H141730   0.186   1.318   9.306  2.2916 -0.3160 -2.2110
 5845TIP3    H241731   0.320   1.308   9.376  1.2221 -1.6897 -0.2399
 5846TIP3   OH241732   4.485   2.879  11.544 -0.1199  0.2572 -0.0041
 5846TIP3    H141733   4.544   2.825  11.597 -1.0331  0.7369  1.5899
 5846TIP3    H241734   4.441   2.817  11.487  0.0858 -0.4568  0.5910
 5847TIP3   OH241735   3.666   6.458  11.806  0.1390 -0.0555 -0.3390
 5847TIP3    H141736   3.573   6.444  11.789 -0.1840  0.2038  1.0698
 5847TIP3    H241737   3.676   6.553  11.806 -0.0961  0.0183  1.7515
 5848TIP3   OH241738   1.863   3.166  11.120 -0.3959  0.2694 -0.2191
 5848TIP3    H141739   1.906   3.202  11.198 -0.6616 -1.0265  0.5566
 5848TIP3    H241740   1.774   3.201  11.123  0.0686  1.5249 -0.8442
 5849TIP3   OH241741   2.660   3.640  11.147  0.0506  0.0335 -0.2668
 5849TIP3    H141742   2.577   3.618  11.105 -0.0461 -0.1117 -0.0037
 5849TIP3    H241743   2.708   3.557  11.147 -0.3810 -0.2349  0.8822
 5850TIP3   OH241744   6.347   5.358  10.298  0.0111 -0.3171 -0.4345
 5850TIP3    H141745   6.429   5.334  10.339 -0.0804 -0.7061 -0.4732
 5850TIP3    H241746   6.372   5.413  10.223  0.1604  0.5823  0.2646
 5851TIP3   OH241747   5.200   4.367  10.902  0.1717 -0.0632  0.3471
 5851TIP3    H141748   5.160   4.382  10.816  0.9692  2.2513  0.2991
 5851TIP3    H241749   5.131   4.386  10.965  0.4336  1.4415  0.2226
 5852TIP3   OH241750   3.172   6.084  12.221 -0.7778  0.4319  0.2598
 5852TIP3    H141751   3.205   6.155  12.277  1.7102 -0.9532  0.6536
 5852TIP3    H241752   3.096   6.050  12.268 -1.6723  2.4176  0.3448
 5853TIP3   OH241753   4.607   0.209  10.215  0.0692  0.7741  0.4989
 5853TIP3    H141754   4.667   0.262  10.162 -0.1937  2.9570  2.2365
 5853TIP3    H241755   4.645   0.211  10.303 -0.8594 -0.5399  0.9494
 5854TIP3   OH241756   1.950   4.337   9.820  0.1502 -0.1125 -0.0707
 5854TIP3    H141757   1.987   4.269   9.763  0.7605 -0.3835  0.6334
 5854TIP3    H241758   2.000   4.416   9.797  0.0469 -0.1013 -0.2628
 5855TIP3   OH241759   6.057   6.552   9.519 -0.1167 -0.7520 -0.3631
 5855TIP3    H141760   6.016   6.613   9.458  0.2993 -0.8074 -0.7048
 5855TIP3    H241761   5.990   6.536   9.586 -1.2765 -2.1103 -1.7617
 5856TIP3   OH241762   4.840   0.376  11.570 -0.1107 -0.2146 -0.3089
 5856TIP3    H141763   4.875   0.293  11.539  2.0234 -0.2742  1.9058
 5856TIP3    H241764   4.746   0.362  11.575 -0.0949 -1.5153 -2.5894
 5857TIP3   OH241765   4.309   2.094  10.326 -0.0038  0.0548  0.0393
 5857TIP3    H141766   4.321   2.177  10.371  0.0874 -0.4760  1.0121
 5857TIP3    H241767   4.215   2.086  10.313 -0.0837 -0.0883  0.7106
 5858TIP3   OH241768   6.347   4.340  10.236 -0.3099  0.7338  0.1528
 5858TIP3    H141769   6.339   4.270  10.171 -2.9208  0.5134  0.5957
 5858TIP3    H241770   6.386   4.298  10.312  0.4746  0.4019 -0.4152
 5859TIP3   OH241771   6.182   1.761  11.993  0.0618 -0.3500 -0.2109
 5859TIP3    H141772   6.136   1.714  12.064  0.2326 -0.6956 -0.3267
 5859TIP3    H241773   6.136   1.734  11.914  0.9665 -1.3351 -0.4169
 5860TIP3   OH241774   6.687   6.080  11.517  0.2188  0.2568 -0.0365
 5860TIP3    H141775   6.660   6.003  11.567  0.2628  1.5988  2.1443
 5860TIP3    H241776   6.606   6.112  11.477 -0.5562  1.2430  2.1967
 5861TIP3   OH241777   1.029   3.307  12.477  0.2968  0.3426 -0.4316
 5861TIP3    H141778   1.040   3.282  12.569  0.9762  0.2067 -0.5432
 5861TIP3    H241779   0.954   3.256  12.447 -0.4911  1.0645  0.2878
 5862TIP3   OH241780   1.735   2.919  12.177 -0.0679 -0.6224  0.2521
 5862TIP3    H141781   1.728   2.922  12.273 -0.4179  0.0541  0.2180
 5862TIP3    H241782   1.814   2.867  12.160 -0.6616 -1.7702  0.8737
 5863TIP3   OH241783   6.064   0.974  11.003 -0.8145  0.1781  0.3535
 5863TIP3    H141784   5.975   0.998  10.979  0.0050  1.2538 -1.9712
 5863TIP3    H241785   6.105   1.057  11.030 -0.3016 -0.1621  0.6478
 5864TIP3   OH241786   1.306   1.692  12.299 -0.5115 -0.1678 -0.1574
 5864TIP3    H141787   1.394   1.728  12.284 -0.3378 -0.6376 -0.3002
 5864TIP3    H241788   1.249   1.769  12.301 -0.4736  0.0249 -2.6970
 5865TIP3   OH241789   2.299   1.124  11.287  0.0738  0.2601  0.3752
 5865TIP3    H141790   2.281   1.218  11.281  1.2173  0.4231 -1.2876
 5865TIP3    H241791   2.219   1.082  11.257  0.2406  0.7838 -0.8751
 5866TIP3   OH241792   0.159   0.932  11.283 -0.5677 -0.0427 -0.2433
 5866TIP3    H141793   0.140   0.884  11.203  0.2679 -0.3720 -0.2454
 5866TIP3    H241794   0.249   0.964  11.273 -0.8980  1.0328  0.0040
 5867TIP3   OH241795   2.645   0.248   9.312  0.0554  0.6065 -0.2540
 5867TIP3    H141796   2.687   0.218   9.392 -0.8872  0.0919  0.0649
 5867TIP3    H241797   2.657   0.343   9.313  2.0690  0.4090 -0.6980
 5868TIP3   OH241798   3.149   3.278  11.450  0.0942 -0.0622 -0.3799
 5868TIP3    H141799   3.167   3.205  11.509 -0.9725 -0.3021 -0.3192
 5868TIP3    H241800   3.111   3.345  11.507 -0.6683 -0.1850 -0.7287
 5869TIP3   OH241801   4.846   2.419  11.431  0.0554 -0.1455  0.2679
 5869TIP3    H141802   4.906   2.367  11.377  1.0949  0.6323  0.6481
 5869TIP3    H241803   4.771   2.434  11.374  0.3168 -0.9195 -0.3087
 5870TIP3   OH241804   5.555   4.100  10.510  0.5656  0.1701 -0.0200
 5870TIP3    H141805   5.587   4.085  10.599  0.3235 -0.0035  0.0391
 5870TIP3    H241806   5.463   4.123  10.521  0.6577  0.6288 -0.1938
 5871TIP3   OH241807   1.558   6.537  11.398 -0.3560 -0.6057  0.4051
 5871TIP3    H141808   1.474   6.582  11.404 -0.5060 -0.7494 -0.4966
 5871TIP3    H241809   1.590   6.534  11.488 -1.2209 -0.3651  0.7302
 5872TIP3   OH241810   3.258   5.926  11.437 -0.2876  0.5206 -0.0362
 5872TIP3    H141811   3.218   6.013  11.434  0.6101  0.9060 -1.2861
 5872TIP3    H241812   3.327   5.933  11.504  0.2195  0.9660 -0.6034
 5873TIP3   OH241813   3.093   3.514  10.985  0.3655 -0.0794 -0.1232
 5873TIP3    H141814   3.086   3.437  10.930 -0.1738  1.2271 -1.9830
 5873TIP3    H241815   3.171   3.560  10.954  1.0792 -0.1937  1.4196
 5874TIP3   OH241816   1.382   0.082  12.302  0.1299  0.3018  0.1771
 5874TIP3    H141817   1.349   0.124  12.381 -2.1966 -0.8157 -0.1066
 5874TIP3    H241818   1.352   0.139  12.230 -0.2546 -0.1753 -0.0416
 5875TIP3   OH241819   5.872   3.414  12.337 -0.4081  0.0371 -0.1444
 5875TIP3    H141820   5.928   3.478  12.292 -1.1612  0.7199 -0.1369
 5875TIP3    H241821   5.888   3.431  12.430 -1.4962  1.0590 -0.1163
 5876TIP3   OH241822   4.992   0.977  10.096  0.1794 -0.4427  0.0497
 5876TIP3    H141823   4.984   1.045  10.164  0.7978 -0.6729  0.3630
 5876TIP3    H241824   5.073   0.998  10.050 -0.7115  0.2655 -1.2595
 5877TIP3   OH241825   2.620   3.010  11.400  0.6873  0.2050 -0.0406
 5877TIP3    H141826   2.580   3.094  11.378  1.5932  0.2908 -1.4599
 5877TIP3    H241827   2.700   3.007  11.349  0.9862 -1.2645  0.4627
 5878TIP3   OH241828   6.472   1.970  10.736 -0.3583  0.3112  0.3386
 5878TIP3    H141829   6.507   2.046  10.689  2.1089 -1.4484 -0.8540
 5878TIP3    H241830   6.407   1.933  10.676  0.7962 -0.3342 -0.5654
 5879TIP3   OH241831   3.865   0.244  11.488 -0.4113 -0.0469  0.2346
 5879TIP3    H141832   3.802   0.172  11.495 -0.9581  0.2035 -1.5687
 5879TIP3    H241833   3.849   0.298  11.565  0.6795 -2.3287  2.1705
 5880TIP3   OH241834   2.262   5.101   9.395 -0.6972  0.0986  0.2560
 5880TIP3    H141835   2.182   5.153   9.386 -0.5018  0.7093  1.8441
 5880TIP3    H241836   2.310   5.141   9.467  0.2941 -1.2341  0.3890
 5881TIP3   OH241837   6.371   2.907  10.230  0.2373 -0.4626 -0.1835
 5881TIP3    H141838   6.380   2.926  10.136  1.6472 -0.4876 -0.0719
 5881TIP3    H241839   6.387   2.991  10.273 -1.8377 -0.1273  0.0046
 5882TIP3   OH241840   1.921   3.464  12.851  0.4565  0.6451 -0.4157
 5882TIP3    H141841   1.826   3.467  12.863  0.5978  0.9126  0.7627
 5882TIP3    H241842   1.947   3.379  12.886  0.8972  1.5006  1.4916
 5883TIP3   OH241843   5.528   2.997  10.817 -0.3916 -0.0107  0.3026
 5883TIP3    H141844   5.475   2.918  10.811 -1.8885  0.9706  0.1434
 5883TIP3    H241845   5.537   3.014  10.911 -0.8148  0.1053  0.3232
 5884TIP3   OH241846   1.533   0.288   9.559 -0.7061  0.3803  0.2394
 5884TIP3    H141847   1.527   0.383   9.571 -0.9895  0.2616  1.1663
 5884TIP3    H241848   1.627   0.270   9.557 -0.6505  0.7107 -0.2050
 5885TIP3   OH241849   2.713   6.678   9.580  0.3113 -0.4311 -0.1142
 5885TIP3    H141850   2.742   6.592   9.548  0.8367  0.3056 -1.7413
 5885TIP3    H241851   2.680   6.661   9.668  2.4009 -1.9454  0.4551
 5886TIP3   OH241852   4.770   1.201  10.586 -0.6574  0.1066 -0.2084
 5886TIP3    H141853   4.736   1.121  10.546 -0.0383 -0.2497 -0.0353
 5886TIP3    H241854   4.737   1.199  10.676 -3.4013  1.7065 -1.0616
 5887TIP3   OH241855   3.154   4.563  12.158 -0.2067 -0.0063  0.0867
 5887TIP3    H141856   3.106   4.591  12.235 -0.8679 -0.5162 -0.1346
 5887TIP3    H241857   3.217   4.499  12.191  0.1242  0.4352  0.3277
 5888TIP3   OH241858   4.210   0.102  11.055  0.4866  0.3832 -0.1585
 5888TIP3    H141859   4.284   0.112  11.114  1.9500 -4.1126 -0.8506
 5888TIP3    H241860   4.167   0.022  11.084  0.7839 -1.6147 -4.4666
 5889TIP3   OH241861   4.831   3.130   9.433  1.0762  0.0968  0.3273
 5889TIP3    H141862   4.815   3.092   9.520  0.6469  0.2679  0.3238
 5889TIP3    H241863   4.837   3.224   9.449  2.4231  0.0177  0.3781
 5890TIP3   OH241864   3.530   4.787   9.678  0.3735  0.2249 -0.6414
 5890TIP3    H141865   3.587   4.762   9.751 -1.6675 -0.6303  0.7591
 5890TIP3    H241866   3.584   4.776   9.600  2.1472 -0.3755  0.6073
 5891TIP3   OH241867   6.061   1.402  10.906 -0.2472  0.1869 -0.6605
 5891TIP3    H141868   6.152   1.389  10.936 -0.5459 -1.2004 -0.2870
 5891TIP3    H241869   6.038   1.319  10.864 -1.4715  0.3951 -0.4215
 5892TIP3   OH241870   4.580   4.941   9.271 -0.1531 -0.1098  0.4307
 5892TIP3    H141871   4.639   4.973   9.202  1.0231 -0.5148  1.2262
 5892TIP3    H241872   4.578   4.847   9.258 -0.9587 -0.0609  0.1655
 5893TIP3   OH241873   1.173   4.055  11.611  0.1759 -0.2592  0.2391
 5893TIP3    H141874   1.172   3.962  11.590  0.2360 -0.2556  0.2208
 5893TIP3    H241875   1.233   4.094  11.547 -0.5771 -0.0643 -0.3538
 5894TIP3   OH241876   6.645   5.492   9.476 -0.3871 -0.0340 -0.2264
 5894TIP3    H141877   6.575   5.435   9.443  0.1567 -0.4882 -0.6091
 5894TIP3    H241878   6.615   5.520   9.562  0.3632 -2.7793  1.0306
 5895TIP3   OH241879   2.427   4.304  11.204  0.0730  0.1628 -0.3396
 5895TIP3    H141880   2.452   4.361  11.131 -0.4583 -0.9077 -1.4001
 5895TIP3    H241881   2.345   4.342  11.237  0.2979  0.6342 -0.3152
 5896TIP3   OH241882   3.410   4.707  12.461  0.3183 -0.4790 -0.0620
 5896TIP3    H141883   3.316   4.710  12.476  0.5367  1.4483  1.3454
 5896TIP3    H241884   3.440   4.628  12.506 -0.6532 -1.4798 -1.0912
 5897TIP3   OH241885   2.216   3.201  11.145  0.4574  0.0674 -0.2193
 5897TIP3    H141886   2.171   3.177  11.226  0.4568  1.4455  0.2137
 5897TIP3    H241887   2.191   3.292  11.129 -0.8568 -0.6423 -2.6780
 5898TIP3   OH241888   2.119   2.918  12.545 -0.6324 -0.1349 -0.1674
 5898TIP3    H141889   2.114   2.983  12.616 -0.5885 -0.4702  0.1496
 5898TIP3    H241890   2.174   2.848  12.581  2.0434  1.0529 -1.6114
 5899TIP3   OH241891   5.315   5.072  11.858  0.8147 -0.2363  0.0396
 5899TIP3    H141892   5.225   5.041  11.854  0.9674 -0.6666 -0.1419
 5899TIP3    H241893   5.324   5.128  11.780  0.9031 -0.7404 -0.3160
 5900TIP3   OH241894   3.564   5.158  10.471  1.0878 -0.5711  0.2642
 5900TIP3    H141895   3.577   5.206  10.553  1.0352  0.0106 -0.0659
 5900TIP3    H241896   3.564   5.066  10.497  1.0572 -0.3891  0.9219
 5901TIP3   OH241897   3.050   3.187  11.160  0.3091  0.1054 -0.0702
 5901TIP3    H141898   2.975   3.137  11.129  1.3617 -0.0900 -2.5224
 5901TIP3    H241899   3.013   3.271  11.189 -0.9682 -0.4719  0.0078
 5902TIP3   OH241900   3.287   5.771  10.275 -0.5979  0.5841 -0.5301
 5902TIP3    H141901   3.252   5.805  10.193 -0.1526  0.6050 -0.7101
 5902TIP3    H241902   3.220   5.792  10.340  0.5136  3.6390 -0.2348
 5903TIP3   OH241903   4.643   6.249  11.279 -0.7301  0.8211  0.1895
 5903TIP3    H141904   4.683   6.321  11.327 -1.0711  1.1086  0.0474
 5903TIP3    H241905   4.556   6.281  11.256 -1.7121 -0.4072  1.9768
 5904TIP3   OH241906   0.579   5.333  12.707  0.1271  0.2799 -0.1352
 5904TIP3    H141907   0.492   5.295  12.694  0.1804  0.5514 -1.3215
 5904TIP3    H241908   0.622   5.272  12.767 -0.2299 -0.8685 -1.0116
 5905TIP3   OH241909   4.356   4.004   9.689 -0.0823  0.7079 -0.0673
 5905TIP3    H141910   4.361   4.058   9.610  2.0445  1.2804  0.3916
 5905TIP3    H241911   4.413   3.930   9.670  0.0191  0.5795  0.7191
 5906TIP3   OH241912   5.269   0.456  10.809 -0.1716 -0.3131 -0.0398
 5906TIP3    H141913   5.268   0.458  10.904 -1.1656 -0.8669 -0.0196
 5906TIP3    H241914   5.357   0.485  10.785 -0.0016  0.1016  1.0322
 5907TIP3   OH241915   4.709   2.281  11.649  0.5356  0.3930  0.4178
 5907TIP3    H141916   4.763   2.287  11.571  1.0855 -0.3953  0.7280
 5907TIP3    H241917   4.626   2.322  11.624  1.5536  2.4422  0.2085
 5908TIP3   OH241918   3.967   5.756   9.945  0.2817  0.3391  0.6272
 5908TIP3    H141919   3.904   5.769  10.016  0.0150  1.0511  0.2699
 5908TIP3    H241920   3.919   5.781   9.866  0.5544 -0.5041  0.1831
 5909TIP3   OH241921   1.740   3.091   9.697 -0.8022  0.2960 -0.3669
 5909TIP3    H141922   1.693   3.169   9.667  0.3834  1.1640 -0.0016
 5909TIP3    H241923   1.806   3.076   9.629 -1.3193 -0.6861 -0.6732
 5910TIP3   OH241924   1.224   6.173  10.000  0.7270 -0.2397 -0.3026
 5910TIP3    H141925   1.232   6.080   9.980  1.0965  0.0256 -1.4515
 5910TIP3    H241926   1.162   6.207   9.934 -0.3102  0.1171  0.8107
 5911TIP3   OH241927   4.602   1.843  10.538  0.2398 -0.0626  0.1890
 5911TIP3    H141928   4.525   1.879  10.582  0.0647 -1.6991  1.3466
 5911TIP3    H241929   4.666   1.832  10.609  1.1103  0.1739 -0.5486
 5912TIP3   OH241930   2.183   2.979  12.072 -0.4430  0.2457  0.3247
 5912TIP3    H141931   2.262   3.033  12.064  0.2984 -0.8317  0.1545
 5912TIP3    H241932   2.111   3.041  12.068  0.3733  1.1751 -0.3321
 5913TIP3   OH241933   3.067   4.892  12.315 -0.2754 -0.1851 -0.6629
 5913TIP3    H141934   3.098   4.803  12.326  0.0100 -0.0919 -0.6912
 5913TIP3    H241935   3.031   4.917  12.400 -1.4227 -0.7272 -0.9789
 5914TIP3   OH241936   0.757   2.801  11.501  0.1195 -0.2204 -0.3750
 5914TIP3    H141937   0.836   2.848  11.525 -0.0018  0.4266 -1.2148
 5914TIP3    H241938   0.745   2.737  11.571  0.8061  0.3666  0.2898
 5915TIP3   OH241939   1.262   4.238   9.809 -0.5237  0.5032  0.2161
 5915TIP3    H141940   1.317   4.301   9.761 -0.7735  0.3999 -0.2135
 5915TIP3    H241941   1.218   4.291   9.875  1.2928  0.3313  1.6463
 5916TIP3   OH241942   3.407   4.367   9.690 -0.1438  0.0785 -0.1134
 5916TIP3    H141943   3.395   4.274   9.674  0.9519  0.3059 -2.6190
 5916TIP3    H241944   3.500   4.383   9.675 -0.4906  1.7385 -0.7524
 5917TIP3   OH241945   6.745   5.910   9.933 -0.1557 -0.0122 -0.4903
 5917TIP3    H141946   6.822   5.963   9.955 -0.4313 -0.7686  2.8351
 5917TIP3    H241947   6.670   5.964   9.960 -0.5779 -0.8475  0.0493
 5918TIP3   OH241948   0.090   1.897   9.475 -0.1240 -0.3707  0.0266
 5918TIP3    H141949   0.032   1.889   9.400  0.1016 -2.0483  0.0079
 5918TIP3    H241950   0.172   1.854   9.448  0.4311  0.1940  0.7576
 5919TIP3   OH241951   2.233   4.478  13.073  0.5031 -0.6220 -0.2416
 5919TIP3    H141952   2.227   4.513  13.161 -0.0874 -0.7625 -0.2212
 5919TIP3    H241953   2.182   4.538  13.019 -1.6427 -2.0951  0.0070
 5920TIP3   OH241954   6.372   4.202  12.233  0.0462  0.6406  0.0589
 5920TIP3    H141955   6.466   4.222  12.229 -0.0969  1.1637 -1.0030
 5920TIP3    H241956   6.330   4.279  12.196 -0.8943  0.8874  1.5548
 5921TIP3   OH241957   3.362   1.922  10.041 -0.4989 -0.4932 -0.6276
 5921TIP3    H141958   3.305   1.987  10.082  1.6117  0.1778  1.4438
 5921TIP3    H241959   3.329   1.838  10.074 -1.8927 -0.3707 -1.6027
 5922TIP3   OH241960   4.189   0.782  10.043  0.0452  0.6015 -0.7333
 5922TIP3    H141961   4.180   0.706  10.102 -0.2633  0.9951 -0.2606
 5922TIP3    H241962   4.180   0.745   9.955 -0.3756  0.1255 -0.4986
 5923TIP3   OH241963   1.933   0.252   9.304  0.3238  0.1127  0.3668
 5923TIP3    H141964   2.001   0.238   9.238  0.0027  1.1885 -0.2207
 5923TIP3    H241965   1.978   0.298   9.375  0.4680 -0.2189  0.4901
 5924TIP3   OH241966   2.440   2.488  12.494  0.0631  0.6052  0.1132
 5924TIP3    H141967   2.397   2.410  12.458  1.6439 -0.4379  0.3663
 5924TIP3    H241968   2.522   2.495  12.444  0.9404  0.8244  1.5228
 5925TIP3   OH241969   3.405   0.177   9.891 -0.1766 -0.3314 -0.1753
 5925TIP3    H141970   3.328   0.197   9.946 -0.1961  0.1354 -0.3639
 5925TIP3    H241971   3.410   0.251   9.831  1.0132  0.1542  0.4814
 5926TIP3   OH241972   4.949   1.978   9.311 -0.4104  0.3016 -0.1226
 5926TIP3    H141973   4.912   1.910   9.255 -1.2645  1.0614 -0.4965
 5926TIP3    H241974   4.890   1.983   9.386 -0.7387  1.0931 -0.4229
 5927TIP3   OH241975   5.498   3.174   9.888  0.0833 -0.2903  0.0298
 5927TIP3    H141976   5.420   3.129   9.922 -0.8196 -0.1286 -1.7356
 5927TIP3    H241977   5.477   3.267   9.897  0.7377 -0.2218  0.9745
 5928TIP3   OH241978   6.034   3.240  10.559  0.2694 -0.2764 -0.8585
 5928TIP3    H141979   6.069   3.170  10.615 -0.4427 -0.3476 -0.4996
 5928TIP3    H241980   5.954   3.204  10.522  0.1759  0.1617 -1.0876
 5929TIP3   OH241981   0.790   1.802   9.485 -0.3799  0.0038  0.2478
 5929TIP3    H141982   0.697   1.824   9.489 -0.6067 -0.4936 -1.6460
 5929TIP3    H241983   0.827   1.843   9.563 -1.6704  2.6962 -0.4489
 5930TIP3   OH241984   1.690   0.962  11.860 -0.2594 -0.3311  0.0658
 5930TIP3    H141985   1.604   1.003  11.876  0.0332  0.8275 -1.1449
 5930TIP3    H241986   1.682   0.875  11.898 -2.0167 -0.2828 -0.0971
 5931TIP3   OH241987   3.831   4.198  10.558  1.0531  0.2059 -0.1426
 5931TIP3    H141988   3.851   4.290  10.572 -2.4719  0.8657  1.9168
 5931TIP3    H241989   3.795   4.194  10.469  0.7932  0.9126 -0.0682
 5932TIP3   OH241990   6.267   0.330   9.743 -0.0119 -0.1822  0.5207
 5932TIP3    H141991   6.176   0.327   9.775  0.6477 -1.8112  2.4531
 5932TIP3    H241992   6.280   0.422   9.719 -1.4735  0.6119  2.4211
 5933TIP3   OH241993   3.612   6.730  10.534 -0.0292  0.5645  0.7210
 5933TIP3    H141994   3.565   6.753  10.615  1.1907  1.7535  1.1178
 5933TIP3    H241995   3.564   6.654  10.500 -0.0744 -0.5290  3.0027
 5934TIP3   OH241996   3.638   6.226   9.218  0.2035 -0.0438  0.4155
 5934TIP3    H141997   3.664   6.248   9.307  1.6141  0.9129 -0.1918
 5934TIP3    H241998   3.543   6.239   9.217  0.1210 -0.3404  1.8280
 5935TIP3   OH241999   0.560   2.334  11.565 -0.4355 -0.2657  0.0131
 5935TIP3    H142000   0.628   2.348  11.499 -1.1682 -0.6898 -0.8671
 5935TIP3    H242001   0.597   2.368  11.646 -0.4667  2.6092 -1.0884
 5936TIP3   OH242002   0.234   1.802  11.365 -0.2238 -0.2776  0.4314
 5936TIP3    H142003   0.173   1.859  11.412 -2.1365 -1.5609 -0.3833
 5936TIP3    H242004   0.217   1.715  11.400 -1.0300 -1.1244 -1.8973
 5937TIP3   OH242005   4.609   4.805  13.089  0.4832  0.5334  0.3066
 5937TIP3    H142006   4.561   4.727  13.113  2.2448 -0.4353  0.8868
 5937TIP3    H242007   4.578   4.873  13.149  0.0138 -0.1119  0.7979
 5938TIP3   OH242008   4.687   0.827  10.732 -0.1167  0.1062 -0.1639
 5938TIP3    H142009   4.769   0.874  10.715  0.3362 -0.4807  0.3459
 5938TIP3    H242010   4.632   0.847  10.657  0.9726 -0.5307 -1.1578
 5939TIP3   OH242011   1.097   4.627  10.209 -0.1377 -0.1894 -0.5580
 5939TIP3    H142012   1.080   4.534  10.222 -0.3294 -0.1656 -0.6311
 5939TIP3    H242013   1.032   4.654  10.143 -2.5466  0.8119  2.0302
 5940TIP3   OH242014   2.184   3.599   9.385 -0.0320 -0.1982 -0.1456
 5940TIP3    H142015   2.196   3.504   9.374  0.8325 -0.2362  0.9894
 5940TIP3    H242016   2.096   3.607   9.422  0.1685 -0.6250  0.4462
 5941TIP3   OH242017   4.801   1.874  12.283 -0.5032 -0.6272  0.2394
 5941TIP3    H142018   4.895   1.872  12.270 -0.5359 -0.3391 -0.0408
 5941TIP3    H242019   4.786   1.948  12.342 -0.8011  1.0909 -1.8594
 5942TIP3   OH242020   5.251   2.765  11.090  0.3513  0.0959 -0.2822
 5942TIP3    H142021   5.301   2.683  11.093  2.1335  1.1196 -0.5090
 5942TIP3    H242022   5.162   2.738  11.069  0.6499 -1.8729  0.7462
 5943TIP3   OH242023   5.458   3.626  11.206 -0.3330 -0.1021 -0.4326
 5943TIP3    H142024   5.397   3.589  11.270 -1.0103  1.9931  0.1874
 5943TIP3    H242025   5.526   3.667  11.259 -0.0107  0.2150 -1.0914
 5944TIP3   OH242026   1.574   1.887  10.506  0.0969  0.0603  0.2558
 5944TIP3    H142027   1.637   1.931  10.564  0.4253  0.8037 -0.6476
 5944TIP3    H242028   1.493   1.883  10.558  0.8566 -0.8995  1.4329
 5945TIP3   OH242029   6.141   2.276  11.930  0.7945 -0.3031  0.5238
 5945TIP3    H142030   6.096   2.192  11.915 -0.6555  0.3071  1.2479
 5945TIP3    H242031   6.233   2.257  11.914  0.3276 -1.6855 -0.7897
 5946TIP3   OH242032   2.388   3.062   9.990 -0.3875 -0.3941 -0.4407
 5946TIP3    H142033   2.293   3.072   9.999 -0.0607  1.4883  1.8950
 5946TIP3    H242034   2.424   3.141  10.030  2.1568  0.4385 -3.9197
 5947TIP3   OH242035   4.696   4.954  10.804 -0.3695 -0.4777  0.6118
 5947TIP3    H142036   4.625   4.958  10.740  1.4605  1.2959 -1.4575
 5947TIP3    H242037   4.675   5.023  10.867 -0.4203  0.1690 -0.0946
 5948TIP3   OH242038   0.775   0.341   9.403 -0.1914 -0.2510  0.4285
 5948TIP3    H142039   0.817   0.426   9.391 -0.1903 -0.2497  0.4417
 5948TIP3    H242040   0.842   0.277   9.380 -0.5798 -0.2307 -0.8090
 5949TIP3   OH242041   1.266   0.251  12.137 -0.0564 -0.0670  0.4171
 5949TIP3    H142042   1.268   0.249  12.042  1.2206 -1.4482  0.4427
 5949TIP3    H242043   1.287   0.342  12.159  1.5047 -0.1413 -0.6146
 5950TIP3   OH242044   5.904   2.016   9.982  0.1093 -0.0422 -0.1341
 5950TIP3    H142045   5.994   2.040   9.962  0.3923 -0.2035  0.9126
 5950TIP3    H242046   5.902   2.004  10.077 -1.0871  0.2644 -0.0984
 5951TIP3   OH242047   5.303   6.314  11.779  0.4034  0.2182  0.2359
 5951TIP3    H142048   5.223   6.262  11.781  0.1940  0.5535  0.8025
 5951TIP3    H242049   5.373   6.249  11.767  0.0188 -0.0300 -0.7681
 5952TIP3   OH242050   2.753   1.384   9.422 -0.1360  0.2090 -0.1237
 5952TIP3    H142051   2.721   1.298   9.398 -0.0839  0.1287  0.0888
 5952TIP3    H242052   2.804   1.414   9.346  0.4975 -0.2761  0.1020
 5953TIP3   OH242053   2.344   3.628  11.397 -0.4443  0.1607  0.2786
 5953TIP3    H142054   2.377   3.715  11.374 -1.3278  0.0638 -1.4834
 5953TIP3    H242055   2.377   3.570  11.329 -1.6272 -0.4935  0.2298
 5954TIP3   OH242056   2.345   5.874  11.587  0.1260 -0.4474 -0.2182
 5954TIP3    H142057   2.417   5.928  11.553  1.7363 -1.8728  0.8017
 5954TIP3    H242058   2.386   5.791  11.610 -1.0776 -0.1780  3.6823
 5955TIP3   OH242059   4.837   5.116  11.762  0.4239  0.8256 -0.0023
 5955TIP3    H142060   4.886   5.186  11.719  1.1336  0.2880 -0.0921
 5955TIP3    H242061   4.771   5.161  11.813 -1.9780  1.5133 -3.3532
 5956TIP3   OH242062   3.803   2.863  18.454 -0.2935 -0.4276 -0.3344
 5956TIP3    H142063   3.875   2.894  18.510  1.2764 -0.4181 -2.2560
 5956TIP3    H242064   3.775   2.781  18.493  2.0487 -1.3888 -0.5291
 5957TIP3   OH242065   2.890   1.004  10.398  0.2760 -0.0898  0.1758
 5957TIP3    H142066   2.913   1.077  10.340  0.2932  0.5276  0.9421
 5957TIP3    H242067   2.974   0.964  10.421  0.2318 -0.7289 -0.6964
 5958TIP3   OH242068   4.078   3.339  13.188 -0.1696 -0.6332  0.5255
 5958TIP3    H142069   4.135   3.297  13.124 -1.0306 -2.0996  0.6849
 5958TIP3    H242070   3.993   3.296  13.177 -1.1958  1.2721  0.5016
 5959TIP3   OH242071   0.716   2.409  10.354 -0.2426  0.0857  0.2008
 5959TIP3    H142072   0.690   2.443  10.440 -0.8860  3.0712 -1.0473
 5959TIP3    H242073   0.801   2.449  10.337 -0.9173  0.9840 -1.2490
 5960TIP3   OH242074   5.284   3.914   9.218 -0.0568 -0.1268 -0.3498
 5960TIP3    H142075   5.268   4.002   9.253  0.9672 -0.0830  0.0702
 5960TIP3    H242076   5.375   3.917   9.187  0.7052 -1.5810  1.5034
 5961TIP3   OH242077   1.815   3.775  10.308  0.3608  0.8040  0.1065
 5961TIP3    H142078   1.820   3.783  10.212  1.2274 -0.7896 -0.0288
 5961TIP3    H242079   1.741   3.717  10.323  1.3133 -0.4251  0.2525
 5962TIP3   OH242080   3.890   2.776  11.809 -0.0681  0.2433  0.2367
 5962TIP3    H142081   3.802   2.809  11.826  0.5272  2.7273 -1.1038
 5962TIP3    H242082   3.926   2.759  11.896 -1.1678  1.1718  0.9003
 5963TIP3   OH242083   4.982   0.510  10.273  0.2928  0.0676  0.1040
 5963TIP3    H142084   5.043   0.577  10.305  0.2737 -0.8490  2.1774
 5963TIP3    H242085   5.033   0.462  10.208  0.8026  1.1208 -0.3099
 5964TIP3   OH242086   4.065   6.424  10.936 -0.3887  0.7792  0.4279
 5964TIP3    H142087   4.033   6.487  11.001  1.3048  1.6006  0.5533
 5964TIP3    H242088   4.160   6.438  10.936 -0.2343 -0.0708 -1.3469
 5965TIP3   OH242089   1.129   3.788  10.487 -0.3918 -0.4243 -0.0972
 5965TIP3    H142090   1.056   3.740  10.525 -0.6729 -0.2613 -0.4227
 5965TIP3    H242091   1.207   3.738  10.512 -0.7215 -1.3759 -0.9237
 5966TIP3   OH242092   0.917   0.585  10.104  0.1047  0.1497  0.0043
 5966TIP3    H142093   0.837   0.552  10.064  1.7154 -2.6457 -1.1708
 5966TIP3    H242094   0.926   0.674  10.069 -0.5783 -0.7920 -2.8398
 5967TIP3   OH242095   0.436   2.052   9.770 -0.5909 -0.7281 -0.5074
 5967TIP3    H142096   0.352   2.087   9.740 -0.1299 -0.3333 -1.3958
 5967TIP3    H242097   0.419   2.021   9.859 -1.0156  1.8511  0.3829
 5968TIP3   OH242098   2.831   5.090   9.780  0.2499 -0.5513  0.0882
 5968TIP3    H142099   2.787   5.095   9.695 -1.6141  0.8414  1.0455
 5968TIP3    H242100   2.813   5.002   9.812 -1.4467 -0.2113  0.1835
 5969TIP3   OH242101   2.172   2.164   9.997  0.6231  0.5157 -0.0103
 5969TIP3    H142102   2.184   2.155   9.903  1.2259  0.4124  0.0718
 5969TIP3    H242103   2.077   2.166  10.009  0.4098 -3.0673 -0.2843
 5970TIP3   OH242104   0.743   5.076   9.413  0.2020 -0.0082 -0.1664
 5970TIP3    H142105   0.812   5.067   9.347  0.7096  2.0319  0.0132
 5970TIP3    H242106   0.681   5.138   9.375  0.2938  0.8828  1.0702
 5971TIP3   OH242107   6.100   2.990  10.662 -0.1033  0.3192  0.7493
 5971TIP3    H142108   6.085   2.944  10.579 -1.1292 -0.6645  1.4378
 5971TIP3    H242109   6.139   2.924  10.719  3.4966  1.7811  0.2209
 5972TIP3   OH242110   4.628   0.604  11.705  0.2707  0.5669  0.3056
 5972TIP3    H142111   4.630   0.528  11.763  2.2490  1.0274  0.9143
 5972TIP3    H242112   4.584   0.672  11.756  0.5902  0.5017  0.6781
 5973TIP3   OH242113   3.102   0.046  10.751  0.3764  0.0473  0.0224
 5973TIP3    H142114   3.071   0.089  10.831  0.2184  0.6368 -0.3511
 5973TIP3    H242115   3.095  -0.047  10.770 -2.3524  0.1081 -0.2996
 5974TIP3   OH242116   6.410   2.904   9.592 -0.4490 -0.1427 -0.0859
 5974TIP3    H142117   6.499   2.940   9.598 -0.3490 -0.0821 -1.5199
 5974TIP3    H242118   6.408   2.836   9.659  0.0979  0.9961  1.1303
 5975TIP3   OH242119   1.001   0.032  11.522 -0.3432 -0.3526  0.2046
 5975TIP3    H142120   0.909   0.010  11.531 -0.6842  0.5056 -0.9686
 5975TIP3    H242121   1.026   0.066  11.608 -1.4239  0.4727  0.2056
 5976TIP3   OH242122   0.961   5.715   9.782  0.6646  0.1388  0.0921
 5976TIP3    H142123   0.970   5.803   9.818  2.7127 -0.2893  0.8173
 5976TIP3    H242124   0.897   5.672   9.838  0.4301  0.8453  0.3769
 5977TIP3   OH242125   4.879   2.741  11.497  0.3196  0.2147 -0.1670
 5977TIP3    H142126   4.891   2.662  11.444  0.6764  0.4166 -0.3873
 5977TIP3    H242127   4.822   2.797  11.445 -1.9937 -0.8760  1.0145
 5978TIP3   OH242128   4.452   3.716  11.667  0.2981  0.6387 -0.4594
 5978TIP3    H142129   4.426   3.634  11.625  0.9210 -0.9304  2.0150
 5978TIP3    H242130   4.545   3.706  11.685  0.3185  1.7655  0.1740
 5979TIP3   OH242131   3.313   4.371  12.287  0.0954 -0.3953  0.6143
 5979TIP3    H142132   3.404   4.370  12.257  0.0488  2.1118  0.1775
 5979TIP3    H242133   3.318   4.347  12.380  1.0054 -1.5980  0.2902
 5980TIP3   OH242134   5.300   2.057   9.577  0.0271 -0.2173 -0.4277
 5980TIP3    H142135   5.284   2.149   9.594  1.0301  0.1190 -1.2187
 5980TIP3    H242136   5.259   2.011   9.651  0.0105  0.8814  0.2571
 5981TIP3   OH242137   2.036   1.370  12.968  0.0929 -0.9770  0.0752
 5981TIP3    H142138   2.076   1.414  12.893  0.3360 -0.5354  0.4641
 5981TIP3    H242139   2.051   1.429  13.042 -0.5109 -1.2170  0.3936
 5982TIP3   OH242140   6.586   4.187  10.867 -0.0389 -0.2403  0.2055
 5982TIP3    H142141   6.618   4.198  10.777  1.2711 -1.4520  0.4807
 5982TIP3    H242142   6.544   4.270  10.888  2.3029  1.2287 -0.4999
 5983TIP3   OH242143   1.047   6.177  11.996 -0.1058 -0.4822 -0.0524
 5983TIP3    H142144   1.044   6.223  11.912  1.9880  1.5921  0.8924
 5983TIP3    H242145   0.979   6.219  12.049  1.0484  0.8409  0.4399
 5984TIP3   OH242146   1.486   5.149   9.516  0.2418 -0.0033 -0.0218
 5984TIP3    H142147   1.526   5.070   9.553  0.6934  0.4466  0.4694
 5984TIP3    H242148   1.531   5.221   9.560 -0.3336  0.5262 -0.2921
 5985TIP3   OH242149   4.978   2.166   9.841 -0.5676 -0.2419 -0.1885
 5985TIP3    H142150   5.014   2.135   9.924 -0.5810  0.2228 -0.0082
 5985TIP3    H242151   4.931   2.090   9.805  1.4145 -1.1920 -0.9216
 5986TIP3   OH242152   3.114   3.711  11.214  0.0320  0.1017 -0.4598
 5986TIP3    H142153   3.161   3.777  11.266  1.1450 -0.0708 -1.2038
 5986TIP3    H242154   3.029   3.751  11.196  0.4982  1.1277 -0.4713
 5987TIP3   OH242155   6.048   6.556  10.451 -0.5233  0.1425  0.2005
 5987TIP3    H142156   6.140   6.544  10.428 -0.7426  1.9471 -1.9064
 5987TIP3    H242157   5.999   6.521  10.377 -1.5541 -0.5164  1.1576
 5988TIP3   OH242158   5.243   4.217   9.532 -0.4814  0.5961  0.2095
 5988TIP3    H142159   5.246   4.295   9.587 -0.0674  1.0540 -0.4467
 5988TIP3    H242160   5.241   4.251   9.443  2.1896 -0.1214 -0.2082
 5989TIP3   OH242161   3.728   5.219  12.910 -0.3399 -0.0962 -0.0095
 5989TIP3    H142162   3.724   5.271  12.829  0.1699 -1.3227 -0.8512
 5989TIP3    H242163   3.673   5.143  12.892  0.6318 -0.9133  0.3914
 5990TIP3   OH242164   3.960   6.369  12.427 -0.0230  0.0156  0.6803
 5990TIP3    H142165   3.891   6.383  12.492 -1.0646  0.7278 -0.5129
 5990TIP3    H242166   4.007   6.452  12.424 -0.1635  0.0849  0.3306
 5991TIP3   OH242167   4.271   1.020  12.019 -0.3589 -0.1082 -0.1821
 5991TIP3    H142168   4.267   0.963  11.941 -0.6775 -0.8539  0.3687
 5991TIP3    H242169   4.181   1.019  12.052  0.2215 -1.7014  1.5273
 5992TIP3   OH242170   3.941   0.252  11.224 -0.1338  0.3953  0.4075
 5992TIP3    H142171   4.022   0.209  11.250 -0.1573  0.4224  0.5257
 5992TIP3    H242172   3.928   0.321  11.289  0.3769  1.1616 -0.2905
 5993TIP3   OH242173   3.152   5.511   9.215  0.0778 -0.3038 -0.6330
 5993TIP3    H142174   3.219   5.578   9.202 -0.7397  0.4963 -0.8435
 5993TIP3    H242175   3.167   5.448   9.145  1.0328 -0.5022 -0.2605
 5994TIP3   OH242176   1.787   2.623  12.420  0.3740  0.3817  0.7046
 5994TIP3    H142177   1.789   2.541  12.370  2.2231  1.5714 -1.3419
 5994TIP3    H242178   1.697   2.631  12.449 -0.2660 -1.4963 -0.5479
 5995TIP3   OH242179   4.070   0.575  10.944  0.2872 -0.4155  0.3346
 5995TIP3    H142180   4.052   0.489  10.906  0.0048 -0.1686 -0.1045
 5995TIP3    H242181   4.072   0.560  11.038  0.3451 -0.9225  0.2563
 5996TIP3   OH242182   2.970   5.564  10.201 -0.4234  0.0929  0.1096
 5996TIP3    H142183   2.908   5.625  10.241  0.1000  0.0022  1.0913
 5996TIP3    H242184   3.034   5.546  10.270  1.1863  0.8397 -1.0845
 5997TIP3   OH242185   1.342   2.151   9.566 -0.1676  0.2140 -0.0703
 5997TIP3    H142186   1.298   2.208   9.629  0.2826 -0.0903  0.5341
 5997TIP3    H242187   1.321   2.062   9.596  1.4790  0.0408  0.7205
 5998TIP3   OH242188   1.248   4.350  11.277  0.1402  0.2336  0.1256
 5998TIP3    H142189   1.330   4.359  11.229 -0.1095  0.4532 -0.2590
 5998TIP3    H242190   1.228   4.438  11.307 -1.1340  0.6188 -1.7246
 5999TIP3   OH242191   3.377   0.878   9.889  0.2924  0.0268  0.3964
 5999TIP3    H142192   3.446   0.944   9.894  1.2577 -0.8278 -0.8686
 5999TIP3    H242193   3.424   0.794   9.885 -0.7814 -0.5656 -0.7995
 6000TIP3   OH242194   0.595   1.288  11.435 -0.0274  0.3119  0.2333
 6000TIP3    H142195   0.533   1.352  11.471  0.1256 -1.0629  3.2487
 6000TIP3    H242196   0.544   1.207  11.428  0.1299  0.3546 -2.3027
 6001TIP3   OH242197   0.983   5.034  12.787  0.9815 -0.0504  0.0518
 6001TIP3    H142198   0.929   5.111  12.807  0.6616 -0.3044  0.1595
 6001TIP3    H242199   0.924   4.960  12.796  1.0924 -0.2540 -0.8334
 6002TIP3   OH242200   0.919   2.755   9.534  0.5277 -0.5099 -0.1666
 6002TIP3    H142201   0.946   2.663   9.536  0.7177 -0.4430  1.6063
 6002TIP3    H242202   0.986   2.802   9.583  0.5457  0.6322 -1.2311
 6003TIP3   OH242203   4.011   6.050  10.741  0.0741 -0.3572 -0.2163
 6003TIP3    H142204   3.979   6.089  10.823  1.7227 -1.2173  0.9030
 6003TIP3    H242205   4.089   6.100  10.720  0.9015 -1.5357 -0.0262
 6004TIP3   OH242206   2.910   4.691  12.660 -0.1161 -0.7829 -0.2843
 6004TIP3    H142207   2.984   4.636  12.686  0.3601 -0.3878 -0.7934
 6004TIP3    H242208   2.949   4.765  12.613 -0.8231 -0.5059 -0.4587
 6005TIP3   OH242209   0.392   6.469  11.286 -0.3116 -0.1461  0.5201
 6005TIP3    H142210   0.297   6.473  11.281 -0.3519 -0.9280  0.5559
 6005TIP3    H242211   0.418   6.411  11.214  0.2511  1.1977 -0.4092
 6006TIP3   OH242212   4.992   1.933   8.896  0.1145 -0.9149  0.4492
 6006TIP3    H142213   5.072   1.972   8.933 -0.3074  1.1730 -0.7485
 6006TIP3    H242214   4.934   2.007   8.879 -1.6280 -2.2875  0.1487
 6007TIP3   OH242215   0.551   1.257  11.124 -0.1592  0.2070 -0.3549
 6007TIP3    H142216   0.631   1.298  11.156 -0.3563  1.0690 -0.9267
 6007TIP3    H242217   0.544   1.286  11.033 -1.0775  0.0841 -0.3307
 6008TIP3   OH242218   2.508   6.655  10.113  0.5336 -0.1126  0.7512
 6008TIP3    H142219   2.566   6.581  10.100  0.7884  0.0669  0.8568
 6008TIP3    H242220   2.443   6.624  10.177 -0.4243 -0.8244 -0.5176
 6009TIP3   OH242221   0.242   3.437  10.558 -0.3684  0.1979 -0.0264
 6009TIP3    H142222   0.249   3.519  10.508  0.2708 -0.0396 -0.3475
 6009TIP3    H242223   0.235   3.465  10.649 -1.7783  0.6477 -0.2486
 6010TIP3   OH242224   1.589   0.612  12.529 -0.5064  0.3551 -0.8937
 6010TIP3    H142225   1.613   0.592  12.620 -1.7985  0.8115 -0.4297
 6010TIP3    H242226   1.630   0.542  12.478 -0.5961 -0.4952  0.1459
 6011TIP3   OH242227   1.017   0.853   9.573 -0.4754 -0.4118  0.2793
 6011TIP3    H142228   0.980   0.765   9.570 -0.5208 -0.5437  2.4981
 6011TIP3    H242229   1.112   0.839   9.571 -0.4594 -0.2740 -2.3127
 6012TIP3   OH242230   3.926   3.957  11.218 -0.8715  0.1641 -0.6082
 6012TIP3    H142231   3.950   3.884  11.275 -1.8430  1.5534  1.7717
 6012TIP3    H242232   3.847   3.927  11.173 -0.9201 -0.4819 -0.1077
 6013TIP3   OH242233   3.641   1.177  12.477  0.1342 -0.0114 -0.3327
 6013TIP3    H142234   3.679   1.162  12.390 -1.5833 -0.3108 -1.0682
 6013TIP3    H242235   3.714   1.209  12.530  1.3363 -0.3209 -1.7411
 6014TIP3   OH242236   5.945   0.210  10.361 -0.5852 -0.2530  0.1830
 6014TIP3    H142237   5.919   0.126  10.399 -0.0961  0.1866  1.5316
 6014TIP3    H242238   5.998   0.252  10.429  0.0487  0.7080 -0.8680
 6015TIP3   OH242239   2.171   4.589  12.276 -0.1389  0.5289 -0.2136
 6015TIP3    H142240   2.229   4.631  12.339  1.2621  0.6176 -1.5103
 6015TIP3    H242241   2.227   4.526  12.230 -1.3032 -0.0672 -0.8644
 6016TIP3   OH242242   0.968   3.952   9.637 -0.2359 -0.1142 -0.2054
 6016TIP3    H142243   0.901   3.929   9.701  0.0739 -1.4319 -0.3378
 6016TIP3    H242244   1.050   3.949   9.685 -0.2441  1.7182  0.0133
 6017TIP3   OH242245   3.136   0.310  11.143 -0.2637 -0.2007 -0.2125
 6017TIP3    H142246   3.105   0.269  11.224  0.6285  2.2683  1.5452
 6017TIP3    H242247   3.225   0.278  11.132  0.3342  0.9324  0.9955
 6018TIP3   OH242248   5.495   2.910  12.181 -0.2176  0.1548 -0.3958
 6018TIP3    H142249   5.501   2.931  12.088  1.7868 -1.0199 -0.5842
 6018TIP3    H242250   5.541   2.827  12.190 -1.1344 -0.1993  1.5291
 6019TIP3   OH242251   4.336   5.478  11.685 -0.0240 -0.0743 -0.2466
 6019TIP3    H142252   4.408   5.519  11.637 -0.1700 -0.2876 -0.6477
 6019TIP3    H242253   4.262   5.537  11.673 -0.1012 -0.2047 -0.4068
 6020TIP3   OH242254   6.185   5.282  11.026 -0.0651 -0.2584 -0.1170
 6020TIP3    H142255   6.210   5.315  10.940 -3.2503  1.9581 -0.3839
 6020TIP3    H242256   6.139   5.200  11.007  3.8986 -2.8235  0.1532
 6021TIP3   OH242257   1.902   6.613   9.527  0.0597 -0.6585  0.1777
 6021TIP3    H142258   1.941   6.649   9.606  0.1265 -2.5171  1.0580
 6021TIP3    H242259   1.977   6.595   9.470  0.1232 -0.4328  0.1904
 6022TIP3   OH242260   1.394   0.644  10.564  0.9198  0.1710  0.3143
 6022TIP3    H142261   1.381   0.695  10.644  1.8240  1.1605 -0.1538
 6022TIP3    H242262   1.350   0.561  10.581  0.9992  0.4148  1.7958
 6023TIP3   OH242263   1.584   3.627  10.354  0.1189 -0.3502  0.1115
 6023TIP3    H142264   1.587   3.597  10.263  1.1678 -0.7900  0.2817
 6023TIP3    H242265   1.545   3.714  10.349  1.0029  0.0037 -0.8622
 6024TIP3   OH242266   2.883   4.073  12.701  0.0426 -0.5418 -0.5039
 6024TIP3    H142267   2.916   4.008  12.763  1.6716  2.4950  2.1030
 6024TIP3    H242268   2.791   4.050  12.689  0.6292 -3.5194 -0.1317
 6025TIP3   OH242269   4.501   5.670  12.376 -0.4678  0.1073 -0.5434
 6025TIP3    H142270   4.585   5.626  12.388  0.9672  2.8241  0.0682
 6025TIP3    H242271   4.452   5.612  12.317  1.2801 -2.2043  0.1487
 6026TIP3   OH242272   6.347   2.930  12.356 -0.7942 -0.4204 -0.0262
 6026TIP3    H142273   6.354   2.862  12.288 -0.7233 -2.0774  1.5669
 6026TIP3    H242274   6.339   2.881  12.438 -1.5302  1.5202  1.1182
 6027TIP3   OH242275   6.422   1.202   9.313 -0.3741 -0.6034  0.8631
 6027TIP3    H142276   6.335   1.210   9.275 -0.1887 -0.3142  0.4983
 6027TIP3    H242277   6.464   1.286   9.297  0.9449 -1.5862 -1.4207
 6028TIP3   OH242278   4.768   2.635  10.864 -0.0645 -0.0157 -0.6992
 6028TIP3    H142279   4.730   2.723  10.867 -1.7918 -0.7330 -0.2995
 6028TIP3    H242280   4.733   2.596  10.785 -0.2241 -0.7342 -0.2821
 6029TIP3   OH242281   5.997   5.193  11.791  0.6823  0.1609  0.4602
 6029TIP3    H142282   6.028   5.103  11.790  0.2398 -0.0584  2.5688
 6029TIP3    H242283   6.071   5.244  11.757  1.5021 -0.8461  0.6758
 6030TIP3   OH242284   3.238   3.019   9.822  0.0089 -0.1566  0.4268
 6030TIP3    H142285   3.285   2.987   9.899 -1.2925  0.0316  1.3147
 6030TIP3    H242286   3.213   3.108   9.843 -1.8171 -0.6495  0.4892
 6031TIP3   OH242287   4.173   2.533  10.054  0.0675  0.1869 -0.2942
 6031TIP3    H142288   4.119   2.556   9.978  0.6761 -0.6215 -0.9849
 6031TIP3    H242289   4.120   2.469  10.102 -0.3390  0.7351 -0.0005
 6032TIP3   OH242290   3.114   4.212  12.151  0.0267 -0.4418  0.1908
 6032TIP3    H142291   3.146   4.269  12.221  0.1923 -0.1082 -0.1539
 6032TIP3    H242292   3.103   4.270  12.076 -1.1956 -0.5869  0.2353
 6033TIP3   OH242293   3.149   0.934  11.817  0.1933 -0.4933  0.4875
 6033TIP3    H142294   3.186   0.898  11.737 -0.8463  0.1246 -0.2967
 6033TIP3    H242295   3.170   1.027  11.814 -1.0686 -0.1980  0.2083
 6034TIP3   OH242296   3.584   6.244  12.356 -0.1339 -0.1579 -0.0451
 6034TIP3    H142297   3.635   6.181  12.305  1.2404  0.1575  0.8552
 6034TIP3    H242298   3.595   6.215  12.447  0.8425  1.5563  0.4243
 6035TIP3   OH242299   0.673   5.217  10.988  0.2654 -0.4724 -0.6717
 6035TIP3    H142300   0.583   5.227  11.017 -0.6092 -0.4317 -3.1641
 6035TIP3    H242301   0.716   5.168  11.059 -1.6107 -0.2684  0.6791
 6036TIP3   OH242302   3.015   3.216  10.432 -0.1365  0.1710  0.4938
 6036TIP3    H142303   3.056   3.297  10.401  1.2262 -0.2852  1.0333
 6036TIP3    H242304   2.973   3.240  10.514 -1.6027  0.8109 -0.4235
 6037TIP3   OH242305   5.050   3.342  10.422  0.0976 -0.8201 -0.0187
 6037TIP3    H142306   5.063   3.393  10.502  2.8232  0.4048 -1.1100
 6037TIP3    H242307   5.109   3.267  10.433 -0.2270 -1.1430 -0.4825
 6038TIP3   OH242308   4.212   4.672   9.489  0.5745 -0.0530 -0.0001
 6038TIP3    H142309   4.245   4.585   9.512 -0.8554 -0.9334 -1.1336
 6038TIP3    H242310   4.117   4.666   9.503  0.6162  1.9296  1.7118
 6039TIP3   OH242311   1.657   1.897  11.039  0.0082  0.2631  0.1253
 6039TIP3    H142312   1.646   1.879  10.946  1.1511 -1.7267  0.3184
 6039TIP3    H242313   1.589   1.845  11.082 -0.1591  0.7382  0.4464
 6040TIP3   OH242314   1.118   5.586   9.332 -0.4392 -0.1491  0.4439
 6040TIP3    H142315   1.046   5.524   9.336 -0.8268  0.2140 -0.4951
 6040TIP3    H242316   1.194   5.534   9.306 -0.8055 -0.2147 -0.5403
 6041TIP3   OH242317   0.832   2.837  11.823 -0.5060  0.2938 -0.2143
 6041TIP3    H142318   0.769   2.908  11.819  0.2326  1.0170  0.5636
 6041TIP3    H242319   0.873   2.846  11.909 -1.0090 -1.6053  0.2747
 6042TIP3   OH242320   2.107   3.540  11.726 -0.0782  0.2295 -0.1471
 6042TIP3    H142321   2.189   3.590  11.718  0.2741 -0.5984 -2.3349
 6042TIP3    H242322   2.079   3.526  11.636 -0.6274 -2.7250  0.3965
 6043TIP3   OH242323   3.653   4.013  12.988 -0.1360 -0.2435  0.5416
 6043TIP3    H142324   3.709   4.048  12.918 -3.0241  1.0415 -1.3470
 6043TIP3    H242325   3.588   3.960  12.942  0.2318 -2.8394  2.7694
 6044TIP3   OH242326   3.663   4.343  10.916 -0.1065 -0.1579  0.4176
 6044TIP3    H142327   3.728   4.287  10.959  1.7041  0.0140 -1.9204
 6044TIP3    H242328   3.699   4.431  10.922 -0.3161  0.0062 -0.5164
 6045TIP3   OH242329   3.047   2.987  11.392  0.6953 -0.1033 -0.4394
 6045TIP3    H142330   3.061   3.075  11.357  0.7598  0.2284  0.4194
 6045TIP3    H242331   2.982   2.948  11.332  0.7938  0.4610 -0.9193
 6046TIP3   OH242332   3.114   1.172  11.437  0.1265 -0.3832 -0.2064
 6046TIP3    H142333   3.206   1.148  11.426  0.1265  0.5295 -2.7990
 6046TIP3    H242334   3.066   1.093  11.414  0.2130 -0.7233  0.7147
 6047TIP3   OH242335   2.029   4.890   9.957 -0.6370 -0.1205 -0.4345
 6047TIP3    H142336   1.977   4.960   9.917 -1.0490  0.0360  0.3564
 6047TIP3    H242337   2.113   4.893   9.911 -0.4523  1.2562 -0.0645
 6048TIP3   OH242338   3.293   3.376  11.669 -0.0345  0.1282 -0.3026
 6048TIP3    H142339   3.348   3.331  11.606 -0.9325 -0.0860 -0.9550
 6048TIP3    H242340   3.328   3.351  11.755  0.5017 -0.4732 -0.6916
 6049TIP3   OH242341   5.858   4.045  10.217 -0.0259  0.4011 -0.5055
 6049TIP3    H142342   5.911   4.076  10.290  0.0988 -1.8991  0.4812
 6049TIP3    H242343   5.915   4.054  10.141  0.8619  0.3140  0.1292
 6050TIP3   OH242344   2.695   4.407  12.908  0.4423 -0.1796  0.4620
 6050TIP3    H142345   2.777   4.445  12.940  1.8790 -0.6300 -2.4036
 6050TIP3    H242346   2.698   4.316  12.935  0.0856  0.1581  1.7155
 6051TIP3   OH242347   5.096   3.937  12.346 -0.1664  0.1249  0.1391
 6051TIP3    H142348   5.087   3.988  12.427 -2.2742  0.2283 -0.1062
 6051TIP3    H242349   5.039   3.982  12.283  1.1264 -0.1862 -1.3170
 6052TIP3   OH242350   0.563   4.642   9.772 -0.1672  0.3122 -0.5103
 6052TIP3    H142351   0.654   4.674   9.767 -0.1627  0.3162 -0.4096
 6052TIP3    H242352   0.561   4.566   9.715  0.2450 -0.5061  0.5272
 6053TIP3   OH242353   1.709   2.018  10.723 -0.1868  0.6815  0.2278
 6053TIP3    H142354   1.796   1.990  10.753  0.2085  1.3828 -0.2367
 6053TIP3    H242355   1.677   2.075  10.793 -0.0073  0.9196  0.1169
 6054TIP3   OH242356   5.223   1.398  11.550 -0.2035  0.1085 -0.5275
 6054TIP3    H142357   5.279   1.358  11.617 -0.5141  1.3936  0.5321
 6054TIP3    H242358   5.275   1.393  11.469  0.3293 -1.1366 -0.1361
 6055TIP3   OH242359   6.069   4.305  10.344  0.2639 -0.4072 -0.3103
 6055TIP3    H142360   6.156   4.341  10.331 -0.5665  1.1871 -1.8513
 6055TIP3    H242361   6.047   4.264  10.260 -1.1229  0.7543 -0.5538
 6056TIP3   OH242362   1.115   5.733  10.781 -0.2839  0.5307 -0.0109
 6056TIP3    H142363   1.045   5.766  10.838 -0.0856  0.0003  0.5490
 6056TIP3    H242364   1.079   5.740  10.693 -1.2285 -0.1558  0.3016
 6057TIP3   OH242365   4.812   4.370  11.025 -0.4475 -0.0783  0.1422
 6057TIP3    H142366   4.797   4.382  10.932 -2.9787  2.3579  0.7562
 6057TIP3    H242367   4.754   4.298  11.050  1.8812 -2.2997 -0.4425
 6058TIP3   OH242368   4.908   3.845   9.834  0.7015  0.5520 -0.3200
 6058TIP3    H142369   4.924   3.774   9.773  0.9570 -0.9670  1.4086
 6058TIP3    H242370   4.846   3.902   9.789 -0.3057 -1.2968 -1.4155
 6059TIP3   OH242371   3.984   2.112   9.697  0.0131  1.1689 -0.0049
 6059TIP3    H142372   4.057   2.173   9.701  0.2676  0.8672 -0.0486
 6059TIP3    H242373   3.976   2.091   9.604  0.3607  0.6150  0.0839
 6060TIP3   OH242374   2.935   4.202  10.248 -0.0851  0.1520 -0.3079
 6060TIP3    H142375   3.023   4.178  10.277 -0.0569  0.6027 -0.0273
 6060TIP3    H242376   2.949   4.263  10.175 -0.1542  1.6352  0.8773
 6061TIP3   OH242377   4.991   1.291   9.716 -0.3316  0.1470  0.3072
 6061TIP3    H142378   4.918   1.255   9.666  0.2367 -0.7827  0.1204
 6061TIP3    H242379   4.987   1.385   9.700 -3.0047  0.4831  2.3409
 6062TIP3   OH242380   4.094   1.248   9.552  0.0992 -0.3510  0.2762
 6062TIP3    H142381   4.136   1.335   9.549 -0.3943 -0.0658 -3.6645
 6062TIP3    H242382   4.004   1.266   9.580 -0.3051  0.6609 -1.5037
 6063TIP3   OH242383   1.216   5.647   9.631  0.7421 -0.5227 -0.4264
 6063TIP3    H142384   1.212   5.552   9.625  0.1425 -0.6567  1.3952
 6063TIP3    H242385   1.133   5.672   9.672  0.2246  0.9506 -2.1988
 6064TIP3   OH242386   2.749   1.170  11.387 -0.6239 -0.2060  0.7895
 6064TIP3    H142387   2.701   1.114  11.326  0.3343 -0.4132  0.2065
 6064TIP3    H242388   2.808   1.221  11.331  0.1349 -0.2694  1.5175
 6065TIP3   OH242389   5.775   6.038   9.663  0.2330  0.0572 -0.0534
 6065TIP3    H142390   5.749   6.129   9.671 -0.7376 -0.2636  0.5378
 6065TIP3    H242391   5.731   6.008   9.583 -0.9175 -0.3722  0.7233
 6066TIP3   OH242392   5.968   6.177  11.344 -0.3426 -0.3739  0.2225
 6066TIP3    H142393   5.953   6.084  11.363  0.8478 -0.9575 -1.3969
 6066TIP3    H242394   6.055   6.195  11.380 -1.1031  0.5207  1.7107
 6067TIP3   OH242395   4.726   5.306  12.752  0.2872  0.1723 -0.1231
 6067TIP3    H142396   4.817   5.326  12.727  0.4519  0.3450  0.6088
 6067TIP3    H242397   4.732   5.276  12.843 -0.2575 -0.8601 -0.4102
 6068TIP3   OH242398   0.866   5.586   9.517 -0.0057 -0.3612  0.5132
 6068TIP3    H142399   0.776   5.568   9.544 -0.8008  1.8472 -0.4154
 6068TIP3    H242400   0.913   5.604   9.599 -0.2633 -1.9603  1.0390
 6069TIP3   OH242401   1.835   1.356  10.350 -0.0110  0.2369 -0.1058
 6069TIP3    H142402   1.760   1.415  10.345  1.0563  1.6359 -0.2658
 6069TIP3    H242403   1.858   1.338  10.259  1.5099  2.0689 -0.1395
 6070TIP3   OH242404   2.291   1.694  12.147 -0.0659 -0.5832  0.5536
 6070TIP3    H142405   2.243   1.750  12.208  1.4160 -0.7216  1.9046
 6070TIP3    H242406   2.258   1.606  12.164 -0.2322 -0.5175  0.5749
 6071TIP3   OH242407   0.007   1.266  11.735  0.5417  0.2959 -0.3041
 6071TIP3    H142408  -0.010   1.275  11.829  1.4792 -1.1519  0.0324
 6071TIP3    H242409  -0.079   1.266  11.695 -0.0280 -1.5644  0.8100
 6072TIP3   OH242410   0.292   6.641   9.863  0.2225  0.5806  0.1362
 6072TIP3    H142411   0.213   6.602   9.900  1.1411  0.9250  2.6787
 6072TIP3    H242412   0.262   6.721   9.822 -0.8228  0.5176  0.7334
 6073TIP3   OH242413   2.113   5.529  10.747 -0.0614  0.1499 -0.4774
 6073TIP3    H142414   2.091   5.436  10.739  0.2139  0.1513 -1.4542
 6073TIP3    H242415   2.036   5.575  10.714 -0.5728  0.3089  0.8932
 6074TIP3   OH242416   6.586   6.578  10.355 -0.1149  0.6453  0.1381
 6074TIP3    H142417   6.650   6.507  10.349  0.8192  1.4715  0.0661
 6074TIP3    H242418   6.577   6.611  10.266  0.3773  1.3929  0.3518
 6075TIP3   OH242419   2.635   3.735  11.390  0.1217  0.2667 -0.0954
 6075TIP3    H142420   2.645   3.678  11.314  1.3187  1.3558 -0.8028
 6075TIP3    H242421   2.553   3.782  11.374 -1.3223 -1.8011  0.9148
 6076TIP3   OH242422   6.289   4.357   9.528  0.4812  0.2525 -0.1336
 6076TIP3    H142423   6.332   4.441   9.544 -1.0739  0.7457  1.8570
 6076TIP3    H242424   6.342   4.294   9.575 -0.0373  0.6127  0.9587
 6077TIP3   OH242425   6.252   0.708  12.484  0.2788 -0.2264 -0.9704
 6077TIP3    H142426   6.283   0.687  12.572  1.9981  2.3810 -0.8499
 6077TIP3    H242427   6.185   0.642  12.466  0.0185 -0.9896  2.1815
 6078TIP3   OH242428   4.419   1.572  10.213  0.2109  0.0390 -0.1417
 6078TIP3    H142429   4.394   1.542  10.301 -0.6132  1.1661  0.0403
 6078TIP3    H242430   4.344   1.551  10.158  0.6027 -0.3867 -0.5186
 6079TIP3   OH242431   0.882   3.884  12.125 -0.2405  0.1089 -0.0093
 6079TIP3    H142432   0.849   3.921  12.207 -0.5309  1.3662 -0.6713
 6079TIP3    H242433   0.977   3.894  12.131 -0.2747  0.3842  0.0972
 6080TIP3   OH242434   0.810   3.932  11.060 -0.1219 -0.2173  0.0956
 6080TIP3    H142435   0.868   3.897  10.992 -1.8051 -0.5310 -1.2548
 6080TIP3    H242436   0.796   3.859  11.120  0.9771 -0.0919  0.5237
 6081TIP3   OH242437   1.536   4.793  11.659  0.0831 -0.2110  0.1156
 6081TIP3    H142438   1.620   4.826  11.691 -0.7658  1.1826  1.0702
 6081TIP3    H242439   1.529   4.705  11.696  0.6741  0.0669  0.9255
 6082TIP3   OH242440   3.365   1.059  11.438 -0.0507  0.0670  0.4298
 6082TIP3    H142441   3.415   1.006  11.500  0.7797  1.8103  1.3313
 6082TIP3    H242442   3.396   1.032  11.352  0.4736 -0.7669  0.8762
 6083TIP3   OH242443   1.481   4.523  11.742  0.0196 -0.2504  0.3232
 6083TIP3    H142444   1.533   4.446  11.762 -1.8352 -1.4491  0.7924
 6083TIP3    H242445   1.398   4.508  11.787 -1.0907  1.1239 -1.1479
 6084TIP3   OH242446   6.361   2.737  10.478 -0.2273  0.0931 -0.1774
 6084TIP3    H142447   6.407   2.800  10.533  0.3336  0.8288 -1.4483
 6084TIP3    H242448   6.401   2.747  10.392 -2.1172  0.0776 -1.1036
 6085TIP3   OH242449   0.803   3.526  11.783 -0.1623 -0.9460 -0.3720
 6085TIP3    H142450   0.827   3.540  11.692 -1.4158 -0.5509 -0.6627
 6085TIP3    H242451   0.771   3.611  11.813  0.8685 -0.8879  0.6577
 6086TIP3   OH242452   0.238   2.565  11.874 -0.2406  0.5319 -0.4129
 6086TIP3    H142453   0.228   2.490  11.816 -0.3090 -0.1240  0.4259
 6086TIP3    H242454   0.171   2.552  11.942 -0.5741  1.5998 -0.5119
 6087TIP3   OH242455   6.474   5.636  12.062  0.1124  0.4251  0.0638
 6087TIP3    H142456   6.532   5.567  12.092  0.5223  0.7022 -0.0758
 6087TIP3    H242457   6.509   5.660  11.976  0.3971  1.2816  0.4081
 6088TIP3   OH242458   2.323   3.733  11.645  0.2357  0.0991 -0.0112
 6088TIP3    H142459   2.319   3.710  11.552 -1.4431 -1.0434  0.3033
 6088TIP3    H242460   2.313   3.828  11.646 -0.1232  0.0830 -0.9736
 6089TIP3   OH242461   0.219   6.016  10.075 -0.4392  0.1205  0.1918
 6089TIP3    H142462   0.283   5.970  10.020 -0.7319 -0.0402 -0.0162
 6089TIP3    H242463   0.267   6.091  10.109 -0.5519  0.8271 -1.1446
 6090TIP3   OH242464   3.075   0.425  10.270 -0.1388 -0.2621  0.4319
 6090TIP3    H142465   3.077   0.519  10.283  0.6367 -0.2026 -0.0619
 6090TIP3    H242466   3.079   0.388  10.358 -1.5534  0.1637  0.6887
 6091TIP3   OH242467   0.242   5.422   9.335  0.5597 -0.3146 -0.2257
 6091TIP3    H142468   0.266   5.357   9.400 -1.3186 -0.0972  0.7617
 6091TIP3    H242469   0.174   5.379   9.282  1.9436 -0.4362 -1.9899
 6092TIP3   OH242470   0.053   3.087  11.306  0.5814  0.1141 -0.2672
 6092TIP3    H142471  -0.010   3.149  11.270  0.7959  1.0096  0.8394
 6092TIP3    H242472   0.122   3.142  11.343  1.9129 -0.8309 -1.2197
 6093TIP3   OH242473   2.074   2.390  11.777  0.0184 -0.3399  0.5128
 6093TIP3    H142474   2.140   2.426  11.836 -0.7535  1.4937  0.3342
 6093TIP3    H242475   2.122   2.367  11.698  0.6001  0.0719  0.7424
 6094TIP3   OH242476   1.108   4.307  10.238  0.8188 -0.5996 -0.1998
 6094TIP3    H142477   1.056   4.249  10.183 -0.5443  0.3827  0.0140
 6094TIP3    H242478   1.174   4.344  10.178  0.6110 -1.0525 -0.7150
 6095TIP3   OH242479   4.250   4.341  10.854 -0.1390 -0.0946  0.2170
 6095TIP3    H142480   4.163   4.307  10.876 -0.4681  1.6808  1.8935
 6095TIP3    H242481   4.234   4.402  10.783 -0.1428 -0.3104  0.0304
 6096TIP3   OH242482   1.933   5.410   9.865 -0.3892  1.2888 -0.2605
 6096TIP3    H142483   1.992   5.392   9.793 -0.7565  0.9290 -0.4804
 6096TIP3    H242484   1.950   5.501   9.890  0.8371  0.9503  0.2259
 6097TIP3   OH242485   4.405   1.879  11.486 -0.2439  0.4023  0.6489
 6097TIP3    H142486   4.418   1.785  11.474 -0.0389  0.2789  1.7453
 6097TIP3    H242487   4.487   1.910  11.525 -0.7856  0.7871  1.5175
 6098TIP3   OH242488   5.160   0.244  10.633  0.3525  0.0930  0.5664
 6098TIP3    H142489   5.194   0.264  10.720 -1.9015 -0.3826  1.6465
 6098TIP3    H242490   5.179   0.151  10.621  0.5080  0.1171  0.6259
 6099TIP3   OH242491   6.725   3.097  11.584 -0.5472  0.9401  0.2085
 6099TIP3    H142492   6.742   3.033  11.515  2.7412  0.5179  1.2355
 6099TIP3    H242493   6.811   3.117  11.620 -2.1385 -0.2268  5.4174
 6100TIP3   OH242494   0.839   5.447  11.348 -0.5819  0.2466 -0.6883
 6100TIP3    H142495   0.814   5.388  11.278  0.8215  1.0675 -1.9366
 6100TIP3    H242496   0.806   5.533  11.320 -3.2559  0.0506  1.4386
 6101TIP3   OH242497   1.555   5.420  10.045  0.1620  0.8309 -0.2360
 6101TIP3    H142498   1.482   5.458  10.095  2.4444  1.4995  2.8636
 6101TIP3    H242499   1.589   5.493   9.994 -0.5851  0.7773 -0.8444
 6102TIP3   OH242500   6.157   4.260  11.796 -0.2750 -0.4863 -0.0273
 6102TIP3    H142501   6.177   4.288  11.706 -0.3359 -0.2718  0.0263
 6102TIP3    H242502   6.238   4.275  11.844 -0.1414 -0.8982 -0.1152
 6103TIP3   OH242503   6.194   4.898  11.078 -0.7259  0.0787  0.3573
 6103TIP3    H142504   6.216   4.806  11.061 -0.2844  0.1187  0.6991
 6103TIP3    H242505   6.188   4.937  10.990  0.8380  0.1162  0.2304
 6104TIP3   OH242506   6.507   3.785  10.505  0.3557  0.1658  0.2217
 6104TIP3    H142507   6.415   3.809  10.499 -0.0222 -0.4133  2.5380
 6104TIP3    H242508   6.506   3.692  10.526  1.2783  0.6363  2.8181
 6105TIP3   OH242509   3.433   4.745  12.793 -0.1366  0.1281  0.4838
 6105TIP3    H142510   3.420   4.677  12.726 -0.6209  0.9466 -0.2719
 6105TIP3    H242511   3.345   4.777  12.811 -0.0990 -0.5536  2.0523
 6106TIP3   OH242512   3.897   1.590  11.209 -0.0328  0.8744  0.0109
 6106TIP3    H142513   3.919   1.552  11.294 -1.0770 -2.5498 -1.0712
 6106TIP3    H242514   3.981   1.601  11.165  0.3528  0.2917  0.5863
 6107TIP3   OH242515   2.663   1.292  11.799 -0.3384 -0.1392 -0.2083
 6107TIP3    H142516   2.732   1.252  11.746  0.2528  1.1599 -0.4561
 6107TIP3    H242517   2.587   1.234  11.788  0.2079 -0.6680 -1.2958
 6108TIP3   OH242518   1.916   3.920  11.128 -0.3809 -0.1747 -0.3505
 6108TIP3    H142519   1.998   3.967  11.143 -0.8293  0.2387  0.9973
 6108TIP3    H242520   1.876   3.964  11.054  0.4189 -0.1260 -0.7694
 6109TIP3   OH242521   2.832   3.241  10.229  0.0273 -0.5649  0.3241
 6109TIP3    H142522   2.914   3.243  10.278  0.6891 -2.5305 -0.6118
 6109TIP3    H242523   2.780   3.173  10.272  0.1307 -1.4518 -0.8878
 6110TIP3   OH242524   0.085   2.350  10.968 -0.3046  0.2152  0.0228
 6110TIP3    H142525   0.104   2.433  10.924  1.7360  0.4719  1.2271
 6110TIP3    H242526   0.046   2.375  11.052 -0.6324 -0.0806 -0.0411
 6111TIP3   OH242527   3.413   1.369  12.170  0.3242 -0.8755  0.4610
 6111TIP3    H142528   3.384   1.331  12.253 -0.1514  0.5158  0.9699
 6111TIP3    H242529   3.335   1.412  12.135  0.9359  0.0413  0.1715
 6112TIP3   OH242530   4.062   4.249   9.869 -0.1934 -0.0411  0.2246
 6112TIP3    H142531   4.025   4.163   9.892  1.9119 -1.0798 -0.0852
 6112TIP3    H242532   4.089   4.239   9.778  1.9809  0.2410  0.8041
 6113TIP3   OH242533   2.411   0.445  12.708 -0.0263  0.0891 -0.0675
 6113TIP3    H142534   2.429   0.417  12.797 -0.8326 -1.3529 -0.3264
 6113TIP3    H242535   2.392   0.364  12.660  0.6093  0.7922 -1.6072
 6114TIP3   OH242536   4.397   5.946  10.572  0.0544  0.1453 -0.4005
 6114TIP3    H142537   4.354   6.025  10.540 -0.4425 -0.2290 -0.6609
 6114TIP3    H242538   4.487   5.953  10.538  0.1097  0.7669 -0.1251
 6115TIP3   OH242539   3.969   1.133  10.616  0.1070 -0.1720 -0.6274
 6115TIP3    H142540   4.051   1.164  10.578  0.7361  1.1962  1.6054
 6115TIP3    H242541   3.996   1.078  10.689 -0.8869  1.0308  0.7072
 6116TIP3   OH242542   1.211   5.831  10.489 -0.7063 -0.0008 -0.5021
 6116TIP3    H142543   1.204   5.918  10.449  1.2701  0.1763 -0.5724
 6116TIP3    H242544   1.159   5.774  10.432 -2.1988  1.1252 -0.3440
 6117TIP3   OH242545   0.722   5.951  11.619  0.4000  0.5174  0.1210
 6117TIP3    H142546   0.804   5.994  11.645  0.2937  1.4434 -0.9804
 6117TIP3    H242547   0.722   5.957  11.523 -1.7032  2.0045  0.1527
 6118TIP3   OH242548   2.319   4.286  10.070 -0.5124  0.0697  0.7340
 6118TIP3    H142549   2.375   4.209  10.077 -0.1249  0.4059  1.5601
 6118TIP3    H242550   2.312   4.303   9.976 -0.4868 -0.8811  0.5565
 6119TIP3   OH242551   1.860   0.513  10.282  0.2555 -0.7196  0.3860
 6119TIP3    H142552   1.834   0.456  10.209 -1.3880 -2.1403  1.9865
 6119TIP3    H242553   1.951   0.534  10.265  0.2505 -1.9820 -1.4629
 6120TIP3   OH242554   4.063   5.349  13.017  0.7423 -0.0194  0.5026
 6120TIP3    H142555   4.052   5.441  13.040 -1.6012 -0.1426  0.1285
 6120TIP3    H242556   4.032   5.343  12.926  1.2770 -1.1113  0.3780
 6121TIP3   OH242557   3.154   2.632  11.988 -0.0480  0.4621  0.4567
 6121TIP3    H142558   3.137   2.701  11.923  1.6602  0.2891 -0.2371
 6121TIP3    H242559   3.238   2.655  12.026  0.9415 -1.5916 -0.3185
 6122TIP3   OH242560   5.186   3.518  11.697 -0.4685  0.0074  0.0665
 6122TIP3    H142561   5.119   3.499  11.632 -0.1556 -0.9903  0.0247
 6122TIP3    H242562   5.173   3.611  11.718 -0.3924  0.4215 -1.6015
 6123TIP3   OH242563   1.220   3.113  12.192  0.0350  0.2965  0.3307
 6123TIP3    H142564   1.244   3.132  12.101  0.1207 -2.3501 -0.2827
 6123TIP3    H242565   1.231   3.018  12.200 -0.0731  0.4479  3.0962
 6124TIP3   OH242566   2.812   5.353  11.077 -0.8725  0.1596 -0.3744
 6124TIP3    H142567   2.841   5.437  11.041 -1.1017  0.7355  0.7263
 6124TIP3    H242568   2.752   5.318  11.011  1.0382 -0.3019 -1.9551
 6125TIP3   OH242569   0.614   5.510   9.532 -0.1023 -0.2070  0.3276
 6125TIP3    H142570   0.594   5.454   9.457 -1.5557  0.0744  0.4743
 6125TIP3    H242571   0.572   5.466   9.606 -0.4983  0.5942  0.5944
 6126TIP3   OH242572   2.660   0.520   9.615  0.0555 -0.3380  0.2029
 6126TIP3    H142573   2.616   0.573   9.548  0.7083  2.0173  1.5378
 6126TIP3    H242574   2.730   0.475   9.567  0.6516  1.4608 -0.6908
 6127TIP3   OH242575   2.079   0.859  10.764 -0.5353  0.3356 -0.7626
 6127TIP3    H142576   2.134   0.784  10.743 -0.8453  0.4113 -1.8785
 6127TIP3    H242577   2.140   0.923  10.801 -0.3395 -0.6038  0.6520
 6128TIP3   OH242578   2.062   2.406  11.004 -0.6552 -0.1303 -0.4839
 6128TIP3    H142579   2.098   2.492  11.027 -1.1316 -0.5942  2.3750
 6128TIP3    H242580   2.089   2.349  11.076 -3.2989 -1.5507 -0.5096
 6129TIP3   OH242581   0.437   1.209  10.377 -0.4361 -0.0718  0.2489
 6129TIP3    H142582   0.363   1.205  10.317 -0.0757 -0.5517 -0.1704
 6129TIP3    H242583   0.513   1.218  10.320 -0.0089 -1.4381  0.5790
 6130TIP3   OH242584   2.513   3.580  10.531 -0.3539 -1.1288  0.1071
 6130TIP3    H142585   2.446   3.643  10.558  0.6018  0.0010 -0.0670
 6130TIP3    H242586   2.493   3.561  10.439 -0.9412 -1.4694  0.3043
 6131TIP3   OH242587   6.725   6.467  10.783 -0.0438 -0.0135  0.4404
 6131TIP3    H142588   6.795   6.425  10.732 -0.7682 -1.0338  0.2462
 6131TIP3    H242589   6.687   6.396  10.835 -1.4456  0.3405 -0.0391
 6132TIP3   OH242590   6.238   3.437  10.591 -0.2216  0.0881 -0.0871
 6132TIP3    H142591   6.215   3.446  10.684  0.3647  0.4497  0.0303
 6132TIP3    H242592   6.184   3.365  10.560  1.9496 -2.3631  1.3606
 6133TIP3   OH242593   4.436   1.713  11.881 -0.1385  0.0817 -0.1068
 6133TIP3    H142594   4.374   1.700  11.953 -0.1938  2.4141  0.3493
 6133TIP3    H242595   4.383   1.712  11.802 -0.3513 -0.5639  0.0376
 6134TIP3   OH242596   0.729   4.301   9.451  1.1819  0.7719 -0.3012
 6134TIP3    H142597   0.659   4.245   9.485 -0.2539  2.3518 -0.5233
 6134TIP3    H242598   0.805   4.244   9.447  0.1612 -0.7622  0.8767
 6135TIP3   OH242599   1.415   2.792  11.280  0.1985 -0.4525  0.4086
 6135TIP3    H142600   1.323   2.808  11.261  0.6461  3.0595  0.6664
 6135TIP3    H242601   1.462   2.866  11.241  2.4230  0.2069  3.8780
 6136TIP3   OH242602   5.848   1.182  11.023 -0.3193 -0.0561 -0.1906
 6136TIP3    H142603   5.902   1.252  11.059  0.4903 -0.7743  0.0224
 6136TIP3    H242604   5.767   1.225  10.997  0.5086  1.1262 -0.9028
 6137TIP3   OH242605   2.098   4.850  10.667 -0.0434  0.1539  0.0824
 6137TIP3    H142606   2.145   4.776  10.706 -0.1619  0.3012  0.5191
 6137TIP3    H242607   2.072   4.820  10.580 -2.1634 -1.2150  1.0843
 6138TIP3   OH242608   6.303   0.853  10.180  0.5373 -0.0173 -0.6607
 6138TIP3    H142609   6.372   0.787  10.183  0.1989 -0.4094  3.1314
 6138TIP3    H242610   6.222   0.805  10.201  0.2101  1.3872  1.6434
 6139TIP3   OH242611   0.389   5.280   9.958 -0.3099 -0.0684  0.1923
 6139TIP3    H142612   0.456   5.311  10.020  1.3567  0.9594 -1.9702
 6139TIP3    H242613   0.310   5.329   9.982 -0.1452 -0.7531  2.3437
 6140TIP3   OH242614   0.092   0.333  10.049 -0.3793 -0.1355 -0.3152
 6140TIP3    H142615   0.018   0.393  10.038 -1.3730 -1.6874 -3.1104
 6140TIP3    H242616   0.057   0.262  10.103 -0.3302  0.0458 -0.0440
 6141TIP3   OH242617   3.138   5.770  12.298 -0.0000 -0.3606  0.2113
 6141TIP3    H142618   3.146   5.786  12.204 -0.7395  1.9549  0.4780
 6141TIP3    H242619   3.062   5.823  12.325  1.3397  0.5738  2.4301
 6142TIP3   OH242620   5.110   6.338  10.745  0.7295  0.9212 -0.6498
 6142TIP3    H142621   5.040   6.383  10.791  0.3411 -0.7006  0.4110
 6142TIP3    H242622   5.120   6.387  10.663 -1.1287  1.6047 -0.5056
 6143TIP3   OH242623   2.690   4.545  11.817 -0.1838 -0.8655  0.3352
 6143TIP3    H142624   2.756   4.502  11.763  0.0719 -1.0987  0.8267
 6143TIP3    H242625   2.629   4.585  11.754  0.1796 -1.0216 -0.1198
 6144TIP3   OH242626   1.125   2.814  10.348 -0.4449  0.0535  0.0557
 6144TIP3    H142627   1.106   2.775  10.262 -1.5210  1.0212 -0.1637
 6144TIP3    H242628   1.095   2.749  10.411  1.2147 -1.0926 -0.2511
 6145TIP3   OH242629   5.907   5.952  11.490 -0.6538  0.2743  0.1817
 6145TIP3    H142630   5.853   5.970  11.566 -1.1343 -1.9202  0.4143
 6145TIP3    H242631   5.976   5.894  11.522 -1.4329 -1.5048 -1.1897
 6146TIP3   OH242632   3.711   0.101  11.202  0.3115  0.0147  0.1321
 6146TIP3    H142633   3.634   0.157  11.215 -1.0620 -2.0765  1.6463
 6146TIP3    H242634   3.785   0.161  11.203 -1.2660  2.1567 -1.6135
 6147TIP3   OH242635   6.252   4.817  10.682  0.4867 -0.6003  0.0518
 6147TIP3    H142636   6.281   4.882  10.746  0.1389  0.6409 -1.0070
 6147TIP3    H242637   6.156   4.819  10.687  0.4176  0.3431 -1.2847
 6148TIP3   OH242638   5.006   0.574  10.854 -0.0484  0.0031 -0.0755
 6148TIP3    H142639   4.942   0.521  10.808  0.0948  0.2145 -0.5222
 6148TIP3    H242640   5.087   0.523  10.850 -0.4938 -0.9572  1.7513
 6149TIP3   OH242641   2.436   1.627   9.897 -0.3048 -0.6247  0.1451
 6149TIP3    H142642   2.491   1.688   9.946 -0.9064  1.2812 -1.4497
 6149TIP3    H242643   2.455   1.541   9.936  1.5429  0.3770  1.5946
 6150TIP3   OH242644   4.327   3.645  12.647 -0.1942  0.2248  0.1998
 6150TIP3    H142645   4.308   3.586  12.574  1.5251  1.4287 -1.3124
 6150TIP3    H242646   4.357   3.587  12.716  0.4649 -0.7863 -0.8912
 6151TIP3   OH242647   4.541   5.456  12.613 -0.2535  0.3964  0.4376
 6151TIP3    H142648   4.593   5.531  12.586  0.9009 -0.2729  0.7369
 6151TIP3    H242649   4.604   5.395  12.651 -0.6320 -2.0612 -2.5103
 6152TIP3   OH242650   4.140   3.304  11.485 -0.4072 -0.2056  0.4176
 6152TIP3    H142651   4.079   3.229  11.484  0.1046 -0.6227 -0.3789
 6152TIP3    H242652   4.219   3.271  11.444 -1.3155  1.7247 -3.2938
 6153TIP3   OH242653   5.293   4.170  10.535  0.0127 -0.4264 -0.3287
 6153TIP3    H142654   5.215   4.137  10.491  1.2210  0.0099 -2.9690
 6153TIP3    H242655   5.258   4.224  10.607 -2.1979  0.9358 -2.2604
 6154TIP3   OH242656   3.779   0.360  11.721 -0.6648 -0.2616  0.4515
 6154TIP3    H142657   3.689   0.375  11.750 -0.4600  1.1143  0.4431
 6154TIP3    H242658   3.832   0.381  11.798 -0.2451  1.1152 -0.1930
 6155TIP3   OH242659   2.639   1.793  10.014  0.2159  0.0760  0.4134
 6155TIP3    H142660   2.608   1.878   9.985 -1.6836 -0.7339 -0.0529
 6155TIP3    H242661   2.629   1.795  10.109 -0.1487  0.2450  0.3714
 6156TIP3   OH242662   2.497   1.988  10.934  0.7051  0.4122 -0.2920
 6156TIP3    H142663   2.440   1.920  10.899  2.2936 -1.0165 -0.2082
 6156TIP3    H242664   2.470   1.997  11.026  0.7625 -0.4495 -0.1790
 6157TIP3   OH242665   2.799   2.968  12.784  0.1955  0.4013  0.2361
 6157TIP3    H142666   2.803   2.905  12.712  0.1038 -0.2173  0.7653
 6157TIP3    H242667   2.733   3.031  12.756  1.0798  0.9111 -0.7958
 6158TIP3   OH242668   4.107   3.346  12.095 -0.5391 -0.1859  0.0837
 6158TIP3    H142669   4.013   3.336  12.111 -0.3690  0.1962  1.4365
 6158TIP3    H242670   4.149   3.314  12.174  0.3973  1.4565  0.3083
 6159TIP3   OH242671   0.788   2.285  12.435  0.3431  0.4752  0.0599
 6159TIP3    H142672   0.834   2.341  12.498  0.6515  0.3552 -0.0555
 6159TIP3    H242673   0.850   2.215  12.416  0.6833  1.0665 -1.1675
 6160TIP3   OH242674   3.356   5.997   9.354  0.0704  0.0551  0.4026
 6160TIP3    H142675   3.339   6.088   9.332  1.7011 -0.2028 -2.5905
 6160TIP3    H242676   3.447   5.997   9.384  0.1601 -0.6018  0.1420
 6161TIP3   OH242677   4.160   2.093   9.415  0.0746  0.2845  1.0619
 6161TIP3    H142678   4.206   2.159   9.363  0.9178 -1.3903 -0.4045
 6161TIP3    H242679   4.218   2.077   9.489  1.1539 -0.6711  0.0453
 6162TIP3   OH242680   5.546   2.141  11.873 -0.0570  0.3365  0.3062
 6162TIP3    H142681   5.477   2.099  11.924  1.2896 -2.1486  0.2415
 6162TIP3    H242682   5.596   2.192  11.937 -1.5527  1.6985  0.4416
 6163TIP3   OH242683   6.403   5.722   9.519 -0.7810 -0.0134 -0.2571
 6163TIP3    H142684   6.404   5.771   9.437 -1.0057 -2.0743 -1.5891
 6163TIP3    H242685   6.491   5.733   9.555 -1.6181  3.6215  1.0529
 6164TIP3   OH242686   3.535   3.327  12.321  0.1583  0.3799 -0.0990
 6164TIP3    H142687   3.528   3.417  12.289 -2.8945  0.6939  1.0648
 6164TIP3    H242688   3.585   3.333  12.402 -0.7198  1.1866  0.3982
 6165TIP3   OH242689   4.245   4.898   9.635  0.0321 -0.5868 -0.6643
 6165TIP3    H142690   4.267   4.982   9.595  0.0435 -1.3066 -2.2501
 6165TIP3    H242691   4.305   4.836   9.594  0.2241 -1.3382  0.7080
 6166TIP3   OH242692   2.074   4.320  11.027 -0.4097 -0.3326  0.5378
 6166TIP3    H142693   2.046   4.387  10.965 -3.3878 -0.2716  1.7651
 6166TIP3    H242694   2.041   4.351  11.111  0.5316 -2.0533  1.5911
 6167TIP3   OH242695   3.428   3.572  11.116 -0.2712  0.4200 -0.3172
 6167TIP3    H142696   3.429   3.493  11.063  2.4022 -0.6133  1.0764
 6167TIP3    H242697   3.361   3.556  11.182 -0.9805  0.1075 -1.0954
 6168TIP3   OH242698   2.619   0.541  11.523  0.7905 -0.0299  0.2221
 6168TIP3    H142699   2.703   0.586  11.533  1.3419 -0.8414 -0.5912
 6168TIP3    H242700   2.553   0.610  11.529  1.6357  0.9691 -1.4851
 6169TIP3   OH242701   0.822   0.784  20.276 -0.2291 -0.2676 -0.0499
 6169TIP3    H142702   0.739   0.785  20.324 -0.2660  0.4270 -0.1236
 6169TIP3    H242703   0.807   0.726  20.202 -0.2323 -1.2034  0.6637
 6170TIP3   OH242704   0.900   2.428  11.883 -0.2904 -0.7003 -0.4815
 6170TIP3    H142705   0.969   2.465  11.938  0.8914 -1.8895 -1.1100
 6170TIP3    H242706   0.863   2.504  11.837 -0.9268  0.2336  1.4850
 6171TIP3   OH242707   1.290   3.110  10.836 -1.0118 -0.4747 -0.5863
 6171TIP3    H142708   1.283   3.063  10.753 -1.0103  0.1478 -0.9513
 6171TIP3    H242709   1.254   3.050  10.901  1.6606 -2.1850 -0.5364
 6172TIP3   OH242710   0.536   0.097   9.715 -0.1140  0.1649 -0.0362
 6172TIP3    H142711   0.567   0.181   9.681  1.5929  0.0020  0.9856
 6172TIP3    H242712   0.441   0.109   9.725 -0.1922  1.3047 -1.6705
 6173TIP3   OH242713   2.679   5.181  10.895 -0.3361  0.2699 -0.3563
 6173TIP3    H142714   2.743   5.117  10.927 -0.8249  1.4635  3.5338
 6173TIP3    H242715   2.595   5.136  10.903 -0.3094 -0.7251 -3.9396
 6174TIP3   OH242716   4.122   2.568  11.728 -1.3444  0.0187  0.3832
 6174TIP3    H142717   4.083   2.567  11.816  1.3572  2.5740  1.7887
 6174TIP3    H242718   4.057   2.612  11.673 -2.8857 -1.1936  1.1772
 6175TIP3   OH242719   1.279   3.298  12.400 -0.8434 -0.0177  0.0832
 6175TIP3    H142720   1.273   3.234  12.328 -1.1948 -0.8990  0.8760
 6175TIP3    H242721   1.190   3.332  12.408 -0.4051  1.5481 -1.1694
 6176TIP3   OH242722   5.927   0.585  11.449  0.7528  0.7345 -0.1681
 6176TIP3    H142723   5.966   0.653  11.394  0.9910  0.7707  0.0427
 6176TIP3    H242724   5.953   0.610  11.538  1.8687 -0.2958 -0.1795
 6177TIP3   OH242725   3.757   1.226  11.092  0.3579 -0.4178 -0.3072
 6177TIP3    H142726   3.791   1.152  11.141  0.1534  0.5417  1.3453
 6177TIP3    H242727   3.665   1.204  11.076  0.5621 -0.9709 -0.7331
 6178TIP3   OH242728   3.126   2.678  12.534  0.5713 -0.0377  0.1755
 6178TIP3    H142729   3.163   2.590  12.531  0.5822 -0.0127 -0.7397
 6178TIP3    H242730   3.162   2.716  12.614  2.4522 -0.0569 -0.5915
 6179TIP3   OH242731   0.297   0.721  10.244 -0.2576  0.9295  0.1615
 6179TIP3    H142732   0.266   0.786  10.308  0.2355 -0.0834  1.4804
 6179TIP3    H242733   0.247   0.740  10.165 -3.7322 -0.0673  1.8937
 6180TIP3   OH242734   0.315   4.995   9.311 -0.1219  0.1605  0.0577
 6180TIP3    H142735   0.322   5.067   9.374 -0.4167  1.4857 -1.3738
 6180TIP3    H242736   0.404   4.962   9.303  0.0603  0.5184  0.5517
 6181TIP3   OH242737   2.073   4.093   9.997 -0.2024 -0.0803 -0.2529
 6181TIP3    H142738   2.017   4.122   9.925 -0.9315 -0.4564  0.1476
 6181TIP3    H242739   2.149   4.053   9.953  0.2591  1.3324 -0.7980
 6182TIP3   OH242740   1.217   0.141   9.222 -0.2297  0.7874  0.2533
 6182TIP3    H142741   1.284   0.074   9.217 -1.8031 -0.8699  0.4765
 6182TIP3    H242742   1.265   0.224   9.209  2.0254 -0.1884  1.7870
 6183TIP3   OH242743   2.798   0.551  10.359  0.3557  0.1766 -0.5661
 6183TIP3    H142744   2.870   0.594  10.404  0.3166 -1.0755  0.7711
 6183TIP3    H242745   2.727   0.615  10.360  0.4877  0.3298  0.8445
 6184TIP3   OH242746   2.823   4.776  11.630  0.3515  0.0475 -0.5859
 6184TIP3    H142747   2.782   4.720  11.697 -0.3133  0.1752 -0.8805
 6184TIP3    H242748   2.766   4.766  11.554 -0.5384  2.1583 -0.2499
 6185TIP3   OH242749   4.253   3.872  11.834 -0.2999 -0.1700  0.0590
 6185TIP3    H142750   4.174   3.844  11.788 -0.5274 -0.9886  0.9205
 6185TIP3    H242751   4.325   3.833  11.784 -0.5309 -0.8171  0.2190
 6186TIP3   OH242752   0.762   0.549  12.246  0.2133 -0.3622 -0.3839
 6186TIP3    H142753   0.853   0.545  12.215  0.1032  0.7543 -0.9297
 6186TIP3    H242754   0.736   0.458  12.258  2.2422 -0.7059  2.3244
 6187TIP3   OH242755   1.357   3.245  11.244  0.3694 -0.4982  0.3371
 6187TIP3    H142756   1.324   3.305  11.311  0.6564  0.3245 -0.2344
 6187TIP3    H242757   1.329   3.285  11.161  1.7438 -0.4144 -0.1106
 6188TIP3   OH242758   4.706   3.125   9.989 -0.0267 -0.4137  0.2928
 6188TIP3    H142759   4.737   3.080   9.911 -0.9843  2.4410 -1.9061
 6188TIP3    H242760   4.746   3.212   9.985  0.6344 -0.4236  3.5545
 6189TIP3   OH242761   5.792   3.017  10.601 -0.5283  0.5669  0.2177
 6189TIP3    H142762   5.793   2.933  10.646 -2.2174  0.2504 -0.2432
 6189TIP3    H242763   5.804   3.082  10.670  0.1123 -0.0284  0.6704
 6190TIP3   OH242764   3.543   4.992  12.789  0.2600  0.3751 -0.0161
 6190TIP3    H142765   3.498   4.909  12.802 -0.3324  0.5899 -0.6556
 6190TIP3    H242766   3.511   5.025  12.705 -0.2001  1.6842  0.6362
 6191TIP3   OH242767   2.104   5.832  10.046 -0.5017 -0.2433 -0.0136
 6191TIP3    H142768   2.189   5.874  10.053 -0.0535 -1.3402  1.7974
 6191TIP3    H242769   2.111   5.753  10.099 -2.1386 -1.2416 -1.1585
 6192TIP3   OH242770   6.746   5.475  12.087  0.5817 -1.0103 -0.0333
 6192TIP3    H142771   6.803   5.534  12.037  0.8888 -2.1009 -1.0300
 6192TIP3    H242772   6.772   5.388  12.058  0.9378 -1.7090  2.2645
 6193TIP3   OH242773   3.907   2.356  11.808 -0.0160  0.0609 -0.0992
 6193TIP3    H142774   3.835   2.317  11.758 -1.5707  0.6795  1.5657
 6193TIP3    H242775   3.915   2.302  11.886  0.4979  0.7349  0.3283
 6194TIP3   OH242776   6.203   6.704  10.160 -0.2760  0.5054  0.4963
 6194TIP3    H142777   6.174   6.784  10.117  0.2760  0.9135  0.8656
 6194TIP3    H242778   6.196   6.723  10.254 -1.4455 -0.3615  0.6019
 6195TIP3   OH242779   0.228   0.942  11.651 -0.2491 -0.1530 -0.8021
 6195TIP3    H142780   0.140   0.980  11.643  0.4813  2.3711  1.5407
 6195TIP3    H242781   0.215   0.865  11.705 -1.1373 -0.3738 -1.3008
 6196TIP3   OH242782   1.478   5.611   9.698  0.1872  0.0478 -0.2138
 6196TIP3    H142783   1.523   5.678   9.750  2.3109  0.0940 -1.9859
 6196TIP3    H242784   1.390   5.645   9.686  0.3376  1.1166  1.3462
 6197TIP3   OH242785   4.024   5.496  10.038  0.2914 -0.4281 -0.0357
 6197TIP3    H142786   4.006   5.583  10.002  0.9909 -0.0172  0.5802
 6197TIP3    H242787   4.082   5.512  10.112  0.6467 -1.4438 -0.0758
 6198TIP3   OH242788   5.365   3.700  10.615 -0.3779  0.3468 -0.7483
 6198TIP3    H142789   5.389   3.779  10.663 -0.2703  0.0112 -0.2434
 6198TIP3    H242790   5.334   3.732  10.530  1.6223  0.8062 -1.3470
 6199TIP3   OH242791   2.195   2.342  12.199  0.0333  0.1864  0.1324
 6199TIP3    H142792   2.243   2.288  12.262  2.4289  0.3148 -1.4408
 6199TIP3    H242793   2.146   2.279  12.146  1.2487 -0.3231 -0.4296
 6200TIP3   OH242794   6.520   1.992  12.577  0.2247 -0.1665  0.1323
 6200TIP3    H142795   6.450   2.024  12.634 -0.3615 -1.6349  0.2891
 6200TIP3    H242796   6.477   1.930  12.519  1.2900 -0.6797 -0.1403
 6201TIP3   OH242797   1.130   1.188  11.194  0.0542 -0.2102 -0.8863
 6201TIP3    H142798   1.219   1.154  11.185  0.3069 -0.6151  2.0106
 6201TIP3    H242799   1.074   1.111  11.195  0.3530 -0.5748  2.8939
 6202TIP3   OH242800   3.469   4.040  10.933  0.4115  0.0512 -0.3116
 6202TIP3    H142801   3.398   4.098  10.909  0.4159 -0.0011 -0.4506
 6202TIP3    H242802   3.428   3.954  10.941 -0.1100  0.4670  2.3822
 6203TIP3   OH242803   2.188   5.751  12.102  0.5489  0.2030 -0.3679
 6203TIP3    H142804   2.151   5.663  12.107  0.4187  0.3104  0.7054
 6203TIP3    H242805   2.121   5.808  12.139  0.0025  0.9807 -2.4270
 6204TIP3   OH242806   3.161   6.146  10.191 -0.2552 -1.0146 -0.3140
 6204TIP3    H142807   3.220   6.194  10.131  0.2029 -0.3995  0.6122
 6204TIP3    H242808   3.183   6.054  10.176  1.0818 -0.7945  0.1186
 6205TIP3   OH242809   3.695   0.958  12.106  0.1331 -0.0285  0.7117
 6205TIP3    H142810   3.724   1.022  12.171  0.4147 -1.0633  1.6362
 6205TIP3    H242811   3.669   0.882  12.158 -2.6016  0.1953 -0.1644
 6206TIP3   OH242812   4.363   0.500  11.818 -0.5697 -0.6750 -0.0291
 6206TIP3    H142813   4.270   0.523  11.814 -0.9802 -2.1757  0.2741
 6206TIP3    H242814   4.372   0.454  11.901  1.0771  1.9340  1.3773
 6207TIP3   OH242815   0.908   2.085  10.144 -0.2277 -0.1133  0.0070
 6207TIP3    H142816   0.915   2.178  10.122 -0.2509 -0.4634 -1.5959
 6207TIP3    H242817   0.854   2.048  10.075 -1.1491 -1.1350  1.2439
 6208TIP3   OH242818   2.656   5.284   9.860  0.6796 -0.1653  0.0643
 6208TIP3    H142819   2.738   5.270   9.908 -0.3143 -0.0729  1.8741
 6208TIP3    H242820   2.623   5.196   9.843  1.1768 -0.2046 -0.7428
 6209TIP3   OH242821   4.761   5.563   9.951  0.2019 -0.4188 -0.6540
 6209TIP3    H142822   4.777   5.579  10.044 -0.7470 -0.9215 -0.3849
 6209TIP3    H242823   4.809   5.483   9.931  1.3563  0.3142 -0.9016
 6210TIP3   OH242824   5.346   4.196   9.875 -0.3232 -0.5394  0.0242
 6210TIP3    H142825   5.372   4.282   9.843 -0.6507 -0.5650 -0.3161
 6210TIP3    H242826   5.399   4.134   9.825  0.6365 -0.5054  0.9684
 6211TIP3   OH242827   6.032   2.984   9.194  0.2095 -0.5166 -0.7661
 6211TIP3    H142828   5.964   3.037   9.235  0.5267 -2.4256  2.5973
 6211TIP3    H242829   6.106   3.043   9.185  0.3217 -0.0580  2.1764
 6212TIP3   OH242830   4.697   5.994  10.474  0.1359  0.4125  0.0913
 6212TIP3    H142831   4.745   5.976  10.555  0.2351 -1.2094 -0.2941
 6212TIP3    H242832   4.745   6.066  10.434  0.9566  0.2641  0.7698
 6213TIP3   OH242833   3.476   2.074  11.418  0.4241  0.1699 -0.1223
 6213TIP3    H142834   3.454   2.071  11.512  0.2780  0.7327 -0.1384
 6213TIP3    H242835   3.410   2.132  11.380  0.8375  0.4074 -0.4798
 6214TIP3   OH242836   0.360   0.144  11.781  0.3922  0.2513 -0.6085
 6214TIP3    H142837   0.311   0.078  11.830  0.9532  1.0112  1.0356
 6214TIP3    H242838   0.424   0.093  11.730  0.2228 -0.5320 -0.0676
 6215TIP3   OH242839   4.840   5.452  10.940  0.3548 -0.0156 -0.0663
 6215TIP3    H142840   4.885   5.387  10.885 -0.1610  0.9296 -1.6873
 6215TIP3    H242841   4.748   5.439  10.921  0.2494  1.2312 -0.4846
 6216TIP3   OH242842   1.558   4.000  10.905  0.2521  0.1135  0.4865
 6216TIP3    H142843   1.593   3.910  10.899  0.0674 -0.0482  1.6485
 6216TIP3    H242844   1.635   4.056  10.893  0.7644 -0.2357  1.8838
 6217TIP3   OH242845   3.903   2.464  11.170  0.0763 -0.1057 -0.3784
 6217TIP3    H142846   3.834   2.500  11.225  0.6302  0.2393  0.0965
 6217TIP3    H242847   3.937   2.390  11.220  1.1449  0.7096  0.1500
 6218TIP3   OH242848   1.292   5.073  10.416 -0.7268 -0.5957  0.4164
 6218TIP3    H142849   1.271   5.165  10.433  1.2896  0.1123 -0.6429
 6218TIP3    H242850   1.219   5.041  10.363 -0.5840  0.9287 -0.7324
 6219TIP3   OH242851   4.014   4.178  11.380  0.0361 -0.1289  0.1074
 6219TIP3    H142852   4.043   4.109  11.439 -0.2898 -0.0683  0.3405
 6219TIP3    H242853   3.981   4.132  11.303 -0.4092 -0.2459  0.3655
 6220TIP3   OH242854   5.856   3.739  10.154  0.0076  0.2840  0.2380
 6220TIP3    H142855   5.773   3.722  10.199 -0.0155 -0.8377 -0.1860
 6220TIP3    H242856   5.922   3.739  10.224 -0.2986  0.7381  0.5255
 6221TIP3   OH242857   2.419   6.516   9.266  0.0887 -0.0048 -0.0197
 6221TIP3    H142858   2.498   6.482   9.224  0.3301 -0.7743  1.0067
 6221TIP3    H242859   2.447   6.598   9.307  0.3346 -0.2324  0.2693
 6222TIP3   OH242860   5.922   5.543  11.823  0.5868  0.2369 -0.5445
 6222TIP3    H142861   5.913   5.633  11.855 -1.1900  0.1683 -0.7843
 6222TIP3    H242862   5.867   5.539  11.746  0.8778 -0.9980 -0.7084
 6223TIP3   OH242863   1.035   1.582  12.119 -0.0597  0.1314 -0.4275
 6223TIP3    H142864   1.051   1.676  12.108  0.4204  0.0031 -0.8902
 6223TIP3    H242865   1.031   1.570  12.214  0.7927  0.4852 -0.3323
 6224TIP3   OH242866   2.662   5.163   9.579  0.2512  0.2416  0.4483
 6224TIP3    H142867   2.583   5.198   9.620 -0.0481  0.1269 -0.0320
 6224TIP3    H242868   2.679   5.220   9.504 -0.7581 -1.1359 -0.8944
 6225TIP3   OH242869   4.113   5.209  12.111 -0.4275 -0.2594 -0.1587
 6225TIP3    H142870   4.041   5.221  12.049  0.0806  1.5562 -0.4325
 6225TIP3    H242871   4.092   5.266  12.185  1.0407  0.8438 -0.5499
 6226TIP3   OH242872   4.375   1.281   9.560  0.2917  0.1886  0.3708
 6226TIP3    H142873   4.336   1.199   9.533  1.9348 -0.2922 -0.7166
 6226TIP3    H242874   4.459   1.285   9.513  0.7968  1.9201  1.2976
 6227TIP3   OH242875   4.382   3.680  11.125  0.7590  0.7570 -0.3214
 6227TIP3    H142876   4.375   3.747  11.056  1.4307  0.6441 -0.5018
 6227TIP3    H242877   4.307   3.622  11.109  0.3102  1.3207 -0.3122
 6228TIP3   OH242878   3.487   3.038  10.727  0.1123  0.2988 -0.4782
 6228TIP3    H142879   3.481   3.133  10.715 -0.2868  0.4057  0.4929
 6228TIP3    H242880   3.406   3.015  10.772  0.9993 -0.2318  0.8971
 6229TIP3   OH242881   4.587   5.087  11.025 -0.0597  0.4597 -0.2664
 6229TIP3    H142882   4.535   5.164  11.047  1.6601  1.5314  0.2389
 6229TIP3    H242883   4.595   5.039  11.107 -1.7477 -0.7006 -0.7333
 6230TIP3   OH242884   0.839   3.411  10.085 -0.2297  0.5067 -0.5292
 6230TIP3    H142885   0.821   3.333  10.137 -0.2428  0.7059 -0.2277
 6230TIP3    H242886   0.912   3.454  10.131 -1.6888  1.8789  0.6759
 6231TIP3   OH242887   5.038   2.201  11.513  0.0072  0.3076 -0.1413
 6231TIP3    H142888   5.059   2.261  11.585 -0.4224  0.0881  0.1724
 6231TIP3    H242889   5.100   2.223  11.444 -0.3808  1.3596 -0.1693
 6232TIP3   OH242890   2.567   2.446  11.093 -0.1348 -0.9284  0.2223
 6232TIP3    H142891   2.618   2.522  11.120 -1.7934 -0.0221  0.9896
 6232TIP3    H242892   2.568   2.388  11.169 -3.1227  0.7204  1.7169
 6233TIP3   OH242893   3.026   3.492  10.508  0.2012  0.0026 -0.3000
 6233TIP3    H142894   3.105   3.498  10.455  1.1487 -2.7471  0.6584
 6233TIP3    H242895   3.032   3.567  10.568  1.1828  0.7904 -1.3296
 6234TIP3   OH242896   6.659   0.454  10.967 -0.4296  0.9445 -0.2026
 6234TIP3    H142897   6.731   0.516  10.977 -2.2707  3.3643 -0.9249
 6234TIP3    H242898   6.670   0.419  10.879  1.2433 -0.7118  0.5934
 6235TIP3   OH242899   4.433   0.216   9.998  0.6525  0.1611 -0.1995
 6235TIP3    H142900   4.343   0.210  10.030  1.3863 -1.5539  1.7502
 6235TIP3    H242901   4.483   0.246  10.074  2.3732 -3.4805  0.3056
 6236TIP3   OH242902   3.904   4.722  12.279 -0.1224  0.3288 -0.5606
 6236TIP3    H142903   3.886   4.808  12.240 -1.5955 -0.3474 -1.4453
 6236TIP3    H242904   3.818   4.686  12.298  0.4524 -1.1802 -0.7111
 6237TIP3   OH242905   1.008   3.327  10.489 -0.0572 -0.2891  0.2394
 6237TIP3    H142906   0.993   3.238  10.520  2.3304 -0.7159  0.3588
 6237TIP3    H242907   0.951   3.381  10.543  0.6905 -1.4754  2.3128
 6238TIP3   OH242908   1.256   6.273  10.827 -0.0699  0.0685  0.5463
 6238TIP3    H142909   1.204   6.287  10.747 -0.6649 -1.8442  0.5399
 6238TIP3    H242910   1.231   6.345  10.885 -0.7640  0.6416 -0.4354
 6239TIP3   OH242911   6.499   0.661  10.241 -0.0262 -0.0063 -0.1715
 6239TIP3    H142912   6.538   0.738  10.282 -1.6473  0.1468  1.1964
 6239TIP3    H242913   6.536   0.587  10.288  0.4484  0.0047 -0.5234
 6240TIP3   OH242914   2.288   0.575  10.813 -0.7220 -0.2659 -0.5005
 6240TIP3    H142915   2.357   0.511  10.798  0.3042  0.0367  2.2432
 6240TIP3    H242916   2.294   0.636  10.739  1.8521 -0.3791 -0.4542
 6241TIP3   OH242917   4.067   2.760  12.825 -0.8270 -0.2387  0.2972
 6241TIP3    H142918   3.998   2.825  12.838  0.9178  1.6836  0.3583
 6241TIP3    H242919   4.051   2.725  12.737 -0.9792  1.3422 -0.3324
 6242TIP3   OH242920   5.678   4.318  12.089  0.2634 -0.0889 -0.1038
 6242TIP3    H142921   5.665   4.412  12.082  0.0675 -0.0369  0.8072
 6242TIP3    H242922   5.625   4.281  12.019  0.4206  0.4798 -0.5308
 6243TIP3   OH242923   3.146   3.328  12.773  0.4254  0.7015 -0.2293
 6243TIP3    H142924   3.151   3.257  12.836 -1.7032 -0.1717 -0.9760
 6243TIP3    H242925   3.238   3.353  12.758  1.2503 -1.9167 -0.0083
 6244TIP3   OH242926   3.833   0.549  11.514  0.3854 -0.2561 -0.0723
 6244TIP3    H142927   3.837   0.494  11.591 -0.9198 -0.6014 -0.2199
 6244TIP3    H242928   3.742   0.542  11.484  0.5010  0.9852 -0.8157
 6245TIP3   OH242929   3.533   0.023  12.293 -0.4418  0.1412 -0.1883
 6245TIP3    H142930   3.481   0.053  12.368  1.0448 -0.2567  1.0612
 6245TIP3    H242931   3.528  -0.073  12.298 -1.5377  0.1015 -1.5101
 6246TIP3   OH242932   4.503   4.735  10.677  0.0875  0.4036  0.1090
 6246TIP3    H142933   4.535   4.697  10.758  0.0933  0.5574  0.1805
 6246TIP3    H242934   4.534   4.676  10.608  0.4877  0.5271  0.1807
 6247TIP3   OH242935   2.987   6.234  12.084 -0.0719  0.7104  0.1128
 6247TIP3    H142936   2.924   6.212  12.153  0.3456  1.1826  0.6531
 6247TIP3    H242937   3.066   6.184  12.106  0.0226  0.7675 -0.0946
 6248TIP3   OH242938   3.670   0.585   9.939  0.2378 -0.1158 -0.6047
 6248TIP3    H142939   3.696   0.618   9.853  0.6085 -0.6084 -0.6912
 6248TIP3    H242940   3.752   0.551   9.976  0.3309  1.1847  0.4503
 6249TIP3   OH242941   2.518   5.821   9.294  0.1179 -0.1689  0.1694
 6249TIP3    H142942   2.443   5.880   9.290  1.5103  1.6576 -1.5251
 6249TIP3    H242943   2.594   5.880   9.296  1.5663 -1.9124 -0.7351
 6250TIP3   OH242944   0.042   3.908  10.570  0.5951  0.5948 -0.3351
 6250TIP3    H142945  -0.042   3.913  10.524 -0.0789  0.3726  0.8524
 6250TIP3    H242946   0.058   3.815  10.581  0.6870  0.6486  0.0021
 6251TIP3   OH242947   4.528   2.419  11.019  0.6178  0.5693 -0.8105
 6251TIP3    H142948   4.469   2.380  10.955 -0.1132  0.4555 -0.0978
 6251TIP3    H242949   4.470   2.473  11.074  1.1043  0.1330  0.1585
 6252TIP3   OH242950   0.495   6.670  10.950  0.2183  0.4793 -0.2062
 6252TIP3    H142951   0.427   6.604  10.966  0.5797  0.4401  1.3071
 6252TIP3    H242952   0.487   6.731  11.024  1.7318  0.5619 -0.0822
 6253TIP3   OH242953   0.441   4.141   9.286 -0.1118  0.6463  0.7606
 6253TIP3    H142954   0.391   4.169   9.363 -0.2941  2.0579  0.1666
 6253TIP3    H242955   0.532   4.159   9.309 -0.1708  1.1184  0.6331
 6254TIP3   OH242956   4.565   4.358   9.717 -0.4101 -0.2160  0.2683
 6254TIP3    H142957   4.608   4.314   9.791  0.0611 -1.3950 -0.6662
 6254TIP3    H242958   4.636   4.405   9.674 -0.9459  1.6921  1.3680
 6255TIP3   OH242959   4.474   1.352  12.199  0.0458  0.5131 -0.3022
 6255TIP3    H142960   4.528   1.295  12.144 -0.1623 -0.2061  0.2256
 6255TIP3    H242961   4.460   1.301  12.279  1.2418  1.9623  0.8809
 6256TIP3   OH242962   6.583   2.573  11.786  0.6665 -0.6465 -0.3306
 6256TIP3    H142963   6.602   2.483  11.758  0.5275 -0.8586  0.2501
 6256TIP3    H242964   6.549   2.564  11.875  1.9112  0.0912  0.2503
 6257TIP3   OH242965   5.419   5.369  10.675  0.0468  0.9349  0.3590
 6257TIP3    H142966   5.512   5.382  10.693  0.0027  1.0048  0.5326
 6257TIP3    H242967   5.398   5.435  10.609  0.6107 -0.4290 -1.2482
 6258TIP3   OH242968   1.940   4.975   9.476  0.0865 -0.1325  0.4396
 6258TIP3    H142969   1.926   5.069   9.489  0.8454 -0.0033  0.4002
 6258TIP3    H242970   2.023   4.958   9.520  1.0620 -0.3385 -1.3748
 6259TIP3   OH242971   0.037   2.310  12.279 -0.0458 -0.2170  0.6592
 6259TIP3    H142972   0.040   2.378  12.346 -2.3952  0.0785  0.5679
 6259TIP3    H242973   0.053   2.229  12.326 -2.9619 -0.1673  1.9436
 6260TIP3   OH242974   4.244   0.094  10.780  0.0634 -0.3235  0.7465
 6260TIP3    H142975   4.227   0.078  10.873 -1.2464  0.4129  0.6515
 6260TIP3    H242976   4.180   0.041  10.734  0.6871 -0.6571  0.2570
 6261TIP3   OH242977   4.223   5.850   9.927  0.8733 -0.0228 -0.1753
 6261TIP3    H142978   4.134   5.825   9.951  0.8822 -0.1817 -0.3105
 6261TIP3    H242979   4.263   5.771   9.892  0.9228  0.1564 -0.5334
 6262TIP3   OH242980   2.088   3.566  10.802  0.7225  0.0364 -0.4494
 6262TIP3    H142981   2.098   3.657  10.777  0.0474  0.4105  0.5406
 6262TIP3    H242982   2.000   3.561  10.841  0.6122 -1.1073 -0.7927
 6263TIP3   OH242983   0.861   4.057  12.927 -0.4631 -0.6668 -0.7834
 6263TIP3    H142984   0.900   3.994  12.867  0.2304 -1.8727  0.8571
 6263TIP3    H242985   0.935   4.099  12.970 -0.9412 -0.1828 -0.4080
 6264TIP3   OH242986   4.846   6.087  11.451 -0.6196  0.0413  0.5067
 6264TIP3    H142987   4.758   6.055  11.429 -0.6567 -0.0115  0.7307
 6264TIP3    H242988   4.850   6.174  11.412 -0.3238 -0.4455 -0.5662
 6265TIP3   OH242989   0.145   1.917  11.973 -0.3345  0.2445  0.1137
 6265TIP3    H142990   0.229   1.916  12.020 -0.9076 -1.9251  1.2025
 6265TIP3    H242991   0.170   1.938  11.883  1.2624  0.6637  0.6092
 6266TIP3   OH242992   1.159   2.771  11.226 -0.0060  0.6763 -0.6220
 6266TIP3    H142993   1.123   2.751  11.313  2.0662 -0.7435 -0.0182
 6266TIP3    H242994   1.133   2.697  11.172  3.5038 -1.5151  0.3569
 6267TIP3   OH242995   4.191   5.388  11.348 -0.4675 -0.6737 -0.0680
 6267TIP3    H142996   4.278   5.403  11.313  0.4005  0.5099  2.3940
 6267TIP3    H242997   4.200   5.311  11.404 -0.6635  0.1589  1.1517
 6268TIP3   OH242998   0.666   2.565   9.699 -0.2486  0.1646 -0.0022
 6268TIP3    H142999   0.619   2.483   9.718 -1.9280  1.5683  2.4376
 6268TIP3    H243000   0.677   2.564   9.604 -2.4162 -1.7545 -0.3352
 6269TIP3   OH243001   3.073   4.326  11.061  0.1182  0.2410  0.2550
 6269TIP3    H143002   3.130   4.338  10.985  1.3406  3.7152  1.5227
 6269TIP3    H243003   3.117   4.260  11.114  1.1702  0.3952 -0.3967
 6270TIP3   OH243004   1.383   4.616   9.990 -0.3667  0.4613 -0.0418
 6270TIP3    H143005   1.392   4.676  10.065 -1.5761  1.2043 -0.4687
 6270TIP3    H243006   1.453   4.644   9.930 -1.4770  2.1089 -0.6449
 6271TIP3   OH243007   3.160   5.804  12.023 -0.3028  0.5737 -0.4877
 6271TIP3    H143008   3.123   5.856  11.952  0.3986  1.3898 -0.2577
 6271TIP3    H243009   3.220   5.743  11.980  0.6228  1.5126 -0.5334
 6272TIP3   OH243010   6.369   2.725  11.475  0.3396  0.2200 -0.3581
 6272TIP3    H143011   6.418   2.749  11.554 -1.1489 -3.2999  1.9096
 6272TIP3    H243012   6.277   2.737  11.500 -0.1789  1.6877 -2.6608
 6273TIP3   OH243013   1.696   0.453   9.277 -0.1212  0.0256 -0.4390
 6273TIP3    H143014   1.744   0.371   9.281 -0.0469  0.0596 -0.6201
 6273TIP3    H243015   1.614   0.431   9.233 -0.6379 -0.2051  0.5948
 6274TIP3   OH243016   6.427   5.427  11.815  0.3663 -0.5699 -0.3606
 6274TIP3    H143017   6.399   5.423  11.906 -0.2821 -1.0054 -0.5730
 6274TIP3    H243018   6.356   5.386  11.766  2.1050 -3.4174 -0.7734
 6275TIP3   OH243019   6.077   4.599  12.413 -0.2085  0.1196  0.1583
 6275TIP3    H143020   6.076   4.607  12.318 -0.1413 -0.6743  0.0849
 6275TIP3    H243021   6.156   4.644  12.441 -0.1247  0.1806 -0.1790
 6276TIP3   OH243022   1.630   6.284   9.918  0.2912 -0.1995  0.4630
 6276TIP3    H143023   1.599   6.272  10.008  1.3601  0.0968  0.8891
 6276TIP3    H243024   1.689   6.359   9.923 -0.4505  0.5068 -0.7016
 6277TIP3   OH243025   1.800   4.145  13.211 -0.4564 -0.3805 -0.4976
 6277TIP3    H143026   1.773   4.078  13.274 -1.5309  0.4118 -0.0752
 6277TIP3    H243027   1.756   4.225  13.241  0.4609  0.4245 -1.2246
 6278TIP3   OH243028   3.397   1.627   9.836 -0.7421  0.3715 -0.2248
 6278TIP3    H143029   3.316   1.579   9.855  0.8760 -2.2459  0.4751
 6278TIP3    H243030   3.366   1.711   9.801 -3.7452 -0.6795 -0.4344
 6279TIP3   OH243031   1.825   5.097   9.147  0.4031  0.2915 -0.5088
 6279TIP3    H143032   1.784   5.021   9.188  1.3572 -0.7145 -1.3406
 6279TIP3    H243033   1.774   5.113   9.068 -0.5088  1.2807  0.2471
 6280TIP3   OH243034   4.594   1.521  11.454 -0.9017  0.7829 -0.1137
 6280TIP3    H143035   4.568   1.567  11.375 -2.8010 -0.6327 -0.3870
 6280TIP3    H243036   4.516   1.474  11.482  0.3954 -0.7404  1.2045
 6281TIP3   OH243037   2.844   5.761   9.670  0.6363 -0.7098  0.3874
 6281TIP3    H143038   2.888   5.745   9.586  0.8903  0.4825  0.2769
 6281TIP3    H243039   2.782   5.688   9.678 -0.3593 -0.1372 -1.4956
 6282TIP3   OH243040   3.279   3.081  10.476  0.6240 -0.1475  0.1733
 6282TIP3    H143041   3.204   3.046  10.524  1.1946  0.7531  1.8156
 6282TIP3    H243042   3.243   3.111  10.393 -0.2850 -2.3816 -0.3182
 6283TIP3   OH243043   2.868   4.466  11.611 -0.2672 -0.5670 -1.1275
 6283TIP3    H143044   2.832   4.431  11.530  0.5460 -3.4791 -0.3479
 6283TIP3    H243045   2.963   4.455  11.601 -0.0499  0.5482 -0.4190
 6284TIP3   OH243046   3.398   2.897  10.020  0.1422 -0.2497  0.1689
 6284TIP3    H143047   3.436   2.838  10.085  1.0893  1.6437  1.4145
 6284TIP3    H243048   3.464   2.965  10.007 -1.6126  1.5443  0.1843
 6285TIP3   OH243049   3.879   3.038  10.565 -0.4266  0.4013  0.1336
 6285TIP3    H143050   3.920   3.086  10.493 -1.6567  0.1180 -0.7817
 6285TIP3    H243051   3.875   2.948  10.534 -0.6353  0.2117  0.7037
 6286TIP3   OH243052   4.237   5.655   9.622  0.0975 -0.1742 -0.2437
 6286TIP3    H143053   4.297   5.712   9.575 -0.0156 -1.6014 -2.2207
 6286TIP3    H243054   4.290   5.620   9.694  0.9620  0.3276 -0.6105
 6287TIP3   OH243055   2.059   0.031  12.306 -0.8901 -0.0465 -0.0805
 6287TIP3    H143056   2.133  -0.026  12.282 -1.0014 -0.4365  0.4870
 6287TIP3    H243057   2.096   0.090  12.372 -1.2994 -0.8150  0.8569
 6288TIP3   OH243058   4.067   1.685   9.717  0.1713  0.2765  0.6620
 6288TIP3    H143059   4.007   1.613   9.738 -0.4562  0.5302 -0.1784
 6288TIP3    H243060   4.012   1.750   9.672  0.8031  1.1157  1.0668
 6289TIP3   OH243061   3.882   0.989  10.850 -0.2398  0.2259  0.0023
 6289TIP3    H143062   3.939   0.924  10.889 -1.0692 -0.0079  0.8425
 6289TIP3    H243063   3.819   1.010  10.918  0.4865  2.5223  0.0579
 6290TIP3   OH243064   3.801   1.185  12.237  0.0689  0.3283 -0.3347
 6290TIP3    H143065   3.854   1.247  12.287  0.1060 -0.3213  0.4468
 6290TIP3    H243066   3.745   1.240  12.183  1.3243  1.0425 -0.9721
 6291TIP3   OH243067   2.246   0.089  11.260 -0.3877 -0.0981  1.0745
 6291TIP3    H143068   2.231   0.174  11.302  1.5820  0.0288  1.6247
 6291TIP3    H243069   2.228   0.024  11.328  2.2422  0.0876  2.0583
 6292TIP3   OH243070   5.880   3.874  10.817  0.0588 -0.1845 -0.1403
 6292TIP3    H143071   5.862   3.781  10.830 -2.3596  0.1955 -0.2683
 6292TIP3    H243072   5.877   3.911  10.905 -0.4123 -0.0308 -0.2172
 6293TIP3   OH243073   1.327   2.366  10.841  0.1499  0.1158  0.2053
 6293TIP3    H143074   1.231   2.368  10.835  0.1667  1.1077  0.1354
 6293TIP3    H243075   1.349   2.274  10.827 -0.7036  0.1072 -1.3489
 6294TIP3   OH243076   1.372   4.327  10.403  0.4502  0.2023 -0.2565
 6294TIP3    H143077   1.452   4.318  10.455  1.4234  1.4226 -1.4400
 6294TIP3    H243078   1.386   4.271  10.327 -1.0853 -1.7996  0.8519
 6295TIP3   OH243079   0.752   1.178  10.745 -0.2822 -0.2562  0.1899
 6295TIP3    H143080   0.817   1.237  10.782 -0.7420  0.3260  0.1026
 6295TIP3    H243081   0.795   1.093  10.740 -0.4917 -0.5741  2.8536
 6296TIP3   OH243082   0.431   4.327  10.337 -0.2303  0.3530 -0.2960
 6296TIP3    H143083   0.524   4.338  10.316  0.0549 -0.9710  0.1963
 6296TIP3    H243084   0.397   4.417  10.343  0.7602  0.8326 -1.5340
 6297TIP3   OH243085   5.761   3.589   9.701 -0.4502 -0.0192 -0.2008
 6297TIP3    H143086   5.828   3.592   9.632  0.2563 -0.7282  0.4323
 6297TIP3    H243087   5.710   3.511   9.682 -1.6213  0.9411 -1.1320
 6298TIP3   OH243088   6.196   1.192  11.077  0.1321 -0.0265  0.1480
 6298TIP3    H143089   6.261   1.243  11.028 -0.0110  1.1750  1.1444
 6298TIP3    H243090   6.155   1.256  11.135  1.3379 -1.6346  2.9416
 6299TIP3   OH243091   6.444   1.983  11.677  0.5705 -0.1604 -0.3073
 6299TIP3    H143092   6.519   2.041  11.662  0.7955  0.0158  1.2820
 6299TIP3    H243093   6.477   1.918  11.740 -0.2317 -0.8924 -0.6296
 6300TIP3   OH243094   5.025   1.085  10.903  0.0495  0.1432  0.1025
 6300TIP3    H143095   5.056   0.999  10.876  2.3150  0.9615 -0.1787
 6300TIP3    H243096   5.007   1.076  10.997 -1.3877 -1.0193 -0.2515
 6301TIP3   OH243097   2.850   0.675  11.547 -0.1747  0.3981  0.1234
 6301TIP3    H143098   2.843   0.710  11.458 -0.6557  0.0274  0.0130
 6301TIP3    H243099   2.865   0.753  11.602  3.0370  0.4125 -0.5483
 6302TIP3   OH243100   4.195   3.616  10.190  0.1442  0.7591  0.4521
 6302TIP3    H143101   4.176   3.591  10.281 -3.3439 -0.1185 -0.3569
 6302TIP3    H243102   4.118   3.666  10.163  1.1829  1.1501 -1.9970
 6303TIP3   OH243103   0.600   3.616  11.377  0.5289 -0.6765 -0.4772
 6303TIP3    H143104   0.676   3.662  11.414  0.6186  0.4784 -1.9826
 6303TIP3    H243105   0.636   3.571  11.300 -0.4324  0.6474 -1.7605
 6304TIP3   OH243106   2.399   3.463  12.019  0.3284  0.3045  0.3223
 6304TIP3    H143107   2.374   3.455  12.111  0.2604 -0.6192  0.2311
 6304TIP3    H243108   2.441   3.549  12.013  1.9903 -0.3758  1.5983
 6305TIP3   OH243109   0.546   0.783  10.140  0.5562  0.2809 -0.3204
 6305TIP3    H143110   0.495   0.732  10.203 -0.3640 -0.1937 -1.4190
 6305TIP3    H243111   0.606   0.835  10.194 -0.3032 -0.0046  0.9485
 6306TIP3   OH243112   1.730   3.945  11.696 -0.0588  1.1641 -0.3765
 6306TIP3    H143113   1.680   3.993  11.630 -2.3449 -1.0167 -0.3338
 6306TIP3    H243114   1.675   3.945  11.774  0.5042 -0.3249  0.0567
 6307TIP3   OH243115   2.612   6.709  11.019 -0.2037 -0.3022 -0.4777
 6307TIP3    H143116   2.557   6.784  11.042 -0.7729 -0.4629 -1.2880
 6307TIP3    H243117   2.698   6.747  11.002 -0.2087  0.0255  0.1892
 6308TIP3   OH243118   2.751   6.381  10.858  0.1694 -0.3889 -0.0067
 6308TIP3    H143119   2.828   6.385  10.802 -0.3502  0.3146 -0.7030
 6308TIP3    H243120   2.773   6.318  10.926  1.9894  0.9861  0.7547
 6309TIP3   OH243121   4.196   5.043  11.780 -0.1862  0.1542 -0.2487
 6309TIP3    H143122   4.256   4.971  11.798  0.4557  1.0906  1.7304
 6309TIP3    H243123   4.115   5.001  11.752  0.7451 -1.2282 -0.9943
 6310TIP3   OH243124   6.394   0.199   9.503  0.1171 -0.2265 -0.6733
 6310TIP3    H143125   6.370   0.231   9.590  0.7477  1.3962 -1.0637
 6310TIP3    H243126   6.311   0.169   9.465 -0.3568  0.1086  0.0639
 6311TIP3   OH243127   6.043   1.280  10.474  0.2869 -0.3344  0.4690
 6311TIP3    H143128   6.127   1.244  10.502  1.3703  1.6898  0.0835
 6311TIP3    H243129   5.993   1.290  10.555  1.1241  0.0466  0.9585
 6312TIP3   OH243130   2.309   5.669  11.278 -0.0665 -0.1120  0.6019
 6312TIP3    H143131   2.404   5.665  11.292  0.0478  0.4754  0.0666
 6312TIP3    H243132   2.271   5.633  11.358  0.6142 -0.7169  0.6583
 6313TIP3   OH243133   2.630   5.954  11.747  0.4470 -0.1869 -0.0833
 6313TIP3    H143134   2.634   6.042  11.783 -1.7773 -0.0692 -0.0121
 6313TIP3    H243135   2.642   5.965  11.653  1.1245  0.0722  0.0313
 6314TIP3   OH243136   4.579   3.993  11.418  0.4098  0.2596 -0.3441
 6314TIP3    H143137   4.673   4.000  11.438  0.2191  2.5671 -0.0176
 6314TIP3    H243138   4.569   3.904  11.385  2.7117 -0.0731 -0.3433
 6315TIP3   OH243139   5.736   6.112  12.044  0.0893 -0.6820 -0.1434
 6315TIP3    H143140   5.743   6.037  11.985  0.9128 -0.2642 -0.5888
 6315TIP3    H243141   5.801   6.095  12.112  0.0524 -0.5282 -0.0691
 6316TIP3   OH243142   3.694   2.161   9.764  0.8790 -0.4709  0.0714
 6316TIP3    H143143   3.787   2.145   9.776  0.6906 -1.4544  0.3260
 6316TIP3    H243144   3.659   2.078   9.732  0.0622 -0.1688  0.1496
 6317TIP3   OH243145   3.128   0.365   9.814 -0.0212 -0.2998 -0.1853
 6317TIP3    H143146   3.133   0.280   9.857 -3.4643 -1.6816 -2.0955
 6317TIP3    H243147   3.116   0.427   9.886 -2.1073 -2.0722  1.1354
 6318TIP3   OH243148   3.067   1.367  12.347 -0.0142  0.1738 -0.2944
 6318TIP3    H143149   2.993   1.428  12.351  0.6078  1.1111 -1.9691
 6318TIP3    H243150   3.142   1.420  12.373  0.1456 -0.6840  1.0621
 6319TIP3   OH243151   0.402   6.516  11.789 -0.2587 -0.6317 -0.6799
 6319TIP3    H143152   0.376   6.564  11.867  0.0321  1.1087 -1.6018
 6319TIP3    H243153   0.427   6.429  11.821  2.2574  0.7636  1.5529
 6320TIP3   OH243154   3.719   6.143   9.458 -0.0989  0.2291  0.2642
 6320TIP3    H143155   3.649   6.135   9.523 -0.6692  0.2694 -0.3316
 6320TIP3    H243156   3.785   6.080   9.485 -0.7656 -0.4370  0.3440
 6321TIP3   OH243157   2.900   4.831  12.014  0.0775 -0.4300 -0.1747
 6321TIP3    H143158   2.873   4.762  12.074  0.2979 -0.3057  0.0717
 6321TIP3    H243159   2.947   4.894  12.070 -0.0546 -0.1215 -0.4085
 6322TIP3   OH243160   5.315   6.190  10.513  0.4965 -0.3949 -0.7148
 6322TIP3    H143161   5.297   6.178  10.606  2.0615 -1.5856 -0.5234
 6322TIP3    H243162   5.380   6.259  10.510  0.0184  0.0542 -0.9940
 6323TIP3   OH243163   2.271   5.901   9.721  0.3236 -0.0141  0.3267
 6323TIP3    H143164   2.268   5.994   9.697  1.3657  0.2073  0.9956
 6323TIP3    H243165   2.360   5.887   9.751  0.6425 -1.6178 -1.2039
 6324TIP3   OH243166   3.531   6.591   9.559 -0.4963 -0.1515  0.3354
 6324TIP3    H143167   3.477   6.603   9.481  0.7528  1.8312 -0.2655
 6324TIP3    H243168   3.502   6.506   9.594 -0.4497 -1.5761 -2.7519
 6325TIP3   OH243169   4.531   6.162  10.250  0.1894  0.3354  0.3425
 6325TIP3    H143170   4.618   6.154  10.211 -0.2834 -0.5971 -0.5888
 6325TIP3    H243171   4.498   6.072  10.252 -1.3421  0.8298 -0.7407
 6326TIP3   OH243172   4.127   1.961  11.404  0.2383  0.1441 -0.6443
 6326TIP3    H143173   4.077   1.887  11.437  1.9017  0.3844  2.8667
 6326TIP3    H243174   4.218   1.935  11.412  0.8320  1.9450 -0.9366
 6327TIP3   OH243175   2.852   2.957  10.543  0.8878 -0.1744  0.6120
 6327TIP3    H143176   2.885   3.036  10.586  1.5272 -0.0874 -0.0136
 6327TIP3    H243177   2.781   2.989  10.487  1.0372 -0.0637  0.4843
 6328TIP3   OH243178   6.456   3.481  11.879  0.3144 -0.1258  0.3429
 6328TIP3    H143179   6.426   3.567  11.849  0.8853 -0.2101 -0.4795
 6328TIP3    H243180   6.381   3.445  11.927 -1.1953 -0.6092 -2.2142
 6329TIP3   OH243181   0.808   5.037  10.802 -0.0620 -0.6241 -0.1593
 6329TIP3    H143182   0.751   4.967  10.769  0.2360 -0.1558 -1.7651
 6329TIP3    H243183   0.750   5.090  10.857 -0.4396 -1.7694  0.5852
 6330TIP3   OH243184   1.162   0.681  12.345  0.1075 -0.1641  0.1256
 6330TIP3    H143185   1.251   0.683  12.309 -0.0875 -0.8379 -0.4285
 6330TIP3    H243186   1.174   0.657  12.437  0.3701 -3.5202 -0.6315
 6331TIP3   OH243187   4.153   0.536   9.858 -0.1035  0.0408 -0.1617
 6331TIP3    H143188   4.175   0.483   9.934  0.2988 -1.0880 -1.0252
 6331TIP3    H243189   4.073   0.495   9.823  1.8848 -2.0793 -2.6295
 6332TIP3   OH243190   0.114   5.756  10.814 -0.3681 -0.0067 -0.4383
 6332TIP3    H143191   0.079   5.726  10.898 -0.5366  0.7865 -0.2195
 6332TIP3    H243192   0.158   5.679  10.778 -0.8772 -0.5458  0.0649
 6333TIP3   OH243193   0.354   0.468   9.548 -0.1338 -0.0381 -0.1363
 6333TIP3    H143194   0.424   0.429   9.600  0.2092 -0.8222 -1.1651
 6333TIP3    H243195   0.332   0.549   9.595 -0.7714 -1.3498  1.9697
 6334TIP3   OH243196   0.337   4.959  10.223  0.0384  0.3114  0.2275
 6334TIP3    H143197   0.265   5.009  10.184 -1.7241 -1.7239  0.6933
 6334TIP3    H243198   0.375   4.911  10.150  0.9175  1.3423 -0.0088
 6335TIP3   OH243199   5.180   5.375  10.543  0.2210  0.3855 -0.2499
 6335TIP3    H143200   5.253   5.333  10.588  2.9395  2.6367 -2.1564
 6335TIP3    H243201   5.149   5.442  10.604  1.7049  1.2454 -0.3624
 6336TIP3   OH243202   0.559   0.240  12.001 -0.1502  0.0929 -0.3078
 6336TIP3    H143203   0.507   0.203  12.071  0.5313  0.8061  0.5971
 6336TIP3    H243204   0.512   0.217  11.921  0.6831 -3.5679  0.0771
 6337TIP3   OH243205   5.189   1.324  11.211  0.2654 -0.2440 -0.3583
 6337TIP3    H143206   5.255   1.365  11.157  0.8302 -1.0100 -0.2694
 6337TIP3    H243207   5.152   1.395  11.264  1.3980  0.0982 -0.0103
 6338TIP3   OH243208   2.513   2.530   9.583 -0.2985  0.1352  0.1970
 6338TIP3    H143209   2.498   2.502   9.493 -1.3164  0.1948  0.3348
 6338TIP3    H243210   2.602   2.500   9.603 -1.0729 -2.4572  0.1159
 6339TIP3   OH243211   0.427   3.264  10.431 -0.0640 -0.0400  0.2921
 6339TIP3    H143212   0.365   3.260  10.359  2.0316  0.8322 -1.6946
 6339TIP3    H243213   0.386   3.320  10.496 -1.0634  1.1074 -1.2727
 6340TIP3   OH243214   6.285   2.806  10.797  0.0923  0.4221  0.2913
 6340TIP3    H143215   6.290   2.721  10.840  0.7971  0.9408  1.2916
 6340TIP3    H243216   6.364   2.852  10.826  0.3177  1.0114 -1.1375
 6341TIP3   OH243217   2.158   5.093  11.167  0.2635 -0.3807  0.0627
 6341TIP3    H143218   2.114   5.092  11.252  1.0346  0.6172  0.4889
 6341TIP3    H243219   2.163   5.186  11.144  0.4352 -0.6133 -0.8843
 6342TIP3   OH243220   3.752   6.224  10.408 -0.9904  0.1907 -0.5061
 6342TIP3    H143221   3.698   6.193  10.336 -0.4170 -2.0703 -0.0297
 6342TIP3    H243222   3.712   6.188  10.486  0.2988 -0.2450 -0.0131
 6343TIP3   OH243223   1.743   5.536   9.379  0.1791 -0.4778  0.4959
 6343TIP3    H143224   1.693   5.497   9.450 -0.1215 -1.3048 -0.1531
 6343TIP3    H243225   1.774   5.462   9.327  1.4871  0.0537  0.4775
 6344TIP3   OH243226   3.637   5.401  12.119  0.0729 -0.0201 -0.3372
 6344TIP3    H143227   3.546   5.379  12.097 -0.0249  0.1310 -0.0876
 6344TIP3    H243228   3.653   5.485  12.076  0.3943 -0.4817 -1.1541
 6345TIP3   OH243229   5.791   0.989   9.971 -0.0822  0.2328  0.3020
 6345TIP3    H143230   5.826   1.058  10.027  0.0416 -0.7205  1.4518
 6345TIP3    H243231   5.697   1.003   9.970 -0.2694 -0.5994  2.0292
 6346TIP3   OH243232   2.760   3.235  11.750 -0.4590 -0.0874  0.1320
 6346TIP3    H143233   2.787   3.292  11.678 -0.2178  0.0349  0.3154
 6346TIP3    H243234   2.807   3.154  11.736  1.7479  0.8273  1.6215
 6347TIP3   OH243235   2.732   2.317  11.798  0.0432 -0.0786 -0.3398
 6347TIP3    H143236   2.669   2.245  11.801  0.5888 -0.7290 -2.6762
 6347TIP3    H243237   2.677   2.396  11.798 -0.5707 -0.4520  1.8235
 6348TIP3   OH243238   0.623   3.156  11.225 -0.1406  0.5197  0.1219
 6348TIP3    H143239   0.544   3.148  11.172  0.3528  2.9894 -1.1136
 6348TIP3    H243240   0.602   3.111  11.307 -1.9370 -0.9184 -1.0617
 6349TIP3   OH243241   4.109   4.841  12.551  0.7826  0.3777 -0.0245
 6349TIP3    H143242   4.052   4.916  12.565  2.2725  1.4639  0.3969
 6349TIP3    H243243   4.136   4.848  12.460 -0.0310 -0.3538 -0.3351
 6350TIP3   OH243244   1.876   2.025   9.531  0.2138  0.4475 -0.3499
 6350TIP3    H143245   1.905   1.995   9.444 -1.3075 -0.9287 -0.4429
 6350TIP3    H243246   1.828   2.105   9.514 -0.5505 -0.1108 -0.8736
 6351TIP3   OH243247   3.713   4.901  11.468 -0.2827  0.1960  0.3003
 6351TIP3    H143248   3.800   4.911  11.428 -1.3866  1.7225 -1.9397
 6351TIP3    H243249   3.719   4.950  11.550  0.5891  1.5278 -0.5210
 6352TIP3   OH243250   3.828   3.621   9.508  0.0209  0.1262  0.2354
 6352TIP3    H143251   3.826   3.526   9.515 -0.3283 -0.0751 -1.9096
 6352TIP3    H243252   3.740   3.649   9.535  0.1239 -0.1351  0.8665
 6353TIP3   OH243253   2.074   1.015  11.153 -0.2468  0.3641  0.3439
 6353TIP3    H143254   1.982   1.006  11.177 -0.4483 -0.8281 -0.7794
 6353TIP3    H243255   2.072   1.042  11.061  0.4632 -2.8426 -0.7530
 6354TIP3   OH243256   5.100   4.878  11.282 -0.3471 -0.0070  0.2921
 6354TIP3    H143257   5.116   4.965  11.244  1.3323 -1.0083 -1.4644
 6354TIP3    H243258   5.148   4.879  11.364 -0.1646  0.6643  0.1865
 6355TIP3   OH243259   5.973   1.635  11.007  0.7639 -0.3289 -0.0358
 6355TIP3    H143260   5.996   1.548  10.974  0.8819 -0.7557  1.1052
 6355TIP3    H243261   5.991   1.695  10.935 -1.1961 -1.4606 -1.5656
 6356TIP3   OH243262   0.842   4.228  11.863  0.2817 -0.1058 -0.1576
 6356TIP3    H143263   0.748   4.216  11.877  0.2330  0.7202  0.3007
 6356TIP3    H243264   0.866   4.159  11.802 -0.4746 -0.7872  0.2946
 6357TIP3   OH243265   4.041   4.848  10.139  0.1792 -0.6617 -0.3311
 6357TIP3    H143266   3.963   4.902  10.149 -0.3589 -1.7457  1.7524
 6357TIP3    H243267   4.057   4.847  10.045 -0.2165  2.4629 -0.5495
 6358TIP3   OH243268   5.797   5.680   9.339 -0.1721 -0.4539  1.0961
 6358TIP3    H143269   5.805   5.589   9.366  2.6653 -0.7001 -0.2094
 6358TIP3    H243270   5.864   5.726   9.389  1.6472 -0.0130 -1.5202
 6359TIP3   OH243271   6.389   5.176  12.722  0.6606  0.3559  0.2165
 6359TIP3    H143272   6.468   5.123  12.710  0.9462  0.8926 -0.3140
 6359TIP3    H243273   6.330   5.147  12.652  0.0176 -0.6796  1.1478
 6360TIP3   OH243274   4.952   3.458  11.553 -0.7134  0.2693  0.6570
 6360TIP3    H143275   4.886   3.414  11.499  0.5031  1.5442 -2.0255
 6360TIP3    H243276   4.910   3.539  11.580 -1.4276 -0.4993  1.9831
 6361TIP3   OH243277   6.418   5.839  11.437  0.4373 -0.1789 -0.4777
 6361TIP3    H143278   6.474   5.763  11.448 -1.5226 -1.8751 -1.4121
 6361TIP3    H243279   6.465   5.895  11.375  1.3927 -1.1981 -0.7065
 6362TIP3   OH243280   4.507   4.977  11.959  0.2514 -0.4537 -0.1053
 6362TIP3    H143281   4.489   4.936  11.875  1.8421 -2.0141  0.2517
 6362TIP3    H243282   4.433   5.037  11.973 -0.9512 -1.4633 -1.7669
 6363TIP3   OH243283   1.248   1.709  10.362 -0.1657  0.2440  0.4777
 6363TIP3    H143284   1.295   1.703  10.445 -1.7028  0.5378  1.3846
 6363TIP3    H243285   1.317   1.696  10.296  0.9303 -0.9440  1.7828
 6364TIP3   OH243286   3.780   3.275  11.135  0.4622  0.1616 -0.1104
 6364TIP3    H143287   3.770   3.346  11.071 -0.9736 -2.1613 -2.6942
 6364TIP3    H243288   3.691   3.260  11.167  0.5211 -1.2897 -0.5854
 6365TIP3   OH243289   5.057   4.247   9.813 -0.0093 -0.3426  0.2191
 6365TIP3    H143290   5.092   4.331   9.844 -0.4150 -0.2125  0.3180
 6365TIP3    H243291   5.132   4.187   9.818  0.5743  0.2621 -0.8484
 6366TIP3   OH243292   2.878   1.238   9.663 -0.0625  0.6461 -0.4333
 6366TIP3    H143293   2.809   1.302   9.644 -0.1829  0.7052  0.1842
 6366TIP3    H243294   2.950   1.264   9.606  0.1942  1.8526  0.3932
 6367TIP3   OH243295   6.401   6.719  12.443  0.8180 -0.3165  0.1912
 6367TIP3    H143296   6.466   6.790  12.445  0.5720  0.0025 -1.6412
 6367TIP3    H243297   6.444   6.647  12.489  1.1758  0.9038  1.8718
 6368TIP3   OH243298   0.467   0.251  10.904  0.5309  0.1756  0.0263
 6368TIP3    H143299   0.402   0.253  10.975  1.2410 -0.6128  0.7229
 6368TIP3    H243300   0.427   0.199  10.835  0.5549 -0.6414  0.6111
 6369TIP3   OH243301   1.217   0.080  10.472 -0.0117  0.4675  0.9393
 6369TIP3    H143302   1.191   0.172  10.482 -1.5832  0.0417  0.9975
 6369TIP3    H243303   1.203   0.042  10.559 -0.8495 -0.1758  0.5327
 6370TIP3   OH243304   3.742   3.592  11.319 -0.0192  0.0670 -0.3095
 6370TIP3    H143305   3.675   3.637  11.371 -2.1375 -0.9577 -1.9806
 6370TIP3    H243306   3.774   3.522  11.376  2.2835  2.6072  1.7928
 6371TIP3   OH243307   4.986   0.610  11.567 -0.4995 -0.0968  0.5377
 6371TIP3    H143308   4.970   0.638  11.477  0.4748 -0.4006  0.2626
 6371TIP3    H243309   4.934   0.530  11.577  0.7179 -1.0255 -0.3151
 6372TIP3   OH243310   4.099   2.082  10.646  0.0266  0.9299  0.1243
 6372TIP3    H143311   4.100   2.082  10.551  0.1741  2.4693  0.1088
 6372TIP3    H243312   4.037   2.151  10.670  0.8013  1.2966  1.1405
 6373TIP3   OH243313   2.531   5.029   9.926 -0.2178 -0.2081  0.1007
 6373TIP3    H143314   2.573   5.038  10.012  1.0745  0.8040 -0.5966
 6373TIP3    H243315   2.595   4.980   9.874 -0.5441  0.0876 -0.5794
 6374TIP3   OH243316   1.202   4.118  11.884 -0.5055 -0.1708  0.0120
 6374TIP3    H143317   1.177   4.088  11.797  0.2954  0.0291 -0.2990
 6374TIP3    H243318   1.275   4.179  11.869  1.1438 -1.7898  0.9280
 6375TIP3   OH243319   0.670   0.094  11.715  0.3632  0.2644  0.2098
 6375TIP3    H143320   0.729   0.103  11.790  0.3797 -0.1741  0.2525
 6375TIP3    H243321   0.675   0.002  11.691  0.3172  0.3864 -0.3010
 6376TIP3   OH243322   5.733   4.793   8.954  0.2203 -0.3233 -0.1261
 6376TIP3    H143323   5.781   4.739   9.016 -0.6758 -0.0715  0.8210
 6376TIP3    H243324   5.767   4.881   8.966 -0.7997 -0.0466  0.9268
 6377TIP3   OH243325   5.121   5.518   9.806 -0.1247 -0.0554  0.4176
 6377TIP3    H143326   5.090   5.608   9.821  0.6003  0.1499  0.7305
 6377TIP3    H243327   5.041   5.466   9.799 -0.5412  0.4480  1.2871
 6378TIP3   OH243328   4.906   3.676  12.164  0.4850  0.3272 -0.5115
 6378TIP3    H143329   4.972   3.621  12.121 -0.4674 -0.5530 -0.8985
 6378TIP3    H243330   4.892   3.635  12.249  0.5116  0.5671 -0.3921
 6379TIP3   OH243331   3.178   0.973  18.667  0.3547  0.0728  0.1935
 6379TIP3    H143332   3.164   1.004  18.578  0.8841 -1.2895 -0.3926
 6379TIP3    H243333   3.272   0.980  18.681  0.1662  1.3433  1.0937
 6380TIP3   OH243334   3.458   4.975  11.383 -0.1800 -0.9075 -0.1662
 6380TIP3    H143335   3.548   4.953  11.405  0.0162 -1.4355 -1.4034
 6380TIP3    H243336   3.447   4.943  11.293 -1.2888  0.0532 -0.3939
 6381TIP3   OH243337   5.364   0.211   9.561  0.2115 -0.0332 -0.0015
 6381TIP3    H143338   5.422   0.256   9.622 -1.5530  1.4091  0.6756
 6381TIP3    H243339   5.308   0.279   9.526 -0.2193 -1.1757 -1.6674
 6382TIP3   OH243340   4.154   3.128  10.738  0.8233 -0.4830 -0.5037
 6382TIP3    H143341   4.088   3.064  10.762  0.6907 -0.5823 -1.1055
 6382TIP3    H243342   4.111   3.184  10.673  0.9779  0.1347 -0.0776
 6383TIP3   OH243343   6.408   6.546  11.446  0.5686  0.0040  0.1406
 6383TIP3    H143344   6.367   6.629  11.423 -0.3840 -0.4974  0.0035
 6383TIP3    H243345   6.451   6.563  11.530  0.6167  0.7106 -0.0260
 6384TIP3   OH243346   3.578   0.242  11.396 -0.0130 -0.2310 -0.3265
 6384TIP3    H143347   3.507   0.292  11.437  1.6148  0.2227  2.0912
 6384TIP3    H243348   3.658   0.289  11.418  1.2562 -1.7772 -1.3524
 6385TIP3   OH243349   1.110   6.730  10.699 -0.4735  0.1434  0.2590
 6385TIP3    H143350   1.177   6.703  10.762 -0.3292  0.2841  0.1672
 6385TIP3    H243351   1.075   6.812  10.735  0.3026  0.7554 -0.3416
 6386TIP3   OH243352   3.709   6.187  10.982 -0.3452 -0.0588 -0.4491
 6386TIP3    H143353   3.683   6.096  10.970 -1.3747 -0.0740  1.4990
 6386TIP3    H243354   3.803   6.182  11.001 -0.8689 -1.0944  2.4510
 6387TIP3   OH243355   5.988   0.090   9.653  0.4454 -0.1685  0.0077
 6387TIP3    H143356   5.899   0.063   9.677  0.3339  1.1602  1.2338
 6387TIP3    H243357   6.003   0.170   9.704  2.0615  0.0610 -0.7715
 6388TIP3   OH243358   3.897   1.930   9.455 -0.4198 -0.1508 -0.1078
 6388TIP3    H143359   3.970   1.956   9.398  0.6200  0.4444  1.4390
 6388TIP3    H243360   3.852   1.862   9.406  2.5045 -2.1993 -0.2180
 6389TIP3   OH243361   0.203   4.281   9.200 -0.2189  0.3318 -0.6460
 6389TIP3    H143362   0.221   4.350   9.136  1.4806  1.2605  0.7472
 6389TIP3    H243363   0.283   4.229   9.202 -0.0284  0.6361  1.0638
 6390TIP3   OH243364   6.383   2.208  11.808 -0.0640 -0.4892  0.6775
 6390TIP3    H143365   6.412   2.117  11.801 -0.3281 -0.4309 -2.8551
 6390TIP3    H243366   6.357   2.231  11.719 -1.2455  2.6652  1.7346
 6391TIP3   OH243367   3.022   2.174  11.415 -0.2612  0.5647  0.0850
 6391TIP3    H143368   3.109   2.162  11.377 -0.6763 -0.0052 -0.7175
 6391TIP3    H243369   3.026   2.125  11.498  0.2819  0.8294  0.2198
 6392TIP3   OH243370   4.958   3.857  11.939  0.0195  0.4919  0.1764
 6392TIP3    H143371   5.036   3.810  11.967 -0.2636  1.0354  1.9633
 6392TIP3    H243372   4.885   3.800  11.964 -0.2706  1.3162  1.2542
 6393TIP3   OH243373   4.227   6.182  11.929 -0.3847  0.4832  0.4308
 6393TIP3    H143374   4.218   6.130  12.008  1.6628 -0.8020 -0.0941
 6393TIP3    H243375   4.147   6.164  11.879 -1.6052  1.1535  2.0484
 6394TIP3   OH243376   4.629   0.335  11.842  0.7686  0.1330  0.3084
 6394TIP3    H143377   4.651   0.275  11.914  0.8764 -1.5430 -1.0494
 6394TIP3    H243378   4.533   0.330  11.836  0.3242  3.1007  2.5960
 6395TIP3   OH243379   3.484   4.217  10.671  0.2966 -0.0101 -0.2315
 6395TIP3    H143380   3.541   4.270  10.727 -0.3660 -0.9316  1.4079
 6395TIP3    H243381   3.404   4.207  10.723  0.0650 -1.8201 -0.8913
 6396TIP3   OH243382   2.095   1.106  20.644 -0.1218  0.1222 -0.0860
 6396TIP3    H143383   2.067   1.099  20.735 -1.9178  0.1547 -0.5951
 6396TIP3    H243384   2.152   1.182  20.642 -2.0251  1.6516  0.6039
 6397TIP3   OH243385   5.166   1.819   9.313 -0.6118 -0.4879  0.0710
 6397TIP3    H143386   5.085   1.865   9.336 -0.2461 -0.1938  0.8181
 6397TIP3    H243387   5.214   1.881   9.258  0.1417  0.2911  1.5523
 6398TIP3   OH243388   3.630   1.567   9.578 -0.1705 -0.3607 -0.3397
 6398TIP3    H143389   3.705   1.617   9.610  0.1298 -0.2771 -1.1555
 6398TIP3    H243390   3.667   1.485   9.547 -0.0466  0.5673 -2.8740
 6399TIP3   OH243391   3.604   6.436  11.130  0.5042  0.3214 -0.0140
 6399TIP3    H143392   3.627   6.356  11.083  0.8725 -0.1035  0.8616
 6399TIP3    H243393   3.640   6.423  11.218 -3.2901 -0.5655  1.6401
 6400TIP3   OH243394   5.705   3.928  12.011  0.4801 -0.6088 -0.5335
 6400TIP3    H143395   5.716   3.994  11.943  1.5916  1.1079  1.1983
 6400TIP3    H243396   5.790   3.923  12.055 -0.2677 -1.4221  0.9322
 6401TIP3   OH243397   0.110   3.907  10.837  0.6047  0.0238  0.0504
 6401TIP3    H143398   0.101   3.814  10.855 -0.7625  0.1038 -0.1237
 6401TIP3    H243399   0.050   3.925  10.765 -1.0650  1.4804  1.6995
 6402TIP3   OH243400   5.709   6.521   9.950 -0.0853  0.4332  0.1155
 6402TIP3    H143401   5.636   6.518   9.889 -0.1622 -1.3471  0.2566
 6402TIP3    H243402   5.669   6.514  10.037  0.2062  0.1832  0.2319
 6403TIP3   OH243403   3.233   5.535  12.730 -0.4634  0.7509 -0.3318
 6403TIP3    H143404   3.227   5.547  12.635  1.1274 -1.3220 -0.7727
 6403TIP3    H243405   3.326   5.546  12.749 -0.9368  2.5373  1.2724
 6404TIP3   OH243406   3.595   3.112   9.954 -0.0069  0.1456 -0.0121
 6404TIP3    H143407   3.647   3.118   9.874 -0.6709  1.2434 -0.3888
 6404TIP3    H243408   3.659   3.113  10.025  0.5337  0.4030 -0.5011
 6405TIP3   OH243409   5.930   6.143  10.719 -0.4330 -0.0128  0.2680
 6405TIP3    H143410   5.924   6.082  10.645 -1.7766 -0.2767  0.5553
 6405TIP3    H243411   5.909   6.228  10.680 -0.7591 -0.0913  0.2671
 6406TIP3   OH243412   1.440   0.709  12.310  0.3528  0.0398 -0.2045
 6406TIP3    H143413   1.474   0.791  12.272  0.4961  0.0022 -0.1554
 6406TIP3    H243414   1.490   0.697  12.390 -1.4198  1.2674  1.1566
 6407TIP3   OH243415   3.067   5.522  10.482 -0.1503  0.5210  0.0262
 6407TIP3    H143416   3.056   5.507  10.576 -1.9429 -1.1620 -0.3722
 6407TIP3    H243417   3.153   5.485  10.461  0.5482  1.4976  1.0793
 6408TIP3   OH243418   2.854   1.291  11.156  0.5447  0.1720  0.0668
 6408TIP3    H143419   2.868   1.200  11.131  0.5305  0.5437 -1.3638
 6408TIP3    H243420   2.910   1.342  11.097  0.7928  1.0842  1.0534
 6409TIP3   OH243421   4.206   1.038   9.685 -0.1641  0.1829 -0.0767
 6409TIP3    H143422   4.173   1.101   9.622  0.5391 -0.2900 -0.9451
 6409TIP3    H243423   4.130   1.014   9.738 -0.4566  1.6643  0.2042
 6410TIP3   OH243424   1.118   1.443   9.351  0.0980  0.7497 -0.0561
 6410TIP3    H143425   1.059   1.402   9.414  1.8680  0.5835  1.6126
 6410TIP3    H243426   1.077   1.526   9.330 -1.0847  0.3175  0.4732
 6411TIP3   OH243427   0.915   4.478   9.283 -0.4180  0.2033 -0.2654
 6411TIP3    H143428   0.857   4.528   9.226 -0.7737 -0.4427 -0.4819
 6411TIP3    H243429   0.856   4.431   9.342 -0.2083 -1.3777 -1.2351
 6412TIP3   OH243430   5.538   2.750   9.924  0.0556  0.3582  0.1962
 6412TIP3    H143431   5.470   2.683   9.917  1.1710 -0.7646 -0.1111
 6412TIP3    H243432   5.513   2.816   9.859  0.6138 -1.2856 -1.7799
 6413TIP3   OH243433   6.743   0.754   9.740  0.2973  0.0238  0.1390
 6413TIP3    H143434   6.669   0.696   9.726 -0.0179  0.2507  0.7825
 6413TIP3    H243435   6.726   0.829   9.682  0.4813 -0.3227 -0.3671
 6414TIP3   OH243436   5.201   0.889  11.683 -0.8860  0.0332 -0.3803
 6414TIP3    H143437   5.198   0.797  11.710 -1.4558  0.6742  1.8888
 6414TIP3    H243438   5.228   0.885  11.591  1.9843 -2.2735  0.3876
 6415TIP3   OH243439   5.034   4.441  11.829  0.4635  0.0274 -0.0827
 6415TIP3    H143440   4.982   4.426  11.909 -1.3761 -0.0152 -1.2325
 6415TIP3    H243441   4.981   4.403  11.759  1.5261  1.0386 -1.4717
 6416TIP3   OH243442   5.013   2.151  12.261 -0.1733  0.0678  0.3050
 6416TIP3    H143443   4.921   2.169  12.241 -0.4357  0.2315  1.5716
 6416TIP3    H243444   5.021   2.056  12.254 -0.3773  0.0758 -0.0529
 6417TIP3   OH243445   3.725   2.139   9.284  0.2456  0.1548 -0.1551
 6417TIP3    H143446   3.698   2.226   9.314 -0.1388  0.2348 -0.7126
 6417TIP3    H243447   3.710   2.081   9.358  0.2745  0.5229  0.1394
 6418TIP3   OH243448   2.066   4.913  10.389 -0.0201  0.0959 -0.2998
 6418TIP3    H143449   2.003   4.951  10.327 -1.0575  0.3349  0.8527
 6418TIP3    H243450   2.065   4.820  10.369 -1.1208  0.0275  0.0020
 6419TIP3   OH243451   4.165   2.307  12.481  0.2761 -0.0812 -0.4316
 6419TIP3    H143452   4.102   2.362  12.528  0.6320 -0.3502  0.3863
 6419TIP3    H243453   4.115   2.229  12.457  0.5732 -0.8630  1.3227
 6420TIP3   OH243454   3.475   1.137  10.163  0.4030  0.2097 -0.5628
 6420TIP3    H143455   3.503   1.196  10.092 -0.5199  1.2070 -0.1175
 6420TIP3    H243456   3.557   1.105  10.201  0.9285  1.1584 -0.8604
 6421TIP3   OH243457   3.421   2.898   9.430  0.0223  0.1573  0.5630
 6421TIP3    H143458   3.433   2.936   9.517 -0.2504 -0.7687  1.0142
 6421TIP3    H243459   3.509   2.883   9.397  0.2209  2.9525 -0.4529
 6422TIP3   OH243460   3.019   1.155  10.204 -0.1567 -0.3900 -0.0193
 6422TIP3    H143461   3.061   1.224  10.153 -2.6528  0.3876 -1.2320
 6422TIP3    H243462   3.031   1.076  10.151 -0.9316  0.0085 -0.8327
 6423TIP3   OH243463   2.407   3.456  10.809  0.3706  0.2148 -0.1763
 6423TIP3    H143464   2.348   3.400  10.758  0.1331 -0.1831  0.5258
 6423TIP3    H243465   2.413   3.537  10.758  0.1533 -0.1864 -0.8412
 6424TIP3   OH243466   2.817   4.617  10.296  0.3254 -0.0032 -0.3079
 6424TIP3    H143467   2.900   4.570  10.295 -0.0588 -0.7011 -0.0016
 6424TIP3    H243468   2.755   4.559  10.252 -0.0869  0.3544 -0.2140
 6425TIP3   OH243469   2.159   1.667  11.026  0.1850  0.3664  0.0170
 6425TIP3    H143470   2.140   1.574  11.010 -0.7666  0.6863 -0.8216
 6425TIP3    H243471   2.088   1.696  11.084  0.6830  0.4953  0.5760
 6426TIP3   OH243472   0.169   2.085   9.649 -0.1656 -0.2196 -0.2988
 6426TIP3    H143473   0.155   2.006   9.597 -1.8694  1.2390 -2.2367
 6426TIP3    H243474   0.218   2.144   9.591  1.0009  0.2278  1.0719
 6427TIP3   OH243475   4.438   3.459  10.521  0.8779  0.5869  0.3066
 6427TIP3    H143476   4.484   3.430  10.442 -0.9166  0.8208 -0.8889
 6427TIP3    H243477   4.364   3.398  10.529  0.6303  1.0110  1.3976
 6428TIP3   OH243478   5.158   5.740  10.059 -0.3941 -0.4423  0.0703
 6428TIP3    H143479   5.117   5.804  10.117 -0.6882 -0.5292 -0.0381
 6428TIP3    H243480   5.209   5.792   9.997 -0.1778 -0.3435  0.3311
 6429TIP3   OH243481   2.420   1.715   9.652  0.4862  0.5091  0.1677
 6429TIP3    H143482   2.446   1.676   9.735  0.7797  1.8022  0.6918
 6429TIP3    H243483   2.370   1.646   9.609 -1.0900  0.3315  2.1177
 6430TIP3   OH243484   4.783   5.657  11.762 -0.0307 -0.2242  0.4037
 6430TIP3    H143485   4.691   5.663  11.735 -0.3368  0.3394  1.5077
 6430TIP3    H243486   4.823   5.738  11.730 -0.4026  0.4612  1.6069
 6431TIP3   OH243487   3.725   5.880   9.808  0.1656  0.5034 -0.0653
 6431TIP3    H143488   3.678   5.813   9.858  0.6682 -0.1277 -0.4290
 6431TIP3    H243489   3.686   5.963   9.836 -1.9618 -0.0529 -1.1840
 6432TIP3   OH243490   2.352   3.196  10.314  0.9818 -0.4206  0.0370
 6432TIP3    H143491   2.368   3.248  10.235  1.6502  0.6677  0.8595
 6432TIP3    H243492   2.273   3.233  10.352  1.6851  0.3122  0.8436
 6433TIP3   OH243493   2.964   5.459  12.834 -0.7463  0.6878 -0.2462
 6433TIP3    H143494   3.039   5.511  12.806 -0.0795 -0.0681  0.1078
 6433TIP3    H243495   2.923   5.431  12.752 -1.4193  2.1660 -0.4524
 6434TIP3   OH243496   0.059   0.493  11.681 -0.4882  0.1089  0.3054
 6434TIP3    H143497   0.138   0.446  11.707 -0.0064  1.5315  1.6152
 6434TIP3    H243498   0.052   0.479  11.587  2.4409  1.4803 -0.2366
 6435TIP3   OH243499   3.189   3.282   9.891 -0.1647  0.2990 -0.0850
 6435TIP3    H143500   3.139   3.345   9.839  0.0997  0.3603 -0.2657
 6435TIP3    H243501   3.126   3.248   9.955  0.0470  1.8631  1.0298
 6436TIP3   OH243502   0.688   0.639  10.385 -0.1118 -0.3679 -0.7454
 6436TIP3    H143503   0.766   0.591  10.411  1.2416  1.3285 -1.4686
 6436TIP3    H243504   0.656   0.680  10.465 -1.0726 -2.0909 -0.1933
 6437TIP3   OH243505   6.086   1.305  10.197 -0.1441 -0.0921 -0.1940
 6437TIP3    H143506   6.143   1.228  10.191 -1.9581 -1.6685  1.5447
 6437TIP3    H243507   6.088   1.329  10.290 -3.5551 -1.2924  0.3084
 6438TIP3   OH243508   5.511   2.203  10.109  0.3431  0.1670 -0.2629
 6438TIP3    H143509   5.428   2.212  10.156  0.9638 -0.2511  0.9678
 6438TIP3    H243510   5.504   2.264  10.036 -1.0525  0.1154 -0.1947
 6439TIP3   OH243511   2.885   2.305   9.729 -0.2848 -0.3342 -0.1915
 6439TIP3    H143512   2.799   2.300   9.770 -0.4730  1.5591 -0.2669
 6439TIP3    H243513   2.938   2.356   9.791  0.1629  0.3417 -1.1046
 6440TIP3   OH243514   0.328   4.888  11.742 -0.3095 -0.2465  0.1658
 6440TIP3    H143515   0.415   4.863  11.711 -0.2540 -0.4146  0.4608
 6440TIP3    H243516   0.277   4.807  11.742  0.0012 -0.4766  1.5562
 6441TIP3   OH243517   0.526   0.336  10.607 -0.0578  0.0362  0.3647
 6441TIP3    H143518   0.496   0.334  10.516  1.2209  1.0982 -0.0918
 6441TIP3    H243519   0.498   0.421  10.640  0.2433  0.0077  0.7008
 6442TIP3   OH243520   1.675   6.604  10.109 -0.0973 -0.1943 -0.4432
 6442TIP3    H143521   1.760   6.646  10.097 -1.2631  2.1749 -1.1293
 6442TIP3    H243522   1.635   6.605  10.022 -0.7159 -1.6265 -0.2153
 6443TIP3   OH243523   1.946   5.590  12.412 -0.3035  0.2714 -0.5171
 6443TIP3    H143524   1.951   5.672  12.362 -0.2703  0.8155  0.3557
 6443TIP3    H243525   1.893   5.612  12.489 -0.6218 -0.6350 -0.4630
 6444TIP3   OH243526   3.172   0.243  10.059 -0.9728 -0.0208  0.4133
 6444TIP3    H143527   3.129   0.297  10.124 -1.3036 -0.2414  0.3807
 6444TIP3    H243528   3.193   0.161  10.105  1.0890  0.7456  0.9668
 6445TIP3   OH243529   6.486   4.909  11.266  0.3533  0.4198 -0.3696
 6445TIP3    H143530   6.512   4.960  11.342  1.9585  0.2377 -0.7733
 6445TIP3    H243531   6.470   4.974  11.197 -0.1286  0.5195 -0.1686
 6446TIP3   OH243532   4.667   5.221   9.963 -0.2078 -0.4728 -0.5698
 6446TIP3    H143533   4.595   5.272  10.000  0.9798 -0.6253  2.2252
 6446TIP3    H243534   4.627   5.140   9.932 -1.3035 -0.3748  0.5368
 6447TIP3   OH243535   4.864   4.027   9.442  0.1975  0.6031  0.1373
 6447TIP3    H143536   4.829   4.042   9.530  0.1033 -0.0849  0.2177
 6447TIP3    H243537   4.925   3.954   9.452  0.0225  0.3762 -0.4069
 6448TIP3   OH243538   5.373   3.405  10.585  0.2766  0.5382 -0.5453
 6448TIP3    H143539   5.466   3.382  10.586  0.0228 -0.5643 -0.9974
 6448TIP3    H243540   5.370   3.494  10.621  1.5084  0.6227 -0.6106
 6449TIP3   OH243541   6.239   4.798  11.346  0.2868 -1.1831 -0.0142
 6449TIP3    H143542   6.324   4.814  11.304  0.6790 -1.6111  0.5980
 6449TIP3    H243543   6.175   4.840  11.288  0.8627 -1.3304 -0.7697
 6450TIP3   OH243544   2.449   4.469  11.936 -0.2729 -0.2676  0.0794
 6450TIP3    H143545   2.394   4.534  11.892 -1.5995 -2.0646 -1.0417
 6450TIP3    H243546   2.526   4.461  11.880 -1.8316 -2.3475 -1.9635
 6451TIP3   OH243547   2.334   4.743  10.436 -0.3889 -0.0896  0.4492
 6451TIP3    H143548   2.239   4.732  10.438 -0.6093  1.6275  2.4694
 6451TIP3    H243549   2.369   4.654  10.442 -1.8777 -0.6688  0.9411
 6452TIP3   OH243550   5.871   4.010   9.223 -0.2720  0.3365 -0.4840
 6452TIP3    H143551   5.858   4.064   9.301 -0.8241  0.4588 -0.6579
 6452TIP3    H243552   5.932   4.061   9.169  0.3101  0.1358 -0.0269
 6453TIP3   OH243553   0.768   0.368  10.761 -0.5855  0.1523  0.2733
 6453TIP3    H143554   0.677   0.376  10.734  0.2571  0.5480 -2.8962
 6453TIP3    H243555   0.780   0.275  10.777 -1.6674  0.1774  1.3423
 6454TIP3   OH243556   4.304   5.909  11.802  0.0141 -0.4420  0.1087
 6454TIP3    H143557   4.271   6.000  11.797  1.6204  0.1590  0.0213
 6454TIP3    H243558   4.376   5.913  11.864  1.9515 -1.0386 -1.9534
 6455TIP3   OH243559   5.304   2.509  11.727  0.6591 -0.9726  0.3113
 6455TIP3    H143560   5.350   2.588  11.758  0.8852 -0.6594 -0.7707
 6455TIP3    H243561   5.212   2.535  11.723  0.7523 -0.6973 -0.1964
 6456TIP3   OH243562   3.883   6.368  12.174  0.1046 -0.3925 -0.2628
 6456TIP3    H143563   3.890   6.328  12.261 -0.2934  0.3675  0.1354
 6456TIP3    H243564   3.972   6.395  12.152  0.0176  0.5896  0.5047
 6457TIP3   OH243565   1.943   5.334  10.566  0.0365  0.0868  0.4485
 6457TIP3    H143566   2.019   5.287  10.531 -0.6524 -1.9824  1.5636
 6457TIP3    H243567   1.904   5.376  10.490  0.1890 -1.9393 -0.8490
 6458TIP3   OH243568   2.440   1.192  12.367  0.1834 -0.2969 -0.1062
 6458TIP3    H143569   2.491   1.127  12.415  0.6266 -1.2343 -1.7665
 6458TIP3    H243570   2.455   1.171  12.275  1.4974  3.0282 -0.7944
 6459TIP3   OH243571   4.950   2.302  10.770  0.3927 -0.0539  0.4665
 6459TIP3    H143572   4.887   2.286  10.699 -0.2437 -0.9367  1.2146
 6459TIP3    H243573   4.900   2.348  10.837 -0.2157 -2.8938  2.1328
 6460TIP3   OH243574   2.775   2.579  12.392 -0.4400  0.2496  0.0913
 6460TIP3    H143575   2.706   2.547  12.334 -0.7912  0.2449  0.5075
 6460TIP3    H243576   2.789   2.508  12.455  1.2505 -0.5420 -1.0716
 6461TIP3   OH243577   4.288   1.649  11.671 -0.2728 -0.6099  0.1778
 6461TIP3    H143578   4.294   1.567  11.620 -0.4183  0.4334 -1.6032
 6461TIP3    H243579   4.212   1.694  11.635 -2.1762 -1.0256  3.2990
 6462TIP3   OH243580   0.401   1.029  11.087  0.4857 -0.3318 -0.3143
 6462TIP3    H143581   0.469   0.961  11.082  0.6575 -0.4572  2.1034
 6462TIP3    H243582   0.449   1.108  11.112 -0.2376 -0.5969  2.2195
 6463TIP3   OH243583   4.615   3.943   9.864 -1.0323  0.0267  0.2535
 6463TIP3    H143584   4.586   4.034   9.872  0.7497  0.7970 -1.2252
 6463TIP3    H243585   4.600   3.922   9.772  2.6344  0.4366 -0.6092
 6464TIP3   OH243586   2.429   5.265  10.131  0.1151 -0.4490  0.8691
 6464TIP3    H143587   2.351   5.303  10.090  1.1460 -0.5766 -1.3833
 6464TIP3    H243588   2.397   5.186  10.175 -1.0385 -0.5821 -0.1467
 6465TIP3   OH243589   2.212   4.568   9.346  0.3602  0.0501 -0.5025
 6465TIP3    H143590   2.271   4.634   9.383 -0.9121  1.0876 -0.2772
 6465TIP3    H243591   2.125   4.605   9.354 -0.7479 -2.6708  1.8948
 6466TIP3   OH243592   3.883   2.409   9.038 -0.0662 -0.0275 -0.3775
 6466TIP3    H143593   3.808   2.461   9.009  0.1009  0.5000  0.0999
 6466TIP3    H243594   3.854   2.318   9.031 -0.2711  0.1175 -1.4723
 6467TIP3   OH243595   1.815   6.418   9.256  0.1822 -0.2672  0.0520
 6467TIP3    H143596   1.771   6.486   9.204  1.8332  0.6447 -0.2149
 6467TIP3    H243597   1.827   6.457   9.342 -0.8663 -1.0938  0.6040
 6468TIP3   OH243598   6.677   2.101  12.041 -0.6609  0.4704  0.8481
 6468TIP3    H143599   6.594   2.054  12.043 -0.6100  0.1906 -1.2350
 6468TIP3    H243600   6.743   2.032  12.034 -0.3296  0.7282  1.4053
 6469TIP3   OH243601   4.749   3.589  10.937 -0.3502  0.3317 -0.4611
 6469TIP3    H143602   4.793   3.568  11.019  1.1121 -1.1274 -1.5444
 6469TIP3    H243603   4.700   3.510  10.915  0.0334  0.3525 -1.4445
 6470TIP3   OH243604   1.621   0.751  12.005  0.1616  0.2234  0.4438
 6470TIP3    H143605   1.612   0.664  12.045 -0.5313  0.2657  0.3838
 6470TIP3    H243606   1.593   0.812  12.072 -0.5278  0.3251  0.0722
 6471TIP3   OH243607   0.113   0.737  10.013 -0.5012  0.1362  0.0795
 6471TIP3    H143608   0.130   0.732   9.918 -1.8961  1.4258 -0.2729
 6471TIP3    H243609   0.053   0.665  10.030  1.3039 -1.3609  0.4055
 6472TIP3   OH243610   0.864   2.034  11.223 -0.4303  0.1286 -0.2238
 6472TIP3    H143611   0.935   1.976  11.196  1.6100  1.7834  1.2863
 6472TIP3    H243612   0.831   2.071  11.141  0.4518 -0.6531 -0.9525
 6473TIP3   OH243613   6.207   0.603  12.157 -0.8162  0.7833 -0.2503
 6473TIP3    H143614   6.301   0.586  12.160 -0.7501  1.1820  0.0252
 6473TIP3    H243615   6.201   0.697  12.139 -1.1628  0.5372 -1.5424
 6474TIP3   OH243616   2.557   4.229  11.552 -0.4616  0.2472 -0.3504
 6474TIP3    H143617   2.503   4.198  11.625  1.9009 -0.5926  1.1668
 6474TIP3    H243618   2.566   4.323  11.567 -4.1223  1.1479 -2.5541
 6475TIP3   OH243619   4.653   6.531  11.375  0.0137 -0.5253  0.6479
 6475TIP3    H143620   4.656   6.624  11.349  0.9518  0.1690  2.9631
 6475TIP3    H243621   4.560   6.509  11.373 -0.1371  0.1089 -0.9888
 6476TIP3   OH243622   0.791   4.217  10.756  0.0887  0.0514  0.2547
 6476TIP3    H143623   0.715   4.168  10.725  0.8947 -0.0528 -1.7192
 6476TIP3    H243624   0.801   4.288  10.692  2.6185 -0.9447 -0.5871
 6477TIP3   OH243625   1.119   2.375  11.398  0.2735  0.1625 -0.1221
 6477TIP3    H143626   1.156   2.461  11.418 -0.3088  0.9572 -2.2052
 6477TIP3    H243627   1.160   2.349  11.315 -1.2593 -0.4949 -0.7206
 6478TIP3   OH243628   6.371   4.302  12.971  0.2079  0.5498  0.5890
 6478TIP3    H143629   6.316   4.298  12.893 -0.5912  1.5788  1.0720
 6478TIP3    H243630   6.408   4.391  12.970  1.0900  0.1970  0.7860
 6479TIP3   OH243631   2.967   5.768   9.422 -0.0462 -0.2534 -0.0723
 6479TIP3    H143632   3.055   5.803   9.436 -0.3715  1.0354 -1.0673
 6479TIP3    H243633   2.978   5.702   9.354  0.0936  0.2950 -0.5959
 6480TIP3   OH243634   2.495   5.521  12.702 -0.2749  0.1781  0.2273
 6480TIP3    H143635   2.444   5.457  12.651 -1.0795  0.3283  0.8182
 6480TIP3    H243636   2.458   5.515  12.790 -0.3646  1.4555  0.2890
 6481TIP3   OH243637   0.389   3.310   9.887 -0.0876 -0.0778 -0.6450
 6481TIP3    H143638   0.463   3.337   9.834  1.2361 -0.1413  1.0773
 6481TIP3    H243639   0.425   3.299   9.975 -2.1248 -0.2143  0.2363
 6482TIP3   OH243640   6.428   0.678  11.955 -0.7628  0.5910 -0.2243
 6482TIP3    H143641   6.410   0.762  11.997  3.5481  1.0929  1.1288
 6482TIP3    H243642   6.452   0.620  12.027 -0.8419 -0.9792 -1.3962
 6483TIP3   OH243643   4.470   2.305   9.732  0.2622  1.0096 -0.1634
 6483TIP3    H143644   4.431   2.224   9.699 -0.0798  0.9409  0.4006
 6483TIP3    H243645   4.402   2.371   9.720 -0.3055  0.7641  1.4110
 6484TIP3   OH243646   1.571   0.458  10.211 -0.4386  0.5674  0.7442
 6484TIP3    H143647   1.490   0.430  10.254  0.9879 -1.9978  1.9570
 6484TIP3    H243648   1.628   0.485  10.282  0.7474 -0.3833  0.1891
 6485TIP3   OH243649   2.764   3.380  11.502 -0.7448  0.0537  0.2263
 6485TIP3    H143650   2.841   3.428  11.473  0.2802 -1.1231  0.9290
 6485TIP3    H243651   2.748   3.315  11.434  0.5197 -1.4515  1.2993
 6486TIP3   OH243652   5.095   2.010  10.424  0.1231 -0.1408 -0.1079
 6486TIP3    H143653   5.011   2.052  10.405  0.0008  0.4511  1.5776
 6486TIP3    H243654   5.141   2.072  10.481  0.8648 -1.3240  0.6229
 6487TIP3   OH243655   3.990   1.242  10.237 -0.1570  0.1440 -0.4674
 6487TIP3    H143656   4.028   1.155  10.248 -2.4985 -0.7837  1.0890
 6487TIP3    H243657   4.053   1.301  10.277 -0.9095 -1.5064  3.6354
 6488TIP3   OH243658   6.215   3.876  10.209  0.3249 -0.2443  0.0128
 6488TIP3    H143659   6.192   3.825  10.286 -0.1573  0.3794  0.2932
 6488TIP3    H243660   6.307   3.898  10.221  0.6802 -1.4429 -0.3545
 6489TIP3   OH243661   4.374   2.133  12.516 -0.2059 -0.1054 -0.1641
 6489TIP3    H143662   4.355   2.040  12.498  0.1138 -0.5155  1.4642
 6489TIP3    H243663   4.288   2.170  12.538 -0.0953 -0.4336  0.8625
 6490TIP3   OH243664   6.724   6.142  10.599  0.2469 -0.0223  0.5784
 6490TIP3    H143665   6.804   6.191  10.615 -0.1520  0.8880 -0.1219
 6490TIP3    H243666   6.731   6.114  10.508 -0.3501  0.3191  0.4204
 6491TIP3   OH243667   2.985   1.764  11.737 -0.1033 -0.2938  0.4558
 6491TIP3    H143668   2.958   1.684  11.691  0.0149  0.1790 -0.4564
 6491TIP3    H243669   2.933   1.833  11.697  1.1829  0.3738 -0.1189
 6492TIP3   OH243670   0.412   6.435  10.502 -0.3554 -0.3449  0.1013
 6492TIP3    H143671   0.459   6.504  10.548  0.5842 -0.3786 -0.7942
 6492TIP3    H243672   0.477   6.395  10.445 -1.2921 -0.8795 -0.6121
 6493TIP3   OH243673   1.916   1.658   9.328  0.5245 -0.0936  0.0753
 6493TIP3    H143674   1.843   1.615   9.373 -0.7109  1.1663 -0.6656
 6493TIP3    H243675   1.909   1.629   9.237 -0.6949  2.0343 -0.5755
 6494TIP3   OH243676   1.185   4.972   9.242 -0.2060  0.2505 -0.4645
 6494TIP3    H143677   1.256   5.035   9.256  1.1002 -0.4935 -3.0648
 6494TIP3    H243678   1.224   4.887   9.262 -0.8922 -0.0440 -0.3341
 6495TIP3   OH243679   6.270   0.729  11.559 -0.0930  0.8631 -0.0553
 6495TIP3    H143680   6.201   0.730  11.626  1.6440  0.5063  1.8564
 6495TIP3    H243681   6.293   0.820  11.546 -0.3954  0.9311 -0.1193
 6496TIP3   OH243682   4.661   6.432  12.459  0.3455  0.3191 -0.2249
 6496TIP3    H143683   4.710   6.456  12.381  1.0987  0.3215  0.2409
 6496TIP3    H243684   4.596   6.502  12.469 -2.6036 -1.6880 -3.1764
 6497TIP3   OH243685   1.544   1.808   9.698 -0.0358 -0.0823  0.1739
 6497TIP3    H143686   1.604   1.751   9.650  1.2049  1.4783 -0.1899
 6497TIP3    H243687   1.465   1.811   9.643 -0.0720 -1.2710  0.1200
 6498TIP3   OH243688   3.474   1.263  10.549 -0.1542 -0.3498  0.3738
 6498TIP3    H143689   3.567   1.259  10.525 -0.2931  1.0233 -0.5243
 6498TIP3    H243690   3.431   1.300  10.471 -1.3215 -0.0804  1.1205
 6499TIP3   OH243691   2.897   0.466  11.301 -0.4391  0.2450  0.8456
 6499TIP3    H143692   2.963   0.445  11.234  1.1078  4.9884  0.4691
 6499TIP3    H243693   2.891   0.388  11.355  3.0877 -1.5963 -1.0725
 6500TIP3   OH243694   5.495   4.969  10.427  0.7631 -0.4561  0.1231
 6500TIP3    H143695   5.424   4.940  10.369 -0.9752  0.4984  1.6688
 6500TIP3    H243696   5.521   4.889  10.474  1.4319 -1.0089 -1.1331
 6501TIP3   OH243697   6.243   4.551   9.139  0.3121 -0.1730  0.2999
 6501TIP3    H143698   6.163   4.601   9.125 -0.9190 -1.6474  1.5878
 6501TIP3    H243699   6.273   4.576   9.227  1.4040  0.5256 -0.2574
 6502TIP3   OH243700   2.346   4.695  11.027 -0.0499 -0.9049 -0.7643
 6502TIP3    H143701   2.370   4.737  11.110 -1.2633  1.3697 -1.4630
 6502TIP3    H243702   2.257   4.725  11.009 -0.5479 -2.8953 -1.9812
 6503TIP3   OH243703   4.822   6.229  10.667  0.2443  0.3585 -0.1163
 6503TIP3    H143704   4.858   6.226  10.578 -1.7960  2.4972 -1.1104
 6503TIP3    H243705   4.806   6.137  10.689  1.3939 -0.2620 -1.6855
 6504TIP3   OH243706   3.691   4.707  13.256  0.3510  0.5875 -0.0089
 6504TIP3    H143707   3.671   4.713  13.162  0.2035 -0.3991 -0.0514
 6504TIP3    H243708   3.785   4.687  13.258  0.3069  0.3866  0.0466
 6505TIP3   OH243709   5.841   0.437  10.077  0.0570 -0.4255  0.6528
 6505TIP3    H143710   5.888   0.476  10.003  0.2167  2.2766  2.0806
 6505TIP3    H243711   5.896   0.456  10.153 -0.9363 -1.6603  1.7303
 6506TIP3   OH243712   3.493   5.473  10.644 -0.5707  0.0359  0.3060
 6506TIP3    H143713   3.520   5.408  10.708 -2.2560 -0.2469  0.7834
 6506TIP3    H243714   3.568   5.531  10.635 -0.2282 -0.0102  2.4223
 6507TIP3   OH243715   0.676   3.933  10.489 -0.1086 -0.4309  0.9073
 6507TIP3    H143716   0.666   3.982  10.570 -0.2516 -0.6431  1.0173
 6507TIP3    H243717   0.625   3.853  10.502  0.5709 -0.8623  0.9341
 6508TIP3   OH243718   5.992   1.918  11.701  0.4243  0.4461  0.1803
 6508TIP3    H143719   6.017   1.962  11.782 -1.9796  0.2301  1.1257
 6508TIP3    H243720   5.971   1.828  11.728 -1.6530  0.7190 -0.4110
 6509TIP3   OH243721   4.237   3.148   9.311  0.2261 -0.6135  0.0134
 6509TIP3    H143722   4.292   3.070   9.313  0.0729 -0.7154  0.3103
 6509TIP3    H243723   4.277   3.204   9.245  0.0933 -1.1241 -0.5076
 6510TIP3   OH243724   2.105   3.259  10.406  0.4517 -0.1187 -0.1786
 6510TIP3    H143725   2.045   3.333  10.416 -0.3386 -0.5436 -1.4201
 6510TIP3    H243726   2.066   3.189  10.459 -0.1997 -0.3912 -0.9745
 6511TIP3   OH243727   5.106   3.140   9.678  0.3263  0.1679 -0.4354
 6511TIP3    H143728   5.194   3.117   9.648  0.4834 -0.5283  0.5468
 6511TIP3    H243729   5.107   3.126   9.772  0.2065  3.4809  0.2101
 6512TIP3   OH243730   0.934   6.456  11.049 -0.1337 -0.2729  0.8247
 6512TIP3    H143731   0.905   6.541  11.017 -0.3152 -1.3361 -2.0997
 6512TIP3    H243732   0.918   6.460  11.144  0.1192  2.9871  0.8549
 6513TIP3   OH243733   5.315   3.095  12.654 -0.2163 -0.6590  0.8142
 6513TIP3    H143734   5.287   3.154  12.725 -1.6525  0.2154 -0.4267
 6513TIP3    H243735   5.310   3.148  12.575  2.7812 -1.1759  0.1499
 6514TIP3   OH243736   1.555   4.503   9.175 -0.1011 -0.5981  0.0449
 6514TIP3    H143737   1.499   4.503   9.097  1.0550 -2.0694 -0.8453
 6514TIP3    H243738   1.564   4.411   9.199 -0.6200 -0.1572  2.1019
 6515TIP3   OH243739   2.024   3.788  12.806  1.1275  0.0281 -0.3668
 6515TIP3    H143740   2.101   3.835  12.776  0.7734 -0.5331 -2.2523
 6515TIP3    H243741   1.951   3.830  12.761  0.6637 -1.3771 -0.9816
 6516TIP3   OH243742   5.436   2.865  12.939  0.2503 -0.1755 -0.1629
 6516TIP3    H143743   5.476   2.940  12.983 -1.1485 -0.4286  1.6562
 6516TIP3    H243744   5.347   2.895  12.918  0.5359 -0.4413 -1.8984
 6517TIP3   OH243745   6.240   5.982  12.584 -0.2155 -0.4647  0.1173
 6517TIP3    H143746   6.197   6.009  12.664 -1.9972 -1.6020 -0.3997
 6517TIP3    H243747   6.169   5.962  12.523  1.0580 -0.8119 -1.3438
 6518TIP3   OH243748   2.465   2.609  11.578 -0.0272  0.1754 -0.1229
 6518TIP3    H143749   2.445   2.702  11.584 -1.0616  0.0334 -1.0535
 6518TIP3    H243750   2.545   2.606  11.525 -0.0499  0.5375 -0.1814
 6519TIP3   OH243751   0.429   4.951  11.161  0.1729 -0.3059  0.4815
 6519TIP3    H143752   0.421   5.036  11.118 -1.6454 -0.6518  0.0404
 6519TIP3    H243753   0.487   4.968  11.236 -1.4857  1.7713  1.4313
 6520TIP3   OH243754   4.401   4.077  11.642  0.2176  0.3701 -0.2122
 6520TIP3    H143755   4.468   4.074  11.711  0.9565  0.6461 -0.8987
 6520TIP3    H243756   4.445   4.041  11.565 -0.3226  0.8718 -0.7586
 6521TIP3   OH243757   4.925   4.833   9.726  0.1475 -0.6151 -0.3671
 6521TIP3    H143758   4.831   4.822   9.733 -0.2348  1.5529 -1.3498
 6521TIP3    H243759   4.942   4.920   9.762  1.7503 -0.8534 -0.4450
 6522TIP3   OH243760   0.949   6.367  10.058  0.2331  0.1033  0.1920
 6522TIP3    H143761   0.874   6.414  10.093 -0.0215  0.6336 -1.0177
 6522TIP3    H243762   0.914   6.316   9.985  0.5724 -1.7118  1.2118
 6523TIP3   OH243763   0.678   4.426  10.267  0.0177 -0.0454 -0.3461
 6523TIP3    H143764   0.684   4.522  10.264 -2.2640  0.1919  0.5679
 6523TIP3    H243765   0.693   4.398  10.177  0.1764  1.2091 -0.7285
 6524TIP3   OH243766   0.011   3.980  11.296  0.4745  0.0695  0.2118
 6524TIP3    H143767  -0.021   4.049  11.239  0.7799  0.3592  0.3876
 6524TIP3    H243768   0.106   3.996  11.303  0.7659 -1.0990 -0.7499
 6525TIP3   OH243769   4.433   3.073  10.707 -0.0404 -0.1825 -0.2332
 6525TIP3    H143770   4.440   3.018  10.786  2.9461 -1.0714 -0.9804
 6525TIP3    H243771   4.338   3.085  10.695 -0.6415 -0.4699  3.1204
 6526TIP3   OH243772   5.689   3.698  11.326  0.1135 -0.4578 -0.1750
 6526TIP3    H143773   5.698   3.716  11.420 -2.1601 -0.8601  0.1840
 6526TIP3    H243774   5.763   3.641  11.305 -0.4414 -2.0327  1.8593
 6527TIP3   OH243775   0.840   3.211  11.565  0.1865  0.0234  0.5935
 6527TIP3    H143776   0.870   3.203  11.656 -2.4155  0.7326  1.6002
 6527TIP3    H243777   0.765   3.152  11.559  0.4667 -0.2110 -1.1986
 6528TIP3   OH243778   2.959   5.102  10.831 -0.2357  0.3069  0.1388
 6528TIP3    H143779   3.023   5.140  10.891  1.3010  1.6325 -2.1633
 6528TIP3    H243780   2.973   5.007  10.837  1.9697  0.5564 -0.2573
 6529TIP3   OH243781   1.458   4.525  11.446 -0.5300 -0.0145 -0.3580
 6529TIP3    H143782   1.520   4.595  11.463  0.7252 -0.5991 -2.1746
 6529TIP3    H243783   1.436   4.490  11.532  1.0095  0.7790  0.3846
 6530TIP3   OH243784   3.728   3.087  10.193 -0.1002  0.0002 -0.1274
 6530TIP3    H143785   3.796   3.020  10.185 -1.2203 -0.9751 -2.2182
 6530TIP3    H243786   3.665   3.051  10.254  1.2267  0.9701  1.9390
 6531TIP3   OH243787   2.658   4.046   9.553 -0.6909  0.1498 -0.1574
 6531TIP3    H143788   2.622   3.971   9.601  2.1120 -0.8729  0.5029
 6531TIP3    H243789   2.693   4.104   9.621  0.6050  0.1662 -0.8194
 6532TIP3   OH243790   1.899   0.823  12.831  0.1224 -0.3790  0.0519
 6532TIP3    H143791   1.926   0.846  12.920 -1.8397  0.0297  0.6055
 6532TIP3    H243792   1.961   0.868  12.774  1.2649 -0.4498  1.2079
 6533TIP3   OH243793   0.193   4.003  10.047  0.0966  0.2772 -0.1267
 6533TIP3    H143794   0.129   4.056  10.095  2.3730  2.1091  1.1294
 6533TIP3    H243795   0.155   3.915  10.045 -2.4022  1.2554  0.5528
 6534TIP3   OH243796   4.564   3.737  10.732 -0.2756 -0.5669 -0.4104
 6534TIP3    H143797   4.622   3.714  10.660  0.4211  0.6618 -0.2553
 6534TIP3    H243798   4.599   3.689  10.807 -0.2724 -0.8816 -0.6100
 6535TIP3   OH243799   1.905   4.350   9.056  0.0386 -0.8770  0.0448
 6535TIP3    H143800   1.882   4.423   9.114 -0.1940 -1.5189  0.7702
 6535TIP3    H243801   1.996   4.367   9.032 -0.0638 -0.2526  0.0613
 6536TIP3   OH243802   5.056   6.635   9.718  0.8147  0.1677 -0.1183
 6536TIP3    H143803   5.088   6.563   9.772  0.7476  0.8919  0.9099
 6536TIP3    H243804   5.126   6.700   9.720  0.5828  0.4324 -0.4575
 6537TIP3   OH243805   3.562   1.759  10.837  0.9634  0.2275 -0.6050
 6537TIP3    H143806   3.515   1.739  10.918  0.5371  1.4853 -0.5300
 6537TIP3    H243807   3.578   1.673  10.798 -0.4263 -0.3040 -0.0861
 6538TIP3   OH243808   5.528   5.936  10.204 -0.7812 -0.2427 -0.1885
 6538TIP3    H143809   5.537   5.900  10.116 -1.3960  0.5759 -0.6106
 6538TIP3    H243810   5.610   5.983  10.220 -1.2045  0.8050 -0.9254
 6539TIP3   OH243811   2.257   4.102  10.356 -0.4494  0.1838  0.3759
 6539TIP3    H143812   2.174   4.080  10.315 -0.7825 -0.8897  1.5611
 6539TIP3    H243813   2.236   4.175  10.414 -0.9931 -1.1822  1.9749
 6540TIP3   OH243814   2.523   5.721  12.315 -0.5046 -0.2066 -0.2143
 6540TIP3    H143815   2.448   5.753  12.365  1.5110  2.5426  1.3070
 6540TIP3    H243816   2.597   5.773  12.346  1.8876 -2.0493 -2.3748
 6541TIP3   OH243817   5.117   2.478  11.944 -0.0332  0.1086  0.3273
 6541TIP3    H143818   5.204   2.461  11.978 -0.1124  0.2297  0.5910
 6541TIP3    H243819   5.059   2.473  12.020 -0.1117  1.1476  0.3547
 6542TIP3   OH243820   2.334   5.863  12.476 -0.1246 -0.2844 -0.5223
 6542TIP3    H143821   2.301   5.774  12.483  1.6010 -1.1947 -2.6442
 6542TIP3    H243822   2.288   5.901  12.401  1.9168 -0.8502 -2.1651
 6543TIP3   OH243823   2.887   3.694  10.884  0.2195  0.2702  0.1663
 6543TIP3    H143824   2.812   3.635  10.880  0.2367  0.2623 -0.0951
 6543TIP3    H243825   2.958   3.641  10.922  0.7266 -0.4303 -1.6417
 6544TIP3   OH243826   4.507   6.725   9.881 -0.6387  0.0796 -0.2554
 6544TIP3    H143827   4.490   6.815   9.909 -0.5797  0.0151 -0.0079
 6544TIP3    H243828   4.546   6.683   9.957  0.1702  0.0883 -0.6606
 6545TIP3   OH243829   1.626   2.011  11.441  0.1463  0.8108  0.6378
 6545TIP3    H143830   1.535   2.028  11.466 -0.8451 -1.0582 -1.3815
 6545TIP3    H243831   1.640   2.064  11.363  0.0478 -0.4731 -0.2828
 6546TIP3   OH243832   0.308   5.784  11.723  0.2233  0.1638  0.2409
 6546TIP3    H143833   0.344   5.784  11.635 -0.3857  0.2955 -0.0107
 6546TIP3    H243834   0.379   5.818  11.778  0.5524  0.2191 -0.2175
 6547TIP3   OH243835   5.072   3.279  11.736 -0.0123  0.1249 -0.8052
 6547TIP3    H143836   5.142   3.215  11.722  0.3486  0.3091  0.0634
 6547TIP3    H243837   5.114   3.364  11.724 -0.2346  0.2254 -0.8823
 6548TIP3   OH243838   6.718   3.688   9.727 -0.1040  0.1685  0.0999
 6548TIP3    H143839   6.646   3.626   9.739 -0.0483  0.1168  0.1678
 6548TIP3    H243840   6.779   3.643   9.668 -0.7689  0.7458 -1.0633
 6549TIP3   OH243841   0.682   1.931   9.908  0.2252  0.7713 -0.3011
 6549TIP3    H143842   0.610   1.971   9.956  2.0046  1.9392  1.5374
 6549TIP3    H243843   0.659   1.838   9.905 -0.7502  0.9111  1.3658
 6550TIP3   OH243844   5.093   5.480  10.139 -0.3561 -0.3446 -0.2004
 6550TIP3    H143845   5.055   5.556  10.094  1.4166 -0.1691 -1.5432
 6550TIP3    H243846   5.047   5.405  10.101  0.9049 -0.1804 -2.2137
 6551TIP3   OH243847   3.004   0.879   9.554  0.1204  0.2504  0.2448
 6551TIP3    H143848   2.925   0.892   9.606  0.5224  3.9769  0.2075
 6551TIP3    H243849   3.063   0.830   9.611 -1.1414  0.0525  1.4318
 6552TIP3   OH243850   4.601   5.347  12.326 -0.4601 -0.0291 -0.5872
 6552TIP3    H143851   4.534   5.399  12.282  0.0453  0.6354 -0.5770
 6552TIP3    H243852   4.582   5.359  12.420 -2.0646 -2.1231 -0.5619
 6553TIP3   OH243853   2.162   0.163  10.580 -0.1906 -0.1158 -0.3920
 6553TIP3    H143854   2.138   0.250  10.612  0.6032  1.3265 -3.3281
 6553TIP3    H243855   2.256   0.169  10.563 -0.7120 -0.0890 -4.2505
 6554TIP3   OH243856   2.632   4.547  12.395  0.2662  0.0513 -0.0609
 6554TIP3    H143857   2.596   4.537  12.483  1.1497  0.8508  0.4217
 6554TIP3    H243858   2.621   4.462  12.354 -2.2523  0.2941 -0.0058
 6555TIP3   OH243859   6.599   0.687  11.730  0.4779  0.4097  0.1437
 6555TIP3    H143860   6.665   0.619  11.716 -0.7459 -0.4203 -2.1551
 6555TIP3    H243861   6.562   0.667  11.817 -0.0642 -2.1338 -0.5770
 6556TIP3   OH243862   0.747   1.405  11.231 -0.3391  0.1410  0.0410
 6556TIP3    H143863   0.816   1.464  11.263 -1.3769  1.0423  0.6875
 6556TIP3    H243864   0.710   1.367  11.311 -1.5078  0.7420 -0.2057
 6557TIP3   OH243865   3.847   1.310  10.808  0.0438  0.0656 -0.4992
 6557TIP3    H143866   3.897   1.294  10.887 -0.7878  0.6128  0.1562
 6557TIP3    H243867   3.870   1.237  10.750  0.6275 -0.3648  0.2512
 6558TIP3   OH243868   3.499   1.576  10.543 -0.5869  0.6692  0.3577
 6558TIP3    H143869   3.495   1.506  10.478  0.6080  0.7417  0.1809
 6558TIP3    H243870   3.524   1.532  10.624 -0.6769  0.7691  0.4392
 6559TIP3   OH243871   1.388   3.278  11.627  0.2285  0.0798 -0.2072
 6559TIP3    H143872   1.477   3.308  11.644  0.7773 -1.4056 -0.3292
 6559TIP3    H243873   1.399   3.198  11.575 -0.9783 -2.0943  2.6140
 6560TIP3   OH243874   4.962   5.285  10.022  0.2322 -0.0134 -0.2733
 6560TIP3    H143875   4.873   5.255  10.043  1.0362 -0.5254  2.8977
 6560TIP3    H243876   5.001   5.212   9.974 -0.2734 -0.8394  0.5420
 6561TIP3   OH243877   4.169   4.452  10.027 -0.5684 -0.3426  0.0957
 6561TIP3    H143878   4.161   4.404  10.110 -0.4166 -0.9397 -0.2305
 6561TIP3    H243879   4.116   4.402   9.965 -1.3894  0.5870  0.0255
 6562TIP3   OH243880   4.876   6.223  12.267 -0.2879  0.1392  0.1569
 6562TIP3    H143881   4.940   6.256  12.330 -1.4421 -0.1793  1.5776
 6562TIP3    H243882   4.878   6.128  12.280  0.3813 -0.0573 -1.2504
 6563TIP3   OH243883   5.899   4.482   9.592  0.4846  0.5848 -0.4740
 6563TIP3    H143884   5.898   4.403   9.645  0.0492  1.2585  0.5624
 6563TIP3    H243885   5.814   4.482   9.547 -0.4961  1.5295  1.2370
 6564TIP3   OH243886   2.006   3.523  12.582  0.1893 -0.0288  0.1335
 6564TIP3    H143887   1.946   3.528  12.656  0.8129 -2.0620  0.8148
 6564TIP3    H243888   2.092   3.510  12.621  0.7805  0.5689 -0.9153
 6565TIP3   OH243889   4.352   4.446   9.583 -0.1253 -0.2309  0.1125
 6565TIP3    H143890   4.436   4.424   9.622  0.6694  0.1976 -1.2889
 6565TIP3    H243891   4.308   4.362   9.572 -0.3740 -0.3647  1.8506
 6566TIP3   OH243892   5.553   1.102  10.065  0.3378 -0.1506 -0.2025
 6566TIP3    H143893   5.457   1.098  10.059  0.3461 -1.9713  0.4567
 6566TIP3    H243894   5.571   1.189  10.100 -1.0732  0.2083 -0.3051
 6567TIP3   OH243895   4.346   2.785   9.799  0.2803  0.8353 -0.7011
 6567TIP3    H143896   4.411   2.800   9.867  0.0263  0.7025 -0.4254
 6567TIP3    H243897   4.381   2.828   9.722 -0.2215  2.4732 -0.0617
 6568TIP3   OH243898   2.343   0.611  10.276 -0.1440  0.0552  0.0395
 6568TIP3    H143899   2.254   0.619  10.241 -0.5602  2.1955  1.3976
 6568TIP3    H243900   2.399   0.632  10.202 -0.9056  1.6227 -0.1411
 6569TIP3   OH243901   5.813   5.460   9.915 -0.3354  0.3588 -0.1099
 6569TIP3    H143902   5.890   5.516   9.916  1.3046 -1.7581 -0.0136
 6569TIP3    H243903   5.756   5.495   9.983  0.6941  1.7583  0.0757
 6570TIP3   OH243904   5.321   5.302  10.227 -0.4641 -0.5061  0.3809
 6570TIP3    H143905   5.259   5.243  10.184 -2.0558  0.7623  0.8169
 6570TIP3    H243906   5.294   5.390  10.199  1.4542  0.0900  0.2253
 6571TIP3   OH243907   3.646   6.373  10.801 -0.0246 -0.2525 -0.3791
 6571TIP3    H143908   3.665   6.307  10.867 -0.9054 -1.0403 -0.8938
 6571TIP3    H243909   3.570   6.339  10.753  0.1783  0.6122 -1.3635
 6572TIP3   OH243910   5.324   5.471  11.870 -0.4001 -0.3552  0.5284
 6572TIP3    H143911   5.395   5.426  11.917  0.0327 -0.8841 -0.5902
 6572TIP3    H243912   5.327   5.434  11.782 -0.0181  1.9035 -0.4594
 6573TIP3   OH243913   3.022   2.949  12.410  0.0137 -0.3347 -0.1997
 6573TIP3    H143914   3.079   2.965  12.485  0.7536 -1.0613 -0.5997
 6573TIP3    H243915   2.965   2.877  12.437  0.3059 -0.6221 -0.3412
 6574TIP3   OH243916   0.197   4.379   9.452  0.0882 -0.1255  0.7961
 6574TIP3    H143917   0.135   4.448   9.429  0.4463  0.5409  1.7595
 6574TIP3    H243918   0.212   4.331   9.370 -2.4814 -0.9757  0.7494
 6575TIP3   OH243919   2.506   3.724  11.871 -1.1064 -0.3757  0.6199
 6575TIP3    H143920   2.434   3.745  11.812 -0.4634 -1.1661 -0.4829
 6575TIP3    H243921   2.573   3.685  11.815  1.0895  2.2542  1.2073
 6576TIP3   OH243922   1.845   3.249  10.855  0.5850  0.4255 -0.5864
 6576TIP3    H143923   1.862   3.219  10.945  0.5520 -0.6272 -0.9125
 6576TIP3    H243924   1.764   3.204  10.830 -0.8645  2.7272 -0.2519
 6577TIP3   OH243925   2.554   2.378  10.311  0.1650 -0.0463  0.4688
 6577TIP3    H143926   2.526   2.396  10.221  2.5123  1.9379  0.0023
 6577TIP3    H243927   2.499   2.435  10.365 -0.7994 -0.7509  0.2533
 6578TIP3   OH243928   0.385   2.959  11.355 -0.0060  0.3202  0.1720
 6578TIP3    H143929   0.314   2.902  11.324 -0.9967  1.1987  0.7735
 6578TIP3    H243930   0.371   3.042  11.310  1.0716  0.2967 -0.2317
 6579TIP3   OH243931   0.034   2.102  12.462 -0.0879  0.2113  0.2222
 6579TIP3    H143932  -0.038   2.064  12.512 -2.1385 -1.6909 -3.6668
 6579TIP3    H243933   0.098   2.031  12.453  0.6736  0.8050  0.8027
 6580TIP3   OH243934   2.640   4.363   9.323  0.2062  0.0142 -0.2875
 6580TIP3    H143935   2.558   4.333   9.363 -0.6406  2.1847 -0.2906
 6580TIP3    H243936   2.639   4.322   9.236 -0.3043 -0.8949  0.1269
 6581TIP3   OH243937   2.403   0.568   9.753  0.2266 -0.3709 -0.0393
 6581TIP3    H143938   2.334   0.618   9.797  0.2543 -0.8159  0.5082
 6581TIP3    H243939   2.427   0.623   9.678 -0.4682 -0.0418 -0.0351
 6582TIP3   OH243940   5.621   4.424   9.129  0.2409  0.2115  0.4501
 6582TIP3    H143941   5.586   4.465   9.050  1.5276  1.9779  0.7491
 6582TIP3    H243942   5.707   4.464   9.141  0.4859 -0.7390  2.2221
 6583TIP3   OH243943   4.786   5.904  12.944 -0.5480  0.1710 -0.2704
 6583TIP3    H143944   4.855   5.850  12.984 -0.5444 -0.4261 -1.0646
 6583TIP3    H243945   4.738   5.940  13.019 -0.6259 -1.0301  0.2890
 6584TIP3   OH243946   3.068   5.456  10.743 -0.3881 -0.1085 -0.0087
 6584TIP3    H143947   2.987   5.489  10.784  0.7629 -0.3230  2.6283
 6584TIP3    H243948   3.110   5.404  10.812  2.4961  0.8260 -0.9466
 6585TIP3   OH243949   1.761   0.934  11.040 -0.7067  0.2278  0.5861
 6585TIP3    H143950   1.726   0.957  11.126 -1.8099  0.4848  0.0926
 6585TIP3    H243951   1.785   1.019  11.002  0.8301  0.0275  1.0522
 6586TIP3   OH243952   0.337   0.414   9.979  0.7621  0.1014  0.5226
 6586TIP3    H143953   0.336   0.465   9.898  1.8090  1.9737  1.6153
 6586TIP3    H243954   0.245   0.396   9.997  0.4680  0.3377 -0.6657
 6587TIP3   OH243955   2.818   2.122  10.685  0.2999  0.6448  0.4292
 6587TIP3    H143956   2.810   2.215  10.705  0.3901  0.8384 -0.3810
 6587TIP3    H243957   2.787   2.115  10.595  1.2554  0.0613  0.1326
 6588TIP3   OH243958   5.985   4.230  10.592 -0.6040 -0.4526 -0.1637
 6588TIP3    H143959   5.896   4.258  10.573 -0.3445  0.9130  0.5027
 6588TIP3    H243960   6.039   4.273  10.525 -0.4733 -1.6185 -0.8300
 6589TIP3   OH243961   4.178   0.375  10.666 -0.4250 -0.1779  0.1634
 6589TIP3    H143962   4.218   0.298  10.706 -0.9561  0.2707  1.6034
 6589TIP3    H243963   4.089   0.378  10.703 -1.3730 -0.3931 -1.9417
 6590TIP3   OH243964   2.198   1.072  10.902 -0.2472 -0.0578 -0.1203
 6590TIP3    H143965   2.213   1.142  10.839  0.0115 -0.4507 -0.4973
 6590TIP3    H243966   2.284   1.055  10.940 -0.1382 -0.7820 -0.6767
 6591TIP3   OH243967   0.205   4.373  12.122 -0.5117 -0.2208  0.2180
 6591TIP3    H143968   0.161   4.307  12.176 -0.3408  0.1299  0.7931
 6591TIP3    H243969   0.209   4.451  12.178 -1.8716  0.6974 -0.9060
 6592TIP3   OH243970   2.404   1.026  10.468  0.0094 -0.2707  0.2828
 6592TIP3    H143971   2.359   1.083  10.531 -0.3007 -1.0368  0.7751
 6592TIP3    H243972   2.334   0.979  10.424  0.2667 -0.3668 -0.0245
 6593TIP3   OH243973   4.069   5.950  13.100  0.0428  0.1914  0.6164
 6593TIP3    H143974   4.150   5.994  13.125 -0.2286  0.7978  0.4471
 6593TIP3    H243975   4.051   5.890  13.173  0.7344 -0.0841  0.5667
 6594TIP3   OH243976   2.501   3.508   9.143 -0.7249  0.2864 -0.4705
 6594TIP3    H143977   2.450   3.533   9.221 -2.2974 -2.3964 -0.5205
 6594TIP3    H243978   2.537   3.590   9.111 -1.8261  1.7873  1.8457
 6595TIP3   OH243979   4.432   2.567  10.113  0.0390 -0.0593 -0.1090
 6595TIP3    H143980   4.351   2.579  10.062  1.4012  1.6911 -2.0423
 6595TIP3    H243981   4.437   2.472  10.127 -2.1732 -0.2442 -0.2100
 6596TIP3   OH243982   2.251   1.295  10.749  0.7014  0.0622 -0.0460
 6596TIP3    H143983   2.267   1.337  10.665 -0.9654  2.0789  0.5614
 6596TIP3    H243984   2.339   1.284  10.787  1.3347  1.1830 -1.1131
 6597TIP3   OH243985   1.967   4.668  12.106  0.0372 -0.1981  0.1849
 6597TIP3    H143986   1.938   4.582  12.076  2.0287 -0.3340 -1.6357
 6597TIP3    H243987   2.024   4.649  12.181  0.0009 -0.4026  0.1619
 6598TIP3   OH243988   5.312   4.723  12.751  0.2349  0.1909 -0.1807
 6598TIP3    H143989   5.271   4.789  12.807  0.9434 -0.6712  1.4270
 6598TIP3    H243990   5.278   4.639  12.783  1.8682 -0.4324  0.0654
 6599TIP3   OH243991   5.282   4.048  11.999  0.0773  0.1727 -0.0543
 6599TIP3    H143992   5.217   4.094  12.051  0.1809 -0.1674  0.3818
 6599TIP3    H243993   5.330   3.994  12.062  1.7644  1.4988 -0.1031
 6600TIP3   OH243994   5.879   2.377  11.914  0.5527 -0.4750  0.4434
 6600TIP3    H143995   5.833   2.302  11.952  0.5502 -0.7561 -0.1040
 6600TIP3    H243996   5.970   2.365  11.942  0.4453 -0.3383  0.8728
 6601TIP3   OH243997   5.152   0.376  10.106  0.1807  0.0569 -0.2779
 6601TIP3    H143998   5.179   0.311  10.170  3.2384  0.7993 -0.6372
 6601TIP3    H243999   5.208   0.359  10.030 -0.3233  1.8440 -1.1042
 6602TIP3   OH244000   2.202   3.953  12.672  0.3600 -0.1993 -0.1840
 6602TIP3    H144001   2.171   4.028  12.621  0.8801 -0.6809 -1.2340
 6602TIP3    H244002   2.274   3.988  12.725 -1.8850  0.9675  2.3734
 6603TIP3   OH244003   0.801   2.951  10.219  0.0542  0.2769  0.4677
 6603TIP3    H144004   0.815   2.876  10.277  1.1269 -1.5195 -1.9190
 6603TIP3    H244005   0.832   2.920  10.134  1.9583  3.9620 -0.3619
 6604TIP3   OH244006   4.965   4.863  10.579  0.4421  0.1121  0.1724
 6604TIP3    H144007   5.058   4.853  10.598  0.5334  0.0602 -0.2792
 6604TIP3    H244008   4.923   4.789  10.622  0.6159  0.1030  0.3260
 6605TIP3   OH244009   1.051   5.864   9.336  0.2291 -0.2485 -0.5585
 6605TIP3    H144010   1.058   5.769   9.335  1.0826 -0.2517  1.2557
 6605TIP3    H244011   1.112   5.894   9.269 -0.6041 -0.9766 -1.6628
 6606TIP3   OH244012   5.941   5.038  11.513  0.1672 -0.2721 -0.3566
 6606TIP3    H144013   5.998   5.091  11.456  1.2696 -0.3344  0.6402
 6606TIP3    H244014   5.881   5.101  11.552  0.5316  0.0283 -0.2742
 6607TIP3   OH244015   4.281   1.286   9.869  0.6223 -0.1808 -0.2949
 6607TIP3    H144016   4.290   1.282   9.774  0.0074  0.1498 -0.3710
 6607TIP3    H244017   4.289   1.194   9.897 -2.0148 -0.6952 -0.9538
 6608TIP3   OH244018   0.008   3.209   9.819  0.1166  0.3550  0.2476
 6608TIP3    H144019  -0.055   3.141   9.798  2.3676 -1.6039 -0.4980
 6608TIP3    H244020   0.071   3.167   9.878  2.0421  1.4870 -0.8863
 6609TIP3   OH244021   6.242   3.319  12.016  0.1408  0.1365  0.1946
 6609TIP3    H144022   6.171   3.277  12.064  0.8175  0.7416  1.7950
 6609TIP3    H244023   6.198   3.381  11.957 -0.6645  1.0543  1.6978
 6610TIP3   OH244024   5.480   4.115  18.573  0.2255 -0.3260  0.3414
 6610TIP3    H144025   5.435   4.145  18.494 -0.0632 -0.2286  0.5435
 6610TIP3    H244026   5.409   4.091  18.633  0.4251  1.0729  1.1550
 6611TIP3   OH244027   2.959   0.886  12.027 -0.0285  0.4442  0.1940
 6611TIP3    H144028   2.965   0.939  12.107  0.7626 -1.3483  1.3977
 6611TIP3    H244029   3.042   0.899  11.983  0.9229 -1.1205  1.4244
 6612TIP3   OH244030   1.173   4.446   9.962 -0.1533 -0.6484  0.2910
 6612TIP3    H144031   1.109   4.514   9.940 -0.0219 -0.1423  1.4329
 6612TIP3    H244032   1.257   4.492   9.967 -0.1583 -0.7584  1.6750
 6613TIP3   OH244033   3.050   3.147  11.734  0.1889 -0.0329 -0.0106
 6613TIP3    H144034   3.111   3.158  11.807  0.7000  1.4491 -0.6118
 6613TIP3    H244035   3.105   3.116  11.662  0.1259  0.7082 -0.3816
 6614TIP3   OH244036   5.769   2.297   9.576 -0.1691 -0.3135 -0.2295
 6614TIP3    H144037   5.839   2.255   9.627 -0.5529 -1.0243 -0.2665
 6614TIP3    H244038   5.699   2.232   9.575 -1.3309  0.8698  0.8743
 6615TIP3   OH244039   1.161   3.752  11.581 -0.3524  0.3541 -0.1253
 6615TIP3    H144040   1.162   3.762  11.676 -0.7143  2.1829 -0.2627
 6615TIP3    H244041   1.094   3.687  11.564 -0.8749  0.6228  0.8425
 6616TIP3   OH244042   2.539   1.209  12.838  0.5776 -0.5843 -0.0851
 6616TIP3    H144043   2.542   1.287  12.893  1.4700 -1.4436  1.1170
 6616TIP3    H244044   2.537   1.136  12.899 -2.2014 -1.5216 -1.1286
 6617TIP3   OH244045   6.732   4.451   9.649 -0.2379  0.1884 -0.4749
 6617TIP3    H144046   6.806   4.476   9.595  0.2993  0.3565  0.3176
 6617TIP3    H244047   6.725   4.356   9.639  0.8551  0.0021  0.3823
 6618TIP3   OH244048   6.287   0.533  10.862 -0.0898  0.3708 -0.2974
 6618TIP3    H144049   6.336   0.615  10.869 -0.5995  0.6772 -0.3029
 6618TIP3    H244050   6.263   0.512  10.952  1.2181 -0.5054 -0.1254
 6619TIP3   OH244051   4.908   4.796  12.289  0.0327  0.5727  0.0053
 6619TIP3    H144052   4.847   4.851  12.239  1.1318  0.6588 -1.2964
 6619TIP3    H244053   4.994   4.834  12.271  0.8025 -1.3860 -0.7385
 6620TIP3   OH244054   0.520   2.624  12.237 -0.5522 -0.7964  0.4037
 6620TIP3    H144055   0.456   2.695  12.249  0.0940 -0.2140  0.4226
 6620TIP3    H244056   0.543   2.598  12.326  0.7409  0.3739  0.4542
 6621TIP3   OH244057   4.423   5.621   9.845 -0.1315 -0.4054 -0.5963
 6621TIP3    H144058   4.410   5.562   9.919 -1.4097 -0.5678 -0.9257
 6621TIP3    H244059   4.511   5.603   9.814  1.1683  0.9233  1.9867
 6622TIP3   OH244060   5.525   4.822  11.914 -0.7781 -0.3105  0.7599
 6622TIP3    H144061   5.555   4.911  11.936  1.9769 -1.1719  0.9436
 6622TIP3    H244062   5.542   4.814  11.820 -0.1984 -0.9030  0.9092
 6623TIP3   OH244063   6.729   4.529  11.332 -0.0887 -0.3815 -0.9980
 6623TIP3    H144064   6.787   4.524  11.256  1.2572  1.0108 -0.1437
 6623TIP3    H244065   6.729   4.441  11.369  0.4194 -0.7179 -1.7776
 6624TIP3   OH244066   2.706   1.462  10.992  0.3366  0.9271  0.1365
 6624TIP3    H144067   2.783   1.512  10.965  1.8373 -1.3858 -0.1374
 6624TIP3    H244068   2.738   1.403  11.059 -1.3237  0.2325  0.3553
 6625TIP3   OH244069   3.668   1.318  12.027 -0.5198 -0.5425  0.5779
 6625TIP3    H144070   3.589   1.355  12.068 -1.5812 -1.3548 -0.6575
 6625TIP3    H244071   3.637   1.238  11.985  0.6237 -0.0097 -1.3706
 6626TIP3   OH244072   6.650   4.129   9.917  0.0566  0.2489  0.1307
 6626TIP3    H144073   6.650   4.220   9.886 -2.3458  0.0888 -0.5473
 6626TIP3    H244074   6.625   4.134  10.009 -0.4612  0.2604 -0.0090
 6627TIP3   OH244075   4.999   1.633   9.915  0.2504  0.4497  0.1448
 6627TIP3    H144076   4.938   1.578   9.964 -0.8208  0.3565 -1.2478
 6627TIP3    H244077   4.957   1.646   9.830  0.5732  3.2636  0.3376
 6628TIP3   OH244078   3.435   5.130   9.456 -0.2091  0.0882  0.2622
 6628TIP3    H144079   3.529   5.116   9.445  0.4819  3.3383  0.8515
 6628TIP3    H244080   3.424   5.149   9.549 -0.9574  2.2474 -0.2103
 6629TIP3   OH244081   0.336   6.058  10.752  0.0465  0.3168 -0.1998
 6629TIP3    H144082   0.261   6.000  10.760  1.2626 -1.3191 -0.2045
 6629TIP3    H244083   0.399   6.009  10.698  1.0582  1.7012 -0.3298
 6630TIP3   OH244084   6.170   5.579  10.393  0.4199  0.3411 -0.0608
 6630TIP3    H144085   6.220   5.512  10.346  1.0598  0.3102  0.6422
 6630TIP3    H244086   6.093   5.595  10.338  1.8327  1.3351 -1.8426
 6631TIP3   OH244087   1.922   4.359  11.509 -0.4889 -0.4590 -0.0872
 6631TIP3    H144088   1.887   4.385  11.423  0.5798 -2.4259 -1.1839
 6631TIP3    H244089   1.844   4.336  11.560 -1.0741 -0.7401 -1.0662
 6632TIP3   OH244090   3.555   3.627   9.919 -0.5402 -0.8692  0.0538
 6632TIP3    H144091   3.648   3.611   9.935  0.3519  1.5637 -1.9507
 6632TIP3    H244092   3.516   3.540   9.915  2.0207 -2.0880 -0.8625
 6633TIP3   OH244093   0.567   2.147  10.355 -0.2658  0.5404 -0.0612
 6633TIP3    H144094   0.647   2.105  10.387 -0.0911 -0.1540 -1.3180
 6633TIP3    H244095   0.580   2.240  10.371  0.4628  0.3584  0.4499
 6634TIP3   OH244096   3.442   4.958   9.867  0.4250  0.2227  0.0010
 6634TIP3    H144097   3.400   4.907   9.936  1.7864 -0.6555  0.2142
 6634TIP3    H244098   3.466   4.893   9.801  2.3692  0.5147  0.3670
 6635TIP3   OH244099   1.637   4.682   9.862  0.1382 -0.2595 -0.0833
 6635TIP3    H144100   1.724   4.670   9.901  0.6347  0.2671 -0.9664
 6635TIP3    H244101   1.656   4.714   9.773 -0.9313 -1.8223 -0.9181
 6636TIP3   OH244102   1.870   2.724  10.654 -0.5246 -0.4703 -0.4770
 6636TIP3    H144103   1.803   2.710  10.587 -0.1064 -1.4163 -0.7174
 6636TIP3    H244104   1.858   2.650  10.714  0.3109 -0.6625 -0.5328
 6637TIP3   OH244105   2.461   5.778   9.569 -0.0646  0.3832  0.0218
 6637TIP3    H144106   2.467   5.798   9.476 -0.4612  0.9708  0.1151
 6637TIP3    H244107   2.378   5.817   9.597 -1.0083 -1.6101  0.1837
 6638TIP3   OH244108   3.293   3.773  10.379 -0.2527  0.7567 -0.0190
 6638TIP3    H144109   3.350   3.841  10.415 -0.7649  0.4447  1.4601
 6638TIP3    H244110   3.287   3.707  10.449 -0.2093 -0.5553 -1.1970
 6639TIP3   OH244111   0.874   4.610  10.034 -0.3027 -0.2124 -0.3903
 6639TIP3    H144112   0.903   4.652   9.953 -1.2046  0.4799 -0.3701
 6639TIP3    H244113   0.824   4.533  10.004 -2.9759  1.5045 -0.6526
 6640TIP3   OH244114   1.267   2.607  11.443  0.3433  0.1727  0.0290
 6640TIP3    H144115   1.327   2.669  11.403 -1.8189  3.0115  0.8678
 6640TIP3    H244116   1.248   2.645  11.529 -2.3078 -0.7802 -0.0538
 6641TIP3   OH244117   4.824   3.081  12.034  0.2964  0.0862  0.5546
 6641TIP3    H144118   4.773   3.120  12.106 -0.9754 -0.2941 -0.1152
 6641TIP3    H244119   4.783   2.996  12.019  1.8885 -0.7522  0.7665
 6642TIP3   OH244120   5.726   0.636  11.073  0.3566 -0.5378 -0.2388
 6642TIP3    H144121   5.660   0.646  11.141  0.2884 -2.0484 -0.0532
 6642TIP3    H244122   5.785   0.567  11.105  0.3214 -1.2867 -1.6693
 6643TIP3   OH244123   3.267   3.036  11.533  0.3476  0.8755 -0.1582
 6643TIP3    H144124   3.210   2.972  11.490  1.3126 -1.0512  1.2662
 6643TIP3    H244125   3.356   3.005  11.516  0.8019  0.9804  1.7618
 6644TIP3   OH244126   3.483   3.166  11.157  0.7273 -0.4032 -0.3862
 6644TIP3    H144127   3.555   3.117  11.117  1.3685 -0.6292  1.0135
 6644TIP3    H244128   3.405   3.134  11.112  1.5042  0.1208 -2.1964
 6645TIP3   OH244129   4.990   4.266  10.700  0.1187 -0.1427 -0.1636
 6645TIP3    H144130   4.897   4.278  10.722  0.2612  1.6730 -0.3995
 6645TIP3    H244131   4.989   4.223  10.615 -0.5218  0.3540 -0.4179
 6646TIP3   OH244132   1.015   0.839  10.385  0.3752 -0.1378 -0.1389
 6646TIP3    H144133   1.062   0.769  10.339 -0.8821 -0.5644 -0.8401
 6646TIP3    H244134   0.951   0.870  10.321 -0.6623  0.0428  0.9543
 6647TIP3   OH244135   1.054   4.653  11.883  0.4748  0.7084  0.3643
 6647TIP3    H144136   1.133   4.599  11.884  2.5158  3.2625 -2.6346
 6647TIP3    H244137   0.996   4.611  11.819  1.8072  1.5926 -1.5174
 6648TIP3   OH244138   3.849   2.037  12.250  0.1054 -0.3891 -0.0260
 6648TIP3    H144139   3.843   1.952  12.294 -1.4449  0.3069  1.2115
 6648TIP3    H244140   3.765   2.079  12.269  1.2875  1.9001  0.4199
 6649TIP3   OH244141   2.250   3.109  11.445 -0.1443 -0.6091 -0.0864
 6649TIP3    H144142   2.340   3.139  11.427 -0.1704 -0.7343 -0.4278
 6649TIP3    H244143   2.247   3.101  11.540  0.3811 -1.1534 -0.1098
 6650TIP3   OH244144   6.074   4.340   9.367 -0.2144 -0.7954  0.0549
 6650TIP3    H144145   6.154   4.347   9.418  0.3194 -0.4595 -0.8177
 6650TIP3    H244146   6.029   4.424   9.380  0.2125 -0.4762 -0.5019
 6651TIP3   OH244147   1.109   2.078  11.391 -0.4154  0.0456  0.5789
 6651TIP3    H144148   1.038   2.040  11.341 -0.7685 -0.1792  1.2366
 6651TIP3    H244149   1.072   2.158  11.430 -0.7779 -0.8221  2.0998
 6652TIP3   OH244150   4.560   0.651  10.922 -0.0051  0.3012 -0.5462
 6652TIP3    H144151   4.606   0.716  10.868 -0.7721  0.8717 -0.5214
 6652TIP3    H244152   4.513   0.596  10.859 -0.3206  0.5188 -0.5027
 6653TIP3   OH244153   1.516   0.941  10.051  0.5893  0.0709  0.5123
 6653TIP3    H144154   1.574   0.872  10.017  0.4750  0.7893 -1.2618
 6653TIP3    H244155   1.451   0.894  10.103  0.7445 -1.1420 -0.3254
 6654TIP3   OH244156   5.574   0.362  10.033  0.4749 -0.2334  0.1519
 6654TIP3    H144157   5.660   0.376  10.072 -0.7844  0.8307  2.8152
 6654TIP3    H244158   5.537   0.450  10.026 -0.5789 -0.7118 -0.5660
 6655TIP3   OH244159   6.718   4.185   9.312  0.4649 -0.5672 -0.2385
 6655TIP3    H144160   6.790   4.223   9.262  0.5990  0.5362  0.7445
 6655TIP3    H244161   6.643   4.241   9.291 -0.4008 -2.2635 -2.0006
 6656TIP3   OH244162   2.325   4.850   9.272  0.2784 -0.6499 -0.1133
 6656TIP3    H144163   2.291   4.936   9.293  0.1552 -0.6773 -0.2006
 6656TIP3    H244164   2.355   4.814   9.356  2.0105  0.1968 -0.3232
 6657TIP3   OH244165   6.193   4.540  11.386 -0.5116  0.8887  0.4515
 6657TIP3    H144166   6.103   4.550  11.354 -0.4843  0.6033  0.2868
 6657TIP3    H244167   6.227   4.630  11.387 -0.1131  0.7918 -1.4953
 6658TIP3   OH244168   1.692   2.371  11.597 -0.2076  0.2097  0.1045
 6658TIP3    H144169   1.759   2.316  11.555  0.7865 -0.1360  2.0337
 6658TIP3    H244170   1.721   2.461  11.581  1.0505  0.0577  1.3656
 6659TIP3   OH244171   1.016   0.294  10.080 -0.1085  0.0031 -0.4123
 6659TIP3    H144172   1.025   0.345  10.160  1.3158  0.0584 -0.5867
 6659TIP3    H244173   0.987   0.207  10.109  1.7047 -0.3953  0.3123
 6660TIP3   OH244174   5.330   1.910  10.975  0.1066 -0.1705 -1.0536
 6660TIP3    H144175   5.415   1.917  10.931  0.4616 -2.6419 -0.8575
 6660TIP3    H244176   5.266   1.908  10.904  0.4588 -1.2178 -1.3553
 6661TIP3   OH244177   1.799   4.654  11.142  0.5032 -0.6341  0.0699
 6661TIP3    H144178   1.808   4.732  11.086  1.8901  0.1550  1.3140
 6661TIP3    H244179   1.708   4.626  11.130  0.4079  0.2774 -1.5587
 6662TIP3   OH244180   3.860   6.048  12.665  0.1764 -0.1919 -0.0800
 6662TIP3    H144181   3.773   6.078  12.693 -0.5425 -1.6270 -0.7123
 6662TIP3    H244182   3.843   5.988  12.594  1.7748  0.2876 -0.9085
 6663TIP3   OH244183   1.432   4.661   9.629  0.5960 -0.0646 -0.4539
 6663TIP3    H144184   1.413   4.571   9.655  0.7645 -0.6251 -2.1442
 6663TIP3    H244185   1.346   4.701   9.616  0.4966  0.3326  1.1616
 6664TIP3   OH244186   0.540   1.084   9.575  0.5944  0.0645 -0.4022
 6664TIP3    H144187   0.537   0.991   9.551  0.2016  0.3664 -1.6163
 6664TIP3    H244188   0.616   1.118   9.528 -0.2897  0.7139 -1.4159
 6665TIP3   OH244189   2.953   2.465  10.648 -0.0232 -0.1177  0.7942
 6665TIP3    H144190   2.954   2.551  10.607  0.2878 -0.3935  0.2052
 6665TIP3    H244191   2.869   2.459  10.693  0.2370  0.7628  1.4309
 6666TIP3   OH244192   0.563   3.018   9.500  1.0267  0.0121  0.0890
 6666TIP3    H144193   0.571   2.956   9.573  1.8045 -0.0752 -0.0626
 6666TIP3    H244194   0.630   2.991   9.438  0.7008  0.3943 -0.4402
 6667TIP3   OH244195   4.160   0.849  11.368  0.4355 -0.4138  0.2670
 6667TIP3    H144196   4.220   0.831  11.440  0.8454  0.4479  0.1501
 6667TIP3    H244197   4.075   0.817  11.399  0.3799  0.8954  1.5722
 6668TIP3   OH244198   4.629   4.131  11.937  0.3907  0.0595  0.3476
 6668TIP3    H144199   4.689   4.183  11.990  0.5748 -0.7572  0.9594
 6668TIP3    H244200   4.542   4.158  11.968  0.4540  0.6943 -0.0110
 6669TIP3   OH244201   5.713   5.948  11.696 -0.5970 -0.0780  0.4827
 6669TIP3    H144202   5.739   5.962  11.787 -0.1333  0.3121  0.2913
 6669TIP3    H244203   5.683   5.857  11.694 -2.4079  0.4537  1.4470
 6670TIP3   OH244204   3.928   0.237  12.425  0.3962  0.1632 -0.8164
 6670TIP3    H144205   3.833   0.249  12.425  0.5703  1.7546 -1.0057
 6670TIP3    H244206   3.962   0.320  12.392  1.7873 -1.0468 -2.5890
 6671TIP3   OH244207   0.084   6.545  10.103  0.3538 -0.1941 -0.1337
 6671TIP3    H144208   0.061   6.625  10.056 -0.2830 -0.0494  0.4115
 6671TIP3    H244209   0.006   6.490  10.096  0.2594 -0.1825  0.7163
 6672TIP3   OH244210   1.276   5.846   9.177 -0.2140 -0.2031 -0.2029
 6672TIP3    H144211   1.256   5.791   9.101 -1.4271 -0.0430 -0.0222
 6672TIP3    H244212   1.308   5.785   9.243 -3.2491 -1.0623  0.6379
 6673TIP3   OH244213   3.693   0.207  12.146 -0.2920 -0.2174  0.7729
 6673TIP3    H144214   3.684   0.293  12.188  0.3844  0.5610 -0.6166
 6673TIP3    H244215   3.652   0.146  12.208 -2.0482  1.2696  1.1448
 6674TIP3   OH244216   5.649   5.773  10.466  0.2039  0.4763  0.6040
 6674TIP3    H144217   5.579   5.809  10.412  0.4590  3.0757  1.8575
 6674TIP3    H244218   5.647   5.825  10.546  1.7489 -1.2784  1.8901
 6675TIP3   OH244219   4.373   5.900  12.303 -0.0672  0.3692  0.0068
 6675TIP3    H144220   4.429   5.969  12.338 -0.1329  0.0918  0.6600
 6675TIP3    H244221   4.410   5.819  12.337 -0.9702  0.1928  0.5929
 6676TIP3   OH244222   1.946   5.731  10.375 -0.0601 -0.0000 -0.3007
 6676TIP3    H144223   2.022   5.708  10.322  0.2681 -0.4166  0.3496
 6676TIP3    H244224   1.956   5.825  10.392 -0.4026  0.2425 -1.3398
 6677TIP3   OH244225   5.101   4.331  12.095  0.3923  0.0078  0.4649
 6677TIP3    H144226   5.048   4.386  12.153  0.3205  1.0515 -0.5585
 6677TIP3    H244227   5.055   4.247  12.094  0.1207  0.1261  1.5163
 6678TIP3   OH244228   4.751   5.847  12.134  0.2371  0.6281  0.7791
 6678TIP3    H144229   4.809   5.875  12.063  0.0641 -1.3109 -0.2056
 6678TIP3    H244230   4.796   5.873  12.214  0.7293  2.3335  0.0005
 6679TIP3   OH244231   2.038   3.890  12.393 -0.6744  0.0265 -0.3172
 6679TIP3    H144232   2.010   3.862  12.306 -1.0516  1.3881 -0.6681
 6679TIP3    H244233   1.960   3.880  12.447 -0.5959 -0.3051 -0.2652
 6680TIP3   OH244234   1.351   6.473  10.417 -0.7069 -0.1694  0.4146
 6680TIP3    H144235   1.279   6.412  10.399  0.8876 -2.2229  0.5474
 6680TIP3    H244236   1.342   6.495  10.509 -1.7329  0.4308  0.1850
 6681TIP3   OH244237   0.981   6.362  11.335  0.2811  0.0717 -0.0564
 6681TIP3    H144238   1.055   6.421  11.348 -0.8307  2.0071 -1.8287
 6681TIP3    H244239   1.020   6.283  11.299  1.5230  1.0267 -0.9064
 6682TIP3   OH244240   4.500   4.613  10.949 -0.1042 -0.4309  0.0833
 6682TIP3    H144241   4.562   4.563  10.896  1.5046 -0.7105  2.1157
 6682TIP3    H244242   4.475   4.553  11.019  1.0950  1.1925  2.0034
 6683TIP3   OH244243   6.383   1.168  10.792  0.0637  0.4783  0.0081
 6683TIP3    H144244   6.375   1.258  10.823  1.4445  0.6305 -0.0339
 6683TIP3    H244245   6.474   1.160  10.764  0.3968 -1.3618  1.3978
 6684TIP3   OH244246   3.694   3.005  11.085 -0.0971  0.2025  0.3320
 6684TIP3    H144247   3.762   3.069  11.067  1.3171 -1.3812 -0.2304
 6684TIP3    H244248   3.733   2.946  11.150 -0.4540 -1.4202 -0.8547
 6685TIP3   OH244249   2.902   3.619   9.992 -0.2379 -0.5682 -0.0746
 6685TIP3    H144250   2.959   3.656  10.059 -0.1339 -1.0927  0.1243
 6685TIP3    H244251   2.815   3.653  10.014 -0.1007 -0.2176 -0.0590
 6686TIP3   OH244252   6.511   3.328  11.584 -0.4863  0.5278  0.0292
 6686TIP3    H144253   6.571   3.399  11.606  0.7182 -0.9513  1.8600
 6686TIP3    H244254   6.568   3.261  11.545 -1.4273  0.1737 -0.7688
 6687TIP3   OH244255   0.852   0.525  11.631 -0.2859  0.5299 -1.0375
 6687TIP3    H144256   0.838   0.505  11.723 -2.7342 -3.9381 -2.1120
 6687TIP3    H244257   0.791   0.596  11.612 -0.6495  0.6665  0.5204
 6688TIP3   OH244258   2.831   3.211  12.039  0.3242 -0.3394  0.3163
 6688TIP3    H144259   2.792   3.245  11.958  0.6160 -0.2258  0.2219
 6688TIP3    H244260   2.774   3.244  12.108  0.6568  0.4171  0.2300
 6689TIP3   OH244261   3.237   4.692  10.267 -0.8378  0.3806  0.0468
 6689TIP3    H144262   3.241   4.784  10.293 -3.1738  0.6284 -0.2662
 6689TIP3    H244263   3.305   4.649  10.320 -0.0058  2.1858  0.5152
 6690TIP3   OH244264   1.581   5.371  10.387 -0.8082 -0.0743 -0.6069
 6690TIP3    H144265   1.525   5.427  10.334 -0.6814  2.1885  1.4557
 6690TIP3    H244266   1.670   5.404  10.371 -0.7414  0.4477  0.7304
 6691TIP3   OH244267   0.720   0.791   9.700  0.6148 -0.3352 -0.0173
 6691TIP3    H144268   0.729   0.885   9.717  1.7338 -0.1216 -1.5245
 6691TIP3    H244269   0.680   0.787   9.613  0.6600 -1.2495  0.0010
 6692TIP3   OH244270   5.600   0.958  10.298 -0.5983 -0.1216  0.2543
 6692TIP3    H144271   5.590   1.012  10.220  0.6027  1.5617  1.2140
 6692TIP3    H244272   5.576   1.015  10.371  0.3213 -0.9847  1.2771
 6693TIP3   OH244273   3.044   3.737  10.644 -0.6826 -0.3998 -0.6680
 6693TIP3    H144274   2.961   3.707  10.680 -0.4920 -0.6898 -0.4617
 6693TIP3    H244275   3.022   3.815  10.593 -0.8329  0.6338  0.9029
 6694TIP3   OH244276   5.159   0.621  11.770 -0.2410  0.2548 -0.6521
 6694TIP3    H144277   5.111   0.579  11.842  0.4459 -0.3083 -0.5139
 6694TIP3    H244278   5.098   0.620  11.697 -0.7449  0.3187 -0.2386
 6695TIP3   OH244279   2.942   4.985  11.764 -0.1434 -0.2343  0.3083
 6695TIP3    H144280   2.897   4.923  11.707 -0.6079  0.6330 -0.2941
 6695TIP3    H244281   2.935   4.947  11.852 -0.4045 -1.0320 -0.0504
 6696TIP3   OH244282   1.725   0.202  10.335 -0.5972 -0.2457 -0.0230
 6696TIP3    H144283   1.695   0.262  10.402 -0.6294 -0.0091 -0.2505
 6696TIP3    H244284   1.665   0.214  10.262 -2.3907 -2.5828  0.9367
 6697TIP3   OH244285   2.644   2.366   9.861  0.4236 -0.0472  0.2260
 6697TIP3    H144286   2.578   2.426   9.895  1.0300  0.7067  0.0959
 6697TIP3    H244287   2.669   2.312   9.936 -0.5921 -0.5851  0.1897
 6698TIP3   OH244288   6.224   6.396  10.739  0.1993 -0.1915  0.0988
 6698TIP3    H144289   6.173   6.343  10.678 -1.0759  0.3198  0.6793
 6698TIP3    H244290   6.304   6.345  10.753 -0.0003 -0.8729 -1.0783
 6699TIP3   OH244291   2.860   1.417   9.182 -0.0655  0.3231  0.1402
 6699TIP3    H144292   2.938   1.361   9.181 -0.7339 -0.6195 -0.0070
 6699TIP3    H244293   2.809   1.388   9.107  0.2088  2.0710 -0.7842
 6700TIP3   OH244294   0.377   6.236   9.670  0.1079 -0.4823  0.4327
 6700TIP3    H144295   0.293   6.191   9.674 -1.1341  1.6017 -0.4521
 6700TIP3    H244296   0.433   6.181   9.616 -0.5957 -2.0008  1.2080
 6701TIP3   OH244297   2.120   0.299  11.031  0.1741  0.6188  0.4235
 6701TIP3    H144298   2.196   0.335  11.076  0.8952  0.7301 -0.8350
 6701TIP3    H244299   2.066   0.262  11.101  1.3659  0.5636  1.3509
 6702TIP3   OH244300   2.922   4.380   9.378  0.1959 -0.2582  0.1093
 6702TIP3    H144301   2.974   4.304   9.351 -0.4246 -0.8279  0.4679
 6702TIP3    H244302   2.834   4.362   9.343 -0.2595 -0.3171  1.2429
 6703TIP3   OH244303   4.535   0.167  12.263  0.3812  0.4862 -0.1472
 6703TIP3    H144304   4.614   0.114  12.251  0.4814  0.8354 -1.0398
 6703TIP3    H244305   4.562   0.237  12.321  0.8047  0.7620 -0.6709
 6704TIP3   OH244306   6.530   0.827  11.271 -0.2533  0.5889  0.5658
 6704TIP3    H144307   6.525   0.739  11.233  0.1539  1.2910 -1.2301
 6704TIP3    H244308   6.462   0.828  11.339  0.7184 -1.5587  1.6582
 6705TIP3   OH244309   3.271   3.100  10.193  0.4268 -0.2824 -0.1541
 6705TIP3    H144310   3.182   3.078  10.163  0.5760  1.2697 -1.9462
 6705TIP3    H244311   3.324   3.026  10.165  0.1575  0.1191 -1.8466
 6706TIP3   OH244312   4.896   0.742  11.284  0.3879  0.2289 -0.4742
 6706TIP3    H144313   4.830   0.698  11.230  0.3064  0.7859 -0.8348
 6706TIP3    H244314   4.975   0.740  11.231  1.3554 -2.5239  0.8766
 6707TIP3   OH244315   2.053   2.835  10.492  0.0104 -0.0435  0.4314
 6707TIP3    H144316   2.000   2.801  10.564  1.1999 -1.6064  0.6390
 6707TIP3    H244317   2.071   2.926  10.516 -0.5037 -0.2216  1.5796
 6708TIP3   OH244318   5.870   1.709  11.469 -0.5959  0.2053 -0.0816
 6708TIP3    H144319   5.952   1.677  11.505 -1.7337  0.0112  2.5879
 6708TIP3    H244320   5.853   1.651  11.394  1.2623 -0.2688 -0.1839
 6709TIP3   OH244321   1.135   6.050  11.004 -0.1197 -0.4717  0.0360
 6709TIP3    H144322   1.149   6.105  10.928  0.6383 -0.7009  0.0014
 6709TIP3    H244323   1.180   6.095  11.075 -0.0814 -0.6964  0.1559
 6710TIP3   OH244324   4.254   4.359  12.903 -0.4984 -0.6684  0.2791
 6710TIP3    H144325   4.171   4.394  12.935  0.0399 -0.1749  1.1725
 6710TIP3    H244326   4.242   4.264  12.903 -1.0806 -0.5989  0.3214
 6711TIP3   OH244327   5.970   0.526  12.080 -0.6193  0.2137 -0.4323
 6711TIP3    H144328   6.065   0.533  12.089 -0.7199 -0.0512  1.2338
 6711TIP3    H244329   5.957   0.474  12.001  0.6492 -0.5643 -0.1567
 6712TIP3   OH244330   2.601   3.314   9.626  0.1117  0.2983  0.3880
 6712TIP3    H144331   2.608   3.409   9.633  1.3686  0.2825 -0.4332
 6712TIP3    H244332   2.514   3.299   9.589  0.7454  1.2557 -1.5799
 6713TIP3   OH244333   5.728   4.872  12.428  0.1654 -0.1874  0.3631
 6713TIP3    H144334   5.799   4.937  12.434  0.4956 -0.6369  1.8840
 6713TIP3    H244335   5.659   4.917  12.380  0.9179  0.8038  0.1609
 6714TIP3   OH244336   2.182   3.357  11.886  0.1637  0.0889 -0.3470
 6714TIP3    H144337   2.254   3.402  11.930  1.5883 -0.6564 -1.8096
 6714TIP3    H244338   2.162   3.412  11.810 -0.8780  0.3061  0.0578
 6715TIP3   OH244339   1.508   3.404  12.160 -0.0891 -0.5483 -0.0903
 6715TIP3    H144340   1.419   3.394  12.125 -0.7873  0.8989  1.1773
 6715TIP3    H244341   1.516   3.334  12.225 -0.2473 -0.7539 -0.2894
 6716TIP3   OH244342   4.161   4.401  11.519 -0.5967  1.1576 -0.2367
 6716TIP3    H144343   4.100   4.468  11.549 -0.8824  0.6402  0.3655
 6716TIP3    H244344   4.107   4.322  11.511 -0.0988  0.8042 -0.1267
 6717TIP3   OH244345   0.845   3.438  10.688  0.3145 -0.0105 -0.2145
 6717TIP3    H144346   0.771   3.498  10.682  0.7960  0.8250  1.5187
 6717TIP3    H244347   0.907   3.482  10.746  0.9100 -1.9510  0.7098
 6718TIP3   OH244348   3.030   3.888  12.883  0.0182  0.0880 -0.1597
 6718TIP3    H144349   3.011   3.802  12.921  0.7690 -0.0578 -0.1050
 6718TIP3    H244350   3.109   3.874  12.831 -0.3633  0.5399 -0.8892
 6719TIP3   OH244351   1.087   4.886  13.002  0.1908  0.1663  0.3943
 6719TIP3    H144352   1.137   4.814  12.964 -0.4183 -0.8329  1.4222
 6719TIP3    H244353   1.081   4.951  12.932 -1.3497 -1.8066 -1.4459
 6720TIP3   OH244354   2.840   6.663  10.597  0.2625 -0.2011 -0.6638
 6720TIP3    H144355   2.865   6.744  10.642 -0.3116 -0.2789 -0.1898
 6720TIP3    H244356   2.748   6.651  10.621  0.8536 -2.0816  0.9616
 6721TIP3   OH244357   2.052   4.271  12.247  0.1377  0.1623 -0.1684
 6721TIP3    H144358   2.023   4.190  12.204 -0.6778  0.6702 -0.6012
 6721TIP3    H244359   2.126   4.301  12.195  1.9299 -1.4562  1.2777
 6722TIP3   OH244360   1.754   6.695  10.814  0.4582  0.7086 -0.8898
 6722TIP3    H144361   1.845   6.693  10.784  0.3798  2.2309 -1.3057
 6722TIP3    H244362   1.744   6.782  10.853 -0.0640 -0.3894  1.6188
 6723TIP3   OH244363   5.214   5.287   9.725  0.3978 -0.4051 -0.0147
 6723TIP3    H144364   5.189   5.367   9.771  0.9481 -1.1851  1.7532
 6723TIP3    H244365   5.297   5.261   9.766 -0.1508 -2.2751  0.0126
 6724TIP3   OH244366   5.257   5.309  11.288 -0.1019  0.7785 -0.3102
 6724TIP3    H144367   5.316   5.328  11.361 -0.1015 -2.1851  0.5988
 6724TIP3    H244368   5.170   5.324  11.324 -0.0522  1.3753 -0.4180
 6725TIP3   OH244369   4.438   4.609   9.894 -0.1020  0.1327  0.3626
 6725TIP3    H144370   4.378   4.645   9.960 -0.2451 -1.4136  1.1220
 6725TIP3    H244371   4.382   4.588   9.819 -0.1714  0.5685  0.2909
 6726TIP3   OH244372   2.796   1.379  10.384 -0.0393  0.1579  0.7819
 6726TIP3    H144373   2.790   1.379  10.288  0.2469 -2.0363  0.7162
 6726TIP3    H244374   2.879   1.423  10.402  0.3842 -0.2647 -0.0408
 6727TIP3   OH244375   6.350   0.055  11.371 -0.1969 -0.9663 -0.2750
 6727TIP3    H144376   6.416   0.042  11.302 -0.9279 -1.7677 -0.8350
 6727TIP3    H244377   6.328   0.148  11.365  1.5734 -0.4446  0.5710
 6728TIP3   OH244378   1.563   5.138  11.709  0.0647  0.2023 -0.5263
 6728TIP3    H144379   1.591   5.223  11.743 -1.0317  0.4651 -0.2713
 6728TIP3    H244380   1.487   5.157  11.654  0.0473 -0.5663 -0.7829
 6729TIP3   OH244381   1.286   3.956  10.280  0.4009  0.4413  0.1319
 6729TIP3    H144382   1.350   3.914  10.337 -0.2038 -0.0267  0.4736
 6729TIP3    H244383   1.203   3.915  10.302 -0.6241  3.1887  1.9830
 6730TIP3   OH244384   4.463   3.514   9.535 -0.0650 -0.4208  0.0412
 6730TIP3    H144385   4.411   3.506   9.615  0.1503  0.6670  0.3020
 6730TIP3    H244386   4.485   3.424   9.512 -1.8316 -0.8935  0.0684
 6731TIP3   OH244387   0.065   5.112   9.886  0.0450 -0.1038 -0.3713
 6731TIP3    H144388   0.002   5.178   9.858 -0.1369 -0.4585 -0.8146
 6731TIP3    H244389   0.012   5.038   9.914  0.2348  0.1520  0.6852
 6732TIP3   OH244390   1.520   3.029  11.180 -0.3618  0.6364 -0.0884
 6732TIP3    H144391   1.581   3.059  11.247  0.0922  1.4755 -0.8485
 6732TIP3    H244392   1.446   3.090  11.187 -0.7341  0.1459  0.2674
 6733TIP3   OH244393   0.363   4.071  10.455  0.1405 -0.4432 -0.2212
 6733TIP3    H144394   0.404   4.152  10.425 -0.6724 -0.3163 -1.0238
 6733TIP3    H244395   0.402   4.056  10.541  2.3348 -0.6820 -1.1938
 6734TIP3   OH244396   4.581   3.384  11.668  0.2194 -0.0578 -0.2159
 6734TIP3    H144397   4.661   3.370  11.718 -0.9567 -1.2429  1.4326
 6734TIP3    H244398   4.535   3.300  11.672  0.0445 -0.2467 -3.3615
 6735TIP3   OH244399   1.386   5.479   9.299  0.0804 -0.3345 -0.2455
 6735TIP3    H144400   1.440   5.535   9.243 -2.7878  1.3657 -1.5318
 6735TIP3    H244401   1.377   5.528   9.381  2.0250 -1.5612  0.7742
 6736TIP3   OH244402   0.446   6.736  11.201 -0.2907 -0.0339  0.0085
 6736TIP3    H144403   0.354   6.753  11.180 -0.4230  0.4271  0.9077
 6736TIP3    H244404   0.445   6.652  11.247 -0.4352  0.5377  1.0931
 6737TIP3   OH244405   3.041   1.516  10.343 -0.0932 -0.0858 -0.3746
 6737TIP3    H144406   3.069   1.452  10.278  0.3047 -0.1507 -0.1451
 6737TIP3    H244407   3.121   1.564  10.365 -0.4868  0.8352 -0.9224
 6738TIP3   OH244408   4.759   5.902  10.017  0.5439 -0.0473  0.7669
 6738TIP3    H144409   4.779   5.933   9.929 -2.1103  2.2172  0.8078
 6738TIP3    H244410   4.757   5.806  10.008  1.1563  0.0779 -1.4153
 6739TIP3   OH244411   5.813   4.389  13.281 -0.8854  0.1557  0.4706
 6739TIP3    H144412   5.902   4.378  13.314  0.9561  2.7262 -3.0103
 6739TIP3    H244413   5.795   4.307  13.234 -0.4210 -0.3853  1.1949
 6740TIP3   OH244414   2.236   2.656  12.296 -0.3281  0.2513  0.0592
 6740TIP3    H144415   2.311   2.613  12.255 -1.7870 -0.4394 -2.0715
 6740TIP3    H244416   2.199   2.591  12.354  2.1540  1.4527  3.3036
 6741TIP3   OH244417   4.418   3.541  10.079  0.5758 -0.2227  0.0904
 6741TIP3    H144418   4.444   3.605  10.013  1.8841 -1.8453 -1.0625
 6741TIP3    H244419   4.349   3.585  10.129  1.9494  2.3706 -0.0979
 6742TIP3   OH244420   3.770   6.618  12.206 -0.3740 -0.0663  0.1488
 6742TIP3    H144421   3.805   6.530  12.192 -1.2053 -0.2898 -0.6645
 6742TIP3    H244422   3.720   6.637  12.127 -0.2026  1.1508  0.3102
 6743TIP3   OH244423   4.345   5.077  12.853 -0.1983 -0.2427  0.1165
 6743TIP3    H144424   4.370   5.122  12.934 -1.0153  0.7637 -0.1715
 6743TIP3    H244425   4.397   4.997  12.854  0.9995  0.5003  0.8543
 6744TIP3   OH244426   3.364   2.475  11.787  0.0991 -0.1674 -0.7350
 6744TIP3    H144427   3.367   2.386  11.821  0.9620 -0.7094 -2.1621
 6744TIP3    H244428   3.354   2.530  11.865 -2.0575 -1.5660  0.0627
 6745TIP3   OH244429   2.346   4.291   9.784 -0.1871  0.5987 -0.0833
 6745TIP3    H144430   2.415   4.225   9.781  0.9827  1.8153 -0.5914
 6745TIP3    H244431   2.279   4.258   9.723  0.6229  0.1420 -0.7391
 6746TIP3   OH244432   2.435   1.256   9.384  0.1677 -0.2612 -0.0020
 6746TIP3    H144433   2.389   1.327   9.340  0.7713  0.1399  0.0070
 6746TIP3    H244434   2.387   1.177   9.357 -0.1685  0.0867 -0.4539
 6747TIP3   OH244435   6.676   5.378  11.212 -0.2282 -0.4487 -0.0404
 6747TIP3    H144436   6.662   5.346  11.302 -0.1801  0.2089  0.2046
 6747TIP3    H244437   6.588   5.383  11.174 -0.1781 -1.5971 -0.3401
 6748TIP3   OH244438   4.220   3.772  12.100  0.2897  0.0257  0.1964
 6748TIP3    H144439   4.210   3.680  12.074  1.9581  0.1782 -1.1544
 6748TIP3    H244440   4.209   3.821  12.018  0.7884  0.9237  0.6495
 6749TIP3   OH244441   3.152   3.802   9.361  0.0639 -0.3605  0.0488
 6749TIP3    H144442   3.085   3.830   9.299 -1.5875  2.1238  2.6660
 6749TIP3    H244443   3.109   3.734   9.413  1.3370 -2.2338 -1.2408
 6750TIP3   OH244444   1.291   5.303  11.813  0.3406 -0.4920  0.5253
 6750TIP3    H144445   1.211   5.250  11.813  0.2879 -0.4146  0.4163
 6750TIP3    H244446   1.315   5.309  11.721 -0.4701  0.8789  0.3750
 6751TIP3   OH244447   6.688   3.716  10.170 -0.2486 -0.1481  0.6728
 6751TIP3    H144448   6.766   3.718  10.114 -0.3480 -1.1269  0.4761
 6751TIP3    H244449   6.626   3.775  10.127 -0.1100 -0.4356  0.0616
 6752TIP3   OH244450   3.259   3.662  10.794  0.0335 -1.0745 -0.4585
 6752TIP3    H144451   3.184   3.691  10.742  0.9826  0.6809 -0.9230
 6752TIP3    H244452   3.312   3.612  10.732 -1.0126 -2.8670  0.0313
 6753TIP3   OH244453   0.129   1.797   9.921  0.3936 -0.4465 -0.2509
 6753TIP3    H144454   0.085   1.775   9.839  0.1486 -0.5588 -0.0864
 6753TIP3    H244455   0.216   1.758   9.912  0.0853 -1.1630 -0.1103
 6754TIP3   OH244456   5.784   3.148   9.358 -0.0458 -0.2640 -0.7818
 6754TIP3    H144457   5.851   3.212   9.334  0.6591 -1.2450 -1.5126
 6754TIP3    H244458   5.832   3.079   9.404 -0.7816 -0.3279 -0.0823
 6755TIP3   OH244459   3.226   4.223  10.264 -0.6067 -0.4406 -0.1820
 6755TIP3    H144460   3.254   4.172  10.188 -0.0278 -0.9224  0.3460
 6755TIP3    H244461   3.306   4.264  10.296 -1.1246  1.1239 -0.8186
 6756TIP3   OH244462   0.589   3.319  11.766  0.1224  0.1577 -0.3994
 6756TIP3    H144463   0.626   3.232  11.751  1.0784  0.7817 -1.8943
 6756TIP3    H244464   0.664   3.377  11.773 -0.5093  0.9290  0.3065
 6757TIP3   OH244465   0.167   4.278  10.458  0.5375  0.3110  0.0987
 6757TIP3    H144466   0.234   4.214  10.435 -0.1403  0.0609 -1.2432
 6757TIP3    H244467   0.216   4.359  10.476  1.1645  0.4213 -1.9071
 6758TIP3   OH244468   2.072   2.831  10.052  0.2213  0.0057 -0.3274
 6758TIP3    H144469   2.104   2.790  10.133 -0.0677 -0.9885 -0.7052
 6758TIP3    H244470   2.117   2.784   9.982  0.6514  1.0176 -0.7642
 6759TIP3   OH244471   5.612   4.724  10.073 -0.2794  0.0631 -0.0300
 6759TIP3    H144472   5.637   4.767  10.155 -1.2532 -0.3276  0.4829
 6759TIP3    H244473   5.556   4.652  10.099  0.1548 -0.6532 -0.9876
 6760TIP3   OH244474   2.619   1.370  11.514 -0.6773  0.4842  0.3829
 6760TIP3    H144475   2.653   1.435  11.452 -1.2650  0.5008  0.0636
 6760TIP3    H244476   2.655   1.287  11.483 -1.2896  0.4372 -0.2390
 6761TIP3   OH244477   5.954   1.779   9.588 -0.3459 -0.0425  0.2837
 6761TIP3    H144478   5.934   1.697   9.542  2.2617 -0.5322 -0.1479
 6761TIP3    H244479   6.007   1.752   9.662  0.7468  1.2475  0.0090
 6762TIP3   OH244480   0.458   3.408  11.519 -0.2110  0.4610  0.0053
 6762TIP3    H144481   0.525   3.472  11.497  1.5784 -1.1418  0.4733
 6762TIP3    H244482   0.490   3.366  11.599 -1.4731 -0.7593 -0.0799
 6763TIP3   OH244483   0.141   5.115  10.399  0.3461 -0.6037  0.0285
 6763TIP3    H144484   0.071   5.092  10.460  0.9590 -2.7964  0.0131
 6763TIP3    H244485   0.096   5.139  10.318 -0.4214  0.2582  0.7065
 6764TIP3   OH244486   4.323   1.407  11.546  0.3302 -0.0411 -0.1225
 6764TIP3    H144487   4.291   1.413  11.455 -0.2836 -1.9551 -0.0795
 6764TIP3    H244488   4.325   1.313  11.564  2.1356  0.2218  1.2842
 6765TIP3   OH244489   3.237   4.969  10.279 -0.2828 -0.1212 -0.1919
 6765TIP3    H144490   3.223   5.060  10.303 -1.0344  0.1824 -1.6928
 6765TIP3    H244491   3.329   4.965  10.251 -0.4004  0.3088 -0.6558
 6766TIP3   OH244492   4.129   2.540  10.984 -0.0022 -0.8920  0.2217
 6766TIP3    H144493   4.068   2.576  10.919  1.2135 -0.3570 -0.6494
 6766TIP3    H244494   4.077   2.475  11.031 -1.4459  0.0161 -0.0411
 6767TIP3   OH244495   1.051   6.168  12.320 -0.4819 -0.0504 -0.0709
 6767TIP3    H144496   1.038   6.076  12.295 -0.1108 -0.0413 -0.3051
 6767TIP3    H244497   0.983   6.215  12.273  0.4456  0.0193 -1.4196
 6768TIP3   OH244498   1.757   1.440  10.027 -0.1619  0.3339 -0.3244
 6768TIP3    H144499   1.848   1.442  10.056 -0.2689 -0.1789  0.0804
 6768TIP3    H244500   1.746   1.518   9.974  0.3661  0.6933  0.0876
 6769TIP3   OH244501   3.516   2.457  11.474  0.0423 -0.3008 -0.4065
 6769TIP3    H144502   3.574   2.461  11.550  0.0953 -2.9718 -0.2241
 6769TIP3    H244503   3.432   2.429  11.510 -1.0107  1.9855 -0.8911
 6770TIP3   OH244504   4.973   1.493  11.619 -0.5884  0.3242 -0.1427
 6770TIP3    H144505   5.013   1.520  11.702 -0.3000 -0.3069 -0.0757
 6770TIP3    H244506   5.043   1.449  11.572 -0.8113  0.4914 -0.6383
 6771TIP3   OH244507   5.608   4.677  11.585 -0.1947 -0.2024 -0.1903
 6771TIP3    H144508   5.654   4.724  11.655 -0.9743  0.7525 -0.2979
 6771TIP3    H244509   5.598   4.588  11.619  1.1719 -0.2821  0.0866
 6772TIP3   OH244510   1.201   4.074  10.047 -0.4318 -0.4277  0.1434
 6772TIP3    H144511   1.109   4.097  10.062 -0.7207 -1.9485  0.9162
 6772TIP3    H244512   1.230   4.036  10.130 -0.0387 -2.8636 -1.0389
 6773TIP3   OH244513   6.119   4.659   9.870 -0.2541  0.3954  0.1748
 6773TIP3    H144514   6.037   4.624   9.906 -0.2760  0.0952 -0.1637
 6773TIP3    H244515   6.133   4.740   9.918 -0.6922  0.3914  0.3154
 6774TIP3   OH244516   0.690   2.374  10.072 -0.2765 -0.5479 -0.3440
 6774TIP3    H144517   0.689   2.367  10.168  0.5412 -0.7888 -0.3456
 6774TIP3    H244518   0.626   2.443  10.053 -1.3908 -1.3726  0.2809
 6775TIP3   OH244519   5.545   1.948  11.497  0.3799  0.2165  0.0194
 6775TIP3    H144520   5.641   1.941  11.499  0.2654 -1.9273  0.4818
 6775TIP3    H244521   5.520   1.906  11.415 -0.2312 -1.4195  0.9793
 6776TIP3   OH244522   1.675   3.774  10.827 -0.0721 -0.2285 -0.4160
 6776TIP3    H144523   1.701   3.694  10.872  1.4415 -0.1295 -1.0368
 6776TIP3    H244524   1.746   3.791  10.765 -0.4520  1.4721 -0.4533
 6777TIP3   OH244525   2.652   4.612  11.210  0.1133 -0.3820  0.3860
 6777TIP3    H144526   2.652   4.686  11.271  0.1310  0.1861 -0.2887
 6777TIP3    H244527   2.744   4.602  11.185  0.0039 -0.0998 -0.1461
 6778TIP3   OH244528   3.635   0.007  11.826  0.0026  0.4376  0.2579
 6778TIP3    H144529   3.564   0.055  11.869 -0.1521 -0.6370  1.2574
 6778TIP3    H244530   3.715   0.039  11.867 -0.1082 -0.2211  1.0078
 6779TIP3   OH244531   5.296   2.519   9.402  0.2342 -0.2674  0.0457
 6779TIP3    H144532   5.246   2.446   9.367 -1.4034  0.1915  1.3338
 6779TIP3    H244533   5.324   2.568   9.324 -1.9370 -0.1517 -0.7255
 6780TIP3   OH244534   1.716   6.301  11.668  0.2565  0.2107  0.2308
 6780TIP3    H144535   1.701   6.340  11.754  1.1752 -0.7035  0.8252
 6780TIP3    H244536   1.785   6.355  11.629  1.1265 -0.4538  0.8208
 6781TIP3   OH244537   0.822   6.705  10.920  0.0308  0.5794  0.5244
 6781TIP3    H144538   0.727   6.701  10.934  0.1187 -0.3426  0.8995
 6781TIP3    H244539   0.832   6.763  10.844 -0.8486  0.4339  0.2831
 6782TIP3   OH244540   1.665   5.866  10.766 -0.1738 -0.2720 -0.0842
 6782TIP3    H144541   1.761   5.870  10.773 -0.2751 -0.7335  2.1093
 6782TIP3    H244542   1.646   5.773  10.758 -0.4319 -0.1318 -1.3117
 6783TIP3   OH244543   4.828   1.657  10.918  0.2950 -0.0538  0.6233
 6783TIP3    H144544   4.880   1.578  10.934 -1.6787 -1.7852 -0.9860
 6783TIP3    H244545   4.806   1.689  11.006  1.3795 -1.0988  1.3067
 6784TIP3   OH244546   3.440   1.154   9.579  0.0055 -0.5255  0.0342
 6784TIP3    H144547   3.467   1.236   9.619 -0.9333  0.2162 -0.7899
 6784TIP3    H244548   3.521   1.106   9.563  0.7226  0.9335 -0.9179
 6785TIP3   OH244549   2.335   3.084   9.257  0.1649 -0.2133 -0.0884
 6785TIP3    H144550   2.396   3.027   9.304 -0.5804 -0.6055  0.4180
 6785TIP3    H244551   2.391   3.148   9.214  0.8805  0.0371  1.1716
 6786TIP3   OH244552   2.145   4.049  11.183 -0.0744 -0.0077 -0.6773
 6786TIP3    H144553   2.149   4.075  11.275 -0.7335 -1.2443 -0.2718
 6786TIP3    H244554   2.144   4.131  11.134 -1.4935  0.7339  0.5069
 6787TIP3   OH244555   1.712   0.063  11.618 -0.5958 -0.2155 -0.6205
 6787TIP3    H144556   1.648   0.132  11.638 -0.3139  0.2233 -1.1878
 6787TIP3    H244557   1.784   0.110  11.575 -0.6603 -0.9536 -1.5494
 6788TIP3   OH244558   3.241   2.807  12.249 -0.7773 -0.2368  0.2976
 6788TIP3    H144559   3.247   2.713  12.265 -1.5159 -0.4180 -0.4493
 6788TIP3    H244560   3.160   2.834  12.292 -0.6746  0.0200  0.3316
 6789TIP3   OH244561   4.817   2.616   9.082  0.7145 -0.2609 -0.3493
 6789TIP3    H144562   4.775   2.630   8.997 -0.2126 -0.9043 -0.0080
 6789TIP3    H244563   4.903   2.657   9.072  0.1328  0.8342 -1.1569
 6790TIP3   OH244564   0.072   4.399  10.033  0.3222 -0.4016  0.3639
 6790TIP3    H144565   0.010   4.402   9.960  0.7018  3.1593 -0.0112
 6790TIP3    H244566   0.156   4.381   9.993  0.7590  2.8327 -0.4634
 6791TIP3   OH244567   3.050   2.462   9.900 -0.1283  0.7750  0.2177
 6791TIP3    H144568   3.080   2.445   9.990 -0.7348  1.2135  0.5055
 6791TIP3    H244569   3.124   2.435   9.845 -0.2261 -0.7369  0.7633
 6792TIP3   OH244570   4.509   1.009  11.335  0.0429 -0.0126  0.4655
 6792TIP3    H144571   4.577   0.943  11.343  0.9657  0.5528 -1.7589
 6792TIP3    H244572   4.457   0.980  11.260  0.0401  1.3957 -0.1028
 6793TIP3   OH244573   6.067   2.133  11.494 -0.4730 -0.5423 -0.1613
 6793TIP3    H144574   6.011   2.074  11.544 -2.1610  0.7416 -0.4682
 6793TIP3    H244575   6.146   2.143  11.548 -1.9531  0.2595  1.9741
 6794TIP3   OH244576   1.727   1.543  10.905  0.0616 -0.3329 -1.0677
 6794TIP3    H144577   1.741   1.608  10.973  3.4971  0.2003 -2.0670
 6794TIP3    H244578   1.775   1.466  10.936 -0.2202 -0.8469 -1.8738
 6795TIP3   OH244579   4.784   6.636  11.582  0.2749 -0.4040 -0.0811
 6795TIP3    H144580   4.783   6.589  11.499  0.3170  1.3409 -1.1181
 6795TIP3    H244581   4.692   6.638  11.609  0.2090 -0.6513 -0.2804
 6796TIP3   OH244582   6.673   2.403  11.193 -0.1630 -0.5127  0.0362
 6796TIP3    H144583   6.588   2.443  11.210  0.4887  1.5335 -1.1674
 6796TIP3    H244584   6.679   2.332  11.256 -1.7309  0.8498  1.8485
 6797TIP3   OH244585   3.795   5.100  11.265  0.0458 -0.2684 -0.0671
 6797TIP3    H144586   3.787   5.023  11.208  0.4854 -0.0197 -0.4684
 6797TIP3    H244587   3.879   5.139  11.242 -0.4170  0.6488 -0.2655
 6798TIP3   OH244588   2.719   5.539   9.752 -0.3358  0.1929  0.2929
 6798TIP3    H144589   2.732   5.444   9.750 -1.3656 -0.0942  2.8790
 6798TIP3    H244590   2.736   5.563   9.843 -1.4155  2.2753 -0.0068
 6799TIP3   OH244591   1.562   4.963  11.327 -1.4220  0.7546  0.3097
 6799TIP3    H144592   1.590   5.008  11.246  0.5612 -1.3011 -0.2627
 6799TIP3    H244593   1.580   5.026  11.396 -1.6097  1.9617 -0.6963
 6800TIP3   OH244594   4.109   5.318  11.829  0.7240  0.1631 -0.0675
 6800TIP3    H144595   4.082   5.361  11.748  2.8883  1.9041  0.0549
 6800TIP3    H244596   4.118   5.225  11.805 -0.9332  0.2407 -1.1608
 6801TIP3   OH244597   1.875   6.488  11.552  0.2296 -0.1805  0.8102
 6801TIP3    H144598   1.874   6.549  11.625 -1.7969  0.5854  0.2299
 6801TIP3    H244599   1.878   6.544  11.474  1.1199 -0.9318  0.2821
 6802TIP3   OH244600   4.394   3.311  10.870 -0.0346  0.3547 -0.0855
 6802TIP3    H144601   4.379   3.270  10.784 -1.1208 -0.4518  0.4659
 6802TIP3    H244602   4.488   3.301  10.885  0.5820  2.3545 -2.0765
 6803TIP3   OH244603   4.238   3.539  11.956  0.2379  0.3336  0.1876
 6803TIP3    H144604   4.213   3.469  12.016 -0.0899  0.3540  0.0782
 6803TIP3    H244605   4.231   3.500  11.869 -1.0204  0.8120  0.0575
 6804TIP3   OH244606   6.650   2.640   9.399 -0.1372  0.6047  0.0513
 6804TIP3    H144607   6.624   2.675   9.314 -2.2879  1.0061  0.8340
 6804TIP3    H244608   6.569   2.610   9.439  0.6297  1.5177  2.4650
 6805TIP3   OH244609   5.872   1.250  10.679  0.2723  0.2990  0.4757
 6805TIP3    H144610   5.861   1.157  10.696 -0.5340  0.1403 -0.8444
 6805TIP3    H244611   5.820   1.293  10.747  1.3457 -0.1460  1.6385
 6806TIP3   OH244612   1.586   2.632  12.805 -0.0960  0.2855  0.1969
 6806TIP3    H144613   1.632   2.687  12.869  0.9127  0.6694 -0.8096
 6806TIP3    H244614   1.555   2.694  12.739 -1.8592 -0.0035  0.7040
 6807TIP3   OH244615   1.103   0.052   9.838 -0.8909 -0.9392 -0.0530
 6807TIP3    H144616   1.013   0.083   9.828 -0.9570 -0.9427  0.4806
 6807TIP3    H244617   1.095  -0.029   9.889 -0.7296 -1.9437 -1.5753
 6808TIP3   OH244618   2.527   1.246  10.715  0.6589  0.0008 -0.7375
 6808TIP3    H144619   2.540   1.339  10.698 -1.9875  0.6242  0.1200
 6808TIP3    H244620   2.600   1.202  10.671  2.6555  2.5264 -0.1404
 6809TIP3   OH244621   6.223   4.615  11.028 -0.0638 -0.0423 -0.1551
 6809TIP3    H144622   6.202   4.545  11.089  0.9154 -0.1593  0.0785
 6809TIP3    H244623   6.154   4.612  10.962 -0.6605 -0.4733  0.4754
 6810TIP3   OH244624   4.458   2.342  11.539  0.0805  0.4479  0.2249
 6810TIP3    H144625   4.362   2.343  11.547 -0.0997 -0.0251 -1.4644
 6810TIP3    H244626   4.474   2.326  11.446  1.8151 -1.3869  0.7781
 6811TIP3   OH244627   1.521   3.712  11.189 -0.1286 -0.4175 -0.7988
 6811TIP3    H144628   1.441   3.719  11.240 -0.5552 -2.3033 -1.1424
 6811TIP3    H244629   1.493   3.676  11.105  0.9326  0.0098 -1.3533
 6812TIP3   OH244630   4.332   2.997  11.876  0.4234 -0.1475  0.4312
 6812TIP3    H144631   4.240   3.023  11.887  0.5292 -0.1919  1.4791
 6812TIP3    H244632   4.329   2.902  11.865  0.2902 -0.0655 -0.3123
 6813TIP3   OH244633   0.310   4.513  11.528  0.0090  0.1576 -0.6896
 6813TIP3    H144634   0.259   4.594  11.537 -0.9564 -0.3203 -1.6368
 6813TIP3    H244635   0.401   4.540  11.541 -0.4112  1.1602  0.3070
 6814TIP3   OH244636   0.016   5.272  11.908  0.6155  0.0208 -0.1062
 6814TIP3    H144637   0.047   5.189  11.943 -0.3078  0.0847  0.9384
 6814TIP3    H244638  -0.080   5.266  11.914  0.5509  1.5533  0.9952
 6815TIP3   OH244639   4.836   1.640  10.458 -0.0227  0.2845 -0.0547
 6815TIP3    H144640   4.803   1.692  10.384 -0.8525 -1.2774 -0.8334
 6815TIP3    H244641   4.818   1.694  10.535  1.6444  2.3343 -1.0060
 6816TIP3   OH244642   1.546   5.980  10.437  0.1807 -0.4472  1.0172
 6816TIP3    H144643   1.626   6.003  10.391 -0.3913  0.7011  0.5661
 6816TIP3    H244644   1.525   5.892  10.406  0.8187 -0.4284  0.5114
 6817TIP3   OH244645   5.893   0.876  12.106  0.1250  0.2259 -0.1839
 6817TIP3    H144646   5.845   0.937  12.050  2.0264  1.7927 -0.2448
 6817TIP3    H244647   5.899   0.921  12.190  0.8955 -0.2107  0.0044
 6818TIP3   OH244648   3.132   0.772   9.787 -0.2451  0.2565  0.3322
 6818TIP3    H144649   3.211   0.793   9.837 -0.2118 -0.9973  0.8325
 6818TIP3    H244650   3.095   0.696   9.831 -1.5226  0.5798 -0.1441
 6819TIP3   OH244651   5.605   1.613  10.763  0.4882  0.4821 -0.3220
 6819TIP3    H144652   5.613   1.703  10.794  1.5237 -0.0372  1.0174
 6819TIP3    H244653   5.665   1.607  10.689  0.1226  0.9914 -0.6602
 6820TIP3   OH244654   5.458   6.447  10.557  0.1339  0.2013  0.2090
 6820TIP3    H144655   5.532   6.498  10.588 -0.5546  1.1376  0.3630
 6820TIP3    H244656   5.427   6.493  10.479  0.5493 -0.9547 -0.6726
 6821TIP3   OH244657   3.016   3.099  10.069  0.0716  0.5865  0.2191
 6821TIP3    H144658   2.945   3.048  10.030 -0.4461  1.2694  0.2614
 6821TIP3    H244659   2.973   3.176  10.106  0.8218  0.9525  0.3422
 6822TIP3   OH244660   1.531   2.532  10.888  0.1054 -0.0299 -0.2165
 6822TIP3    H144661   1.460   2.471  10.869 -0.4706  0.2812  0.8390
 6822TIP3    H244662   1.587   2.529  10.811 -0.1201 -1.5801 -0.3450
 6823TIP3   OH244663   2.211   0.990   9.823 -0.2215 -0.1815  0.4301
 6823TIP3    H144664   2.164   1.002   9.905 -0.3919  0.5779  0.2235
 6823TIP3    H244665   2.194   1.069   9.773 -1.1140 -1.1253 -0.8363
 6824TIP3   OH244666   0.064   1.714  20.287  0.1376 -0.1615  0.7270
 6824TIP3    H144667  -0.024   1.727  20.252  0.0680 -0.3795  0.8156
 6824TIP3    H244668   0.111   1.795  20.268  0.3171 -0.5312 -0.5379
 6825TIP3   OH244669   5.186   3.760  11.455 -0.1027  0.6572  0.0684
 6825TIP3    H144670   5.226   3.675  11.437 -0.9926  0.1695  0.3439
 6825TIP3    H244671   5.177   3.763  11.550  0.1427  1.1687  0.0804
 6826TIP3   OH244672   4.835   0.894   9.898 -0.7270 -0.2813  0.1093
 6826TIP3    H144673   4.874   0.941   9.972 -0.1842 -1.7749  0.8337
 6826TIP3    H244674   4.741   0.893   9.916 -0.6005 -0.6115  0.7816
 6827TIP3   OH244675   2.912   2.738   9.957  0.0580 -0.1956  1.0807
 6827TIP3    H144676   2.985   2.683   9.929  0.8682  1.2637  0.2007
 6827TIP3    H244677   2.932   2.760  10.048  0.1981 -0.5967  1.1497
 6828TIP3   OH244678   0.931   0.171  11.145 -0.2368 -0.3579  0.3417
 6828TIP3    H144679   0.847   0.129  11.127 -0.0401 -0.5772 -0.0663
 6828TIP3    H244680   0.966   0.194  11.059 -0.6063  1.1741  0.5605
 6829TIP3   OH244681   2.447   5.639   9.925  0.5794 -0.0254 -0.0085
 6829TIP3    H144682   2.542   5.641   9.936  0.5105 -0.5566  0.6855
 6829TIP3    H244683   2.415   5.710   9.980  0.4774 -0.7019  0.8214
 6830TIP3   OH244684   1.188   3.499  12.860 -0.2081  0.3338 -0.1319
 6830TIP3    H144685   1.168   3.583  12.820  1.2171  0.5781 -0.3840
 6830TIP3    H244686   1.273   3.511  12.901  0.5030 -1.2513 -1.0210
 6831TIP3   OH244687   5.611   5.445  12.040  0.4415 -0.0735 -0.5953
 6831TIP3    H144688   5.611   5.539  12.023  0.0306  0.0381 -0.0025
 6831TIP3    H244689   5.591   5.437  12.133 -2.2651 -0.7909 -1.1210
 6832TIP3   OH244690   1.980   1.233   9.162 -0.6054  0.4942  0.6790
 6832TIP3    H144691   1.903   1.240   9.218 -2.4210  0.2166 -1.6350
 6832TIP3    H244692   1.973   1.146   9.122  1.1486  0.3044  0.6747
 6833TIP3   OH244693   0.587   4.989  10.359 -0.2132 -0.1458  0.0343
 6833TIP3    H144694   0.493   5.004  10.345 -0.0228  1.1788  0.0745
 6833TIP3    H244695   0.606   4.909  10.308 -1.0443  0.4533 -1.2753
 6834TIP3   OH244696   6.502   5.079  10.324 -0.1315 -0.2430 -0.0428
 6834TIP3    H144697   6.522   5.151  10.383 -1.2609  0.8857 -0.9675
 6834TIP3    H244698   6.585   5.031  10.316  0.6223  0.8758  0.6849
 6835TIP3   OH244699   4.853   4.649  10.096 -0.8833 -0.3536  0.2929
 6835TIP3    H144700   4.840   4.629  10.003 -1.2709  0.9739  0.0393
 6835TIP3    H244701   4.872   4.743  10.098  0.0743 -0.5449  1.4832
 6836TIP3   OH244702   3.833   2.857  10.074 -0.6082 -0.4865 -0.1334
 6836TIP3    H144703   3.913   2.903  10.045 -0.4361  0.1244  1.2247
 6836TIP3    H244704   3.840   2.770  10.034  0.7001 -0.4236 -0.1047
 6837TIP3   OH244705   3.722   2.580  11.352 -0.1276  0.0350  0.5397
 6837TIP3    H144706   3.631   2.549  11.347  0.1506 -0.6349 -2.1561
 6837TIP3    H244707   3.757   2.538  11.430 -1.6852 -1.0589  0.7139
 6838TIP3   OH244708   1.794   4.166  10.248 -0.4710  0.2388 -0.2474
 6838TIP3    H144709   1.709   4.171  10.291 -0.3724 -0.8844  0.1007
 6838TIP3    H244710   1.784   4.099  10.181  0.1006  0.2157 -0.3165
 6839TIP3   OH244711   0.665   4.087  13.173 -0.6710  0.0346 -0.0625
 6839TIP3    H144712   0.696   4.172  13.206 -1.9777  0.8228 -0.8084
 6839TIP3    H244713   0.717   4.072  13.094  0.7478 -0.6961  0.9646
 6840TIP3   OH244714   1.029   1.174  10.037  0.8135  0.1085 -0.2315
 6840TIP3    H144715   1.122   1.154  10.046  0.8226  0.2480  0.0190
 6840TIP3    H244716   0.985   1.090  10.049  0.9120  0.0293 -0.4282
 6841TIP3   OH244717   3.148   6.051  11.164 -0.0955  0.0921 -0.5435
 6841TIP3    H144718   3.068   6.091  11.130  0.1587  0.4393 -0.7442
 6841TIP3    H244719   3.173   6.106  11.238 -2.2960 -2.3355  2.2647
 6842TIP3   OH244720   5.339   4.732   9.041 -0.2953 -0.0601  0.1045
 6842TIP3    H144721   5.395   4.743   8.964 -1.5061  2.3124 -0.5369
 6842TIP3    H244722   5.398   4.703   9.110  0.7113 -3.1473 -1.8101
 6843TIP3   OH244723   1.464   4.353  10.076  0.0481 -0.1139 -0.1505
 6843TIP3    H144724   1.398   4.423  10.080 -0.0275 -0.0838 -1.6731
 6843TIP3    H244725   1.531   4.386  10.017  1.3678 -0.2346  1.2194
 6844TIP3   OH244726   1.535   4.003  11.894  0.2229 -0.3301  0.1889
 6844TIP3    H144727   1.503   3.956  11.971 -0.2456 -0.6033 -0.1644
 6844TIP3    H244728   1.596   4.068  11.928  0.0102 -0.4458  0.7886
 6845TIP3   OH244729   1.909   2.441  12.263 -0.0993  0.0549  0.1470
 6845TIP3    H144730   2.005   2.438  12.259 -0.1271  0.3726 -3.2307
 6845TIP3    H244731   1.884   2.503  12.195 -2.7783 -2.0016 -0.9316
 6846TIP3   OH244732   1.656   5.661   9.923 -0.1150 -0.3747 -0.3621
 6846TIP3    H144733   1.644   5.750   9.958 -3.4242  0.1556 -2.4730
 6846TIP3    H244734   1.751   5.653   9.914  0.5715  1.5969  3.0201
 6847TIP3   OH244735   6.091   2.806  10.436  0.6665 -0.1016  0.1235
 6847TIP3    H144736   6.067   2.746  10.365 -0.0119 -0.2748  0.4816
 6847TIP3    H244737   6.174   2.772  10.469 -0.1557 -1.4454  0.9352
 6848TIP3   OH244738   4.065   1.248  11.144 -0.0225  0.4360  0.8545
 6848TIP3    H144739   4.065   1.166  11.095 -0.2639  1.4004 -0.8393
 6848TIP3    H244740   3.974   1.277  11.142  0.1294  0.9434  1.0834
 6849TIP3   OH244741   0.042   0.686  10.477 -0.5774  0.4376  0.0375
 6849TIP3    H144742   0.101   0.758  10.452 -0.6226  0.1278 -1.0258
 6849TIP3    H244743   0.050   0.680  10.572  1.4820  0.0918 -0.1108
 6850TIP3   OH244744   4.531   1.309  11.233 -0.3372  0.1319  0.2244
 6850TIP3    H144745   4.444   1.346  11.245  0.1899  1.4023  0.3044
 6850TIP3    H244746   4.537   1.240  11.300 -1.0197  0.5115  0.6901
 6851TIP3   OH244747   6.186   5.872  11.233 -0.7285  0.2150  0.1039
 6851TIP3    H144748   6.163   5.796  11.180  0.6839  0.8681 -1.5425
 6851TIP3    H244749   6.250   5.840  11.295  1.3786  0.3484 -1.8605
 6852TIP3   OH244750   3.940   4.175  12.043 -0.0742  0.0297 -0.2002
 6852TIP3    H144751   4.002   4.223  11.989 -0.5023  0.4489 -0.3242
 6852TIP3    H244752   3.880   4.135  11.980 -0.8582  0.9107 -0.0172
 6853TIP3   OH244753   4.958   4.281  11.405 -0.6844 -0.1324  0.2849
 6853TIP3    H144754   4.925   4.283  11.315 -0.1498  0.7109  0.0915
 6853TIP3    H244755   4.883   4.302  11.459 -0.8189  0.2324 -0.0368
 6854TIP3   OH244756   4.752   3.627  11.871 -0.1419 -0.0101 -0.6773
 6854TIP3    H144757   4.666   3.615  11.913 -0.0608 -1.0913 -0.7867
 6854TIP3    H244758   4.789   3.539  11.868  0.7435  0.3692 -1.1373
 6855TIP3   OH244759   5.349   5.923   9.611  0.2059 -0.6374  0.3068
 6855TIP3    H144760   5.439   5.893   9.596  0.1370 -2.2269  2.5415
 6855TIP3    H244761   5.301   5.843   9.631 -1.1412  0.4549  1.6124
 6856TIP3   OH244762   2.285   5.424  10.408  0.0038  0.1108 -0.2263
 6856TIP3    H144763   2.214   5.470  10.453  0.4393 -0.6009  1.2538
 6856TIP3    H244764   2.320   5.364  10.474  1.6397  0.0750 -1.0902
 6857TIP3   OH244765   1.739   0.969  12.263 -0.0639 -0.1235 -0.1237
 6857TIP3    H144766   1.743   0.925  12.348 -1.3057  0.0281  0.0252
 6857TIP3    H244767   1.649   0.957  12.234  0.3601 -0.2191 -1.4550
 6858TIP3   OH244768   4.204   5.240  10.095  0.5578 -0.0681  0.1637
 6858TIP3    H144769   4.239   5.154  10.072 -0.0092 -0.5727  1.1304
 6858TIP3    H244770   4.126   5.249  10.040  0.7378 -0.0668 -0.0960
 6859TIP3   OH244771   1.252   2.048  10.191 -0.0835  0.0958  0.1875
 6859TIP3    H144772   1.335   2.003  10.204 -0.8747 -0.9944  1.8227
 6859TIP3    H244773   1.246   2.060  10.096  2.7865  1.9489  0.1360
 6860TIP3   OH244774   3.158   6.186  11.484 -0.0494  0.5090  0.3019
 6860TIP3    H144775   3.150   6.278  11.461 -1.5135  0.9181  2.1554
 6860TIP3    H244776   3.224   6.184  11.553  0.3351  0.0843 -0.0704
 6861TIP3   OH244777   6.311   5.320  12.045  0.0850 -0.0477  0.8468
 6861TIP3    H144778   6.349   5.361  12.123  1.0779 -0.2156  0.4621
 6861TIP3    H244779   6.222   5.355  12.041  0.8441  1.9879  0.6156
 6862TIP3   OH244780   1.463   3.239   9.966  0.4423  0.0018  0.1015
 6862TIP3    H144781   1.517   3.176  10.014  0.3468  0.7532  1.2237
 6862TIP3    H244782   1.386   3.253  10.022  0.5650  1.2738 -0.0227
 6863TIP3   OH244783   0.482   2.053  10.056 -0.3110  0.2113 -0.1390
 6863TIP3    H144784   0.391   2.070  10.081  0.2866  1.5258  1.2619
 6863TIP3    H244785   0.534   2.081  10.132  1.2821 -0.2737 -1.0079
 6864TIP3   OH244786   3.986   2.936  12.415 -0.2333  0.6474  0.3523
 6864TIP3    H144787   4.065   2.940  12.468 -0.1030 -0.2753  0.2502
 6864TIP3    H244788   3.970   3.026  12.387 -0.0478  1.0755  1.5811
 6865TIP3   OH244789   4.784   5.085  10.252 -0.7993 -0.8555 -0.0239
 6865TIP3    H144790   4.759   5.177  10.249  1.3616 -0.2370 -0.6875
 6865TIP3    H244791   4.810   5.070  10.343  0.3863 -0.3429 -0.2653
 6866TIP3   OH244792   4.029   6.319   9.592 -0.2336  0.0163 -0.0172
 6866TIP3    H144793   4.106   6.318   9.535  1.0488  0.5361  1.6025
 6866TIP3    H244794   4.045   6.248   9.655  1.1493  2.6839  2.9632
 6867TIP3   OH244795   0.079   4.779   9.078  0.6010 -0.4649 -0.0257
 6867TIP3    H144796   0.009   4.764   9.142  0.6507 -0.1500  0.1076
 6867TIP3    H244797   0.090   4.875   9.077 -0.2056 -0.3655 -1.3837
 6868TIP3   OH244798   6.295   6.005  10.460  0.6072 -0.1409 -0.3137
 6868TIP3    H144799   6.252   5.946  10.522  1.5845 -2.4666 -1.7054
 6868TIP3    H244800   6.227   6.028  10.397  0.1506  0.4527  0.3897
 6869TIP3   OH244801   4.365   5.485  12.207 -0.0509  0.3948 -0.0287
 6869TIP3    H144802   4.370   5.426  12.132 -2.2097 -3.2416  2.3984
 6869TIP3    H244803   4.282   5.532  12.196  0.0339  0.4869 -0.2850
 6870TIP3   OH244804   2.439   3.731   9.341 -0.3868  0.3565  0.3332
 6870TIP3    H144805   2.349   3.702   9.361  0.0466 -0.7124  0.7912
 6870TIP3    H244806   2.430   3.825   9.324 -1.9691 -0.1071 -1.9229
 6871TIP3   OH244807   2.003   5.672   9.371 -0.0588  0.4818 -0.2122
 6871TIP3    H144808   1.914   5.652   9.342  0.1348  0.1831 -0.6033
 6871TIP3    H244809   2.003   5.767   9.385 -1.3888  0.1474  3.0014
 6872TIP3   OH244810   3.618   0.770  12.281 -0.0593 -0.3493  0.2470
 6872TIP3    H144811   3.573   0.849  12.310  0.2347  0.5114 -1.5215
 6872TIP3    H244812   3.660   0.736  12.360  0.6907  1.8403  0.8477
 6873TIP3   OH244813   3.218   6.740  10.184 -0.2335  0.2062  0.4021
 6873TIP3    H144814   3.127   6.739  10.214 -0.3739  0.0664 -0.0166
 6873TIP3    H244815   3.270   6.731  10.264 -0.5684  0.8801  0.7029
 6874TIP3   OH244816   2.330   1.482  10.582  0.3237  0.4154 -0.1584
 6874TIP3    H144817   2.423   1.496  10.564  0.4259  0.3589  0.3102
 6874TIP3    H244818   2.286   1.553  10.535  0.7056  1.2736  0.7299
 6875TIP3   OH244819   3.060   0.274  10.597  0.1510 -0.1847  0.0770
 6875TIP3    H144820   3.010   0.232  10.527  0.2731 -0.3332  0.0797
 6875TIP3    H244821   3.087   0.203  10.654 -0.4656  0.0079  0.6089
 6876TIP3   OH244822   2.035   1.458  10.096 -0.0176 -0.2049  0.4640
 6876TIP3    H144823   2.107   1.466  10.158  1.3941  0.8198 -1.2445
 6876TIP3    H244824   2.049   1.375  10.052  0.7304  0.4282 -0.5458
 6877TIP3   OH244825   4.077   3.304  10.929  0.8605  0.0061 -0.2576
 6877TIP3    H144826   4.026   3.355  10.866  2.3380  1.7031 -0.1734
 6877TIP3    H244827   4.150   3.269  10.877  1.7853  0.9613  0.3646
 6878TIP3   OH244828   1.365   2.001  11.404  0.2600 -0.1539  0.5482
 6878TIP3    H144829   1.372   2.000  11.308  1.3409  1.7427  0.5706
 6878TIP3    H244830   1.277   2.033  11.422 -0.6613 -2.3088  0.2484
 6879TIP3   OH244831   6.203   2.514  11.784  0.2332 -0.2375  0.3627
 6879TIP3    H144832   6.189   2.442  11.846  2.2530 -1.0047 -0.0045
 6879TIP3    H244833   6.153   2.489  11.707  0.5559 -1.0385  0.4054
 6880TIP3   OH244834   6.419   5.697   9.897 -0.3684  0.4294 -0.2190
 6880TIP3    H144835   6.323   5.697   9.890 -0.6824  0.0390  2.7479
 6880TIP3    H244836   6.447   5.628   9.837 -2.0644 -0.2915 -0.2628
 6881TIP3   OH244837   1.710   3.483  11.654  0.4882 -0.5152  0.7072
 6881TIP3    H144838   1.747   3.481  11.743  2.4295  0.8047 -0.0132
 6881TIP3    H244839   1.770   3.539  11.604 -0.4963 -1.3047 -1.4799
 6882TIP3   OH244840   2.871   1.231  10.789  0.7168  0.1221  0.2657
 6882TIP3    H144841   2.918   1.298  10.739 -0.0711  0.1894 -0.4083
 6882TIP3    H244842   2.821   1.183  10.723 -0.1686  0.0682  0.9624
 6883TIP3   OH244843   2.095   0.192  10.119 -0.2592  0.1925 -0.5034
 6883TIP3    H144844   2.142   0.274  10.101 -0.3453  0.0892 -1.2700
 6883TIP3    H244845   2.059   0.203  10.207 -0.9116  1.2885 -0.8860
 6884TIP3   OH244846   3.263   6.572   9.429 -0.0485 -0.6630  0.2795
 6884TIP3    H144847   3.213   6.615   9.360  0.6919  0.0814  0.1812
 6884TIP3    H244848   3.233   6.613   9.510 -0.7811 -1.4009  0.3875
 6885TIP3   OH244849   5.512   3.305  11.274 -0.6341 -0.3703 -0.0777
 6885TIP3    H144850   5.435   3.343  11.232 -0.0961  1.3294  0.4146
 6885TIP3    H244851   5.477   3.259  11.351 -1.1774  0.2168  0.0325
 6886TIP3   OH244852   0.291   4.112   9.788 -0.4612 -0.6846  0.0370
 6886TIP3    H144853   0.231   4.074   9.853 -0.0393 -1.3506  0.0532
 6886TIP3    H244854   0.325   4.191   9.829 -1.4618 -0.1980 -0.0427
 6887TIP3   OH244855   6.076   3.087   9.463 -0.1886  0.0413  0.2813
 6887TIP3    H144856   6.057   3.172   9.423 -0.7976 -0.6249 -0.8907
 6887TIP3    H244857   6.143   3.048   9.407  1.4811  0.4747  1.8487
 6888TIP3   OH244858   4.997   2.509  11.181  0.1815 -0.1497 -0.3162
 6888TIP3    H144859   4.968   2.470  11.099 -1.3116 -0.0937  0.1603
 6888TIP3    H244860   5.016   2.600  11.158 -0.1513 -0.1532 -0.6274
 6889TIP3   OH244861   4.934   5.713  10.892 -0.2311 -0.2734 -0.4335
 6889TIP3    H144862   4.893   5.627  10.904 -0.8872 -0.2212 -1.9794
 6889TIP3    H244863   4.947   5.747  10.980  0.1986 -2.0283  0.2149
 6890TIP3   OH244864   6.382   5.839  10.811  0.3756 -0.3657  0.2169
 6890TIP3    H144865   6.342   5.926  10.802  1.1100  0.0382  0.8138
 6890TIP3    H244866   6.331   5.784  10.751 -0.1506  0.4505 -0.1102
 6891TIP3   OH244867   2.787   1.583  11.432 -0.0858 -0.3724  0.3248
 6891TIP3    H144868   2.869   1.553  11.392 -0.6894 -1.8085  0.0857
 6891TIP3    H244869   2.799   1.677  11.445  1.1355 -0.3460 -0.8161
 6892TIP3   OH244870   4.622   6.520  11.033 -0.5195  0.0317  0.5975
 6892TIP3    H144871   4.699   6.470  11.004 -1.7394 -0.3936 -2.2716
 6892TIP3    H244872   4.573   6.458  11.086  0.7237  0.0690  1.8349
 6893TIP3   OH244873   5.783   6.714  11.326  0.5069  0.0915  0.1162
 6893TIP3    H144874   5.755   6.658  11.399 -1.7452  0.3541 -0.4759
 6893TIP3    H244875   5.834   6.655  11.270 -0.0096 -0.8132  0.5665
 6894TIP3   OH244876   3.537   1.961   9.656 -0.0764  0.0908 -0.6223
 6894TIP3    H144877   3.518   1.962   9.562 -0.8159 -0.8641 -0.4994
 6894TIP3    H244878   3.458   1.926   9.696  0.3161  0.2751  0.3480
 6895TIP3   OH244879   2.921   5.051  10.516  0.0959  0.2953  0.6657
 6895TIP3    H144880   3.002   5.083  10.557 -0.6833  1.3396  1.4470
 6895TIP3    H244881   2.951   4.997  10.442  1.5630 -1.8724  2.7093
 6896TIP3   OH244882   0.139   6.240  11.426 -0.4118 -0.6486 -0.0636
 6896TIP3    H144883   0.100   6.326  11.411  1.5823  0.0951 -1.2136
 6896TIP3    H244884   0.083   6.201  11.494 -1.6885  1.2991  0.0904
 6897TIP3   OH244885   0.269   4.089   9.518 -0.6372 -0.0078 -0.2177
 6897TIP3    H144886   0.287   4.057   9.606  0.3899  1.0418 -0.0140
 6897TIP3    H244887   0.175   4.106   9.517 -0.7031 -0.2803  0.5877
 6898TIP3   OH244888   1.947   2.915  10.848 -0.3884 -0.2677  0.0002
 6898TIP3    H144889   1.938   2.837  10.793 -0.2453  1.5463 -2.7589
 6898TIP3    H244890   2.035   2.909  10.885 -0.3009 -1.2996 -0.3418
 6899TIP3   OH244891   3.001   1.037  10.892 -0.5319  0.3071 -0.1611
 6899TIP3    H144892   2.954   1.113  10.857 -0.3764  0.4456 -0.0725
 6899TIP3    H244893   3.092   1.050  10.864 -0.2559  0.8023  0.9069
 6900TIP3   OH244894   3.580   3.462  10.392 -0.7860  0.7422 -0.0300
 6900TIP3    H144895   3.512   3.437  10.329 -0.6960 -1.7685  0.7521
 6900TIP3    H244896   3.617   3.379  10.421  0.4229  1.9158  1.9968
 6901TIP3   OH244897   1.827   4.081  10.838 -0.2977 -0.0697 -0.3752
 6901TIP3    H144898   1.845   4.162  10.885  0.4515  0.5591 -1.6840
 6901TIP3    H244899   1.888   4.082  10.764 -1.1836 -1.1821 -1.1604
 6902TIP3   OH244900   0.803   5.229  12.879 -0.1590  0.0672 -0.0229
 6902TIP3    H144901   0.850   5.186  12.950  3.1232  0.3791 -1.8068
 6902TIP3    H244902   0.803   5.321  12.902  0.7922  0.1533 -0.3390
 6903TIP3   OH244903   1.953   0.814  12.176 -0.9506 -0.6521  0.5212
 6903TIP3    H144904   1.893   0.885  12.202 -2.4505 -1.8461  0.4616
 6903TIP3    H244905   1.906   0.734  12.199  1.0937 -1.6520  1.4073
 6904TIP3   OH244906   0.247   2.296  10.279  0.2926 -0.1261  0.1179
 6904TIP3    H144907   0.266   2.223  10.220  0.8651  0.3168 -0.2573
 6904TIP3    H244908   0.234   2.256  10.365  1.9114 -0.5645  0.1864
 6905TIP3   OH244909   1.246   5.505  10.716  0.3033  0.1772  0.5337
 6905TIP3    H144910   1.207   5.590  10.739 -1.0919 -0.3026  0.0833
 6905TIP3    H244911   1.171   5.452  10.687  1.4047 -0.5844 -1.0586
 6906TIP3   OH244912   4.627   5.237  10.628  0.6755  0.6894  0.0248
 6906TIP3    H144913   4.556   5.182  10.660  1.4599  0.8591  2.2308
 6906TIP3    H244914   4.623   5.317  10.682  0.4045  2.2457 -2.1829
 6907TIP3   OH244915   4.512   6.660  11.637 -0.0460  0.8990  0.7717
 6907TIP3    H144916   4.437   6.719  11.627 -0.0416  0.8969  0.7245
 6907TIP3    H244917   4.473   6.574  11.652 -0.0644  1.1525  2.3507
 6908TIP3   OH244918   2.522   1.820  12.337 -0.5375  0.2208 -0.5064
 6908TIP3    H144919   2.582   1.768  12.390 -0.9373  0.7211  0.4708
 6908TIP3    H244920   2.439   1.818  12.386 -0.5791  1.7050 -0.4639
 6909TIP3   OH244921   4.608   0.706  11.453  0.6614 -0.3604  0.2544
 6909TIP3    H144922   4.637   0.643  11.519  0.0288 -0.7259  0.1888
 6909TIP3    H244923   4.638   0.668  11.370  2.3621  0.5961  0.3744
 6910TIP3   OH244924   6.704   2.293  12.665  0.2199 -0.0206  0.3937
 6910TIP3    H144925   6.751   2.373  12.687  0.2240  0.1744 -0.3005
 6910TIP3    H244926   6.762   2.247  12.604 -1.6242  1.5815 -2.8319
 6911TIP3   OH244927   3.519   1.846  10.379 -0.0369 -0.3586  0.0756
 6911TIP3    H144928   3.608   1.875  10.357 -0.5606  1.0234 -0.3421
 6911TIP3    H244929   3.528   1.804  10.465  0.8739  0.6049  0.4704
 6912TIP3   OH244930   3.708   4.682  10.588 -0.1297 -0.1507 -0.1831
 6912TIP3    H144931   3.780   4.619  10.591  1.5330  1.6610  0.3505
 6912TIP3    H244932   3.669   4.677  10.675  1.4612  1.0905  0.6546
 6913TIP3   OH244933   4.291   2.333   9.274  0.4385  0.7791  0.4659
 6913TIP3    H144934   4.369   2.288   9.305 -0.3455 -0.0077  1.3784
 6913TIP3    H244935   4.323   2.414   9.235  1.6795  0.5743  1.0275
 6914TIP3   OH244936   2.222   5.493   9.859 -0.0053  0.0958 -0.1728
 6914TIP3    H144937   2.189   5.541   9.783 -1.8383  1.1476  1.2168
 6914TIP3    H244938   2.293   5.548   9.893 -0.7245  0.8086  0.2021
 6915TIP3   OH244939   6.656   3.021   9.641 -0.2757 -0.3470 -0.1718
 6915TIP3    H144940   6.678   3.075   9.565 -1.7710  1.7957  0.8247
 6915TIP3    H244941   6.735   2.970   9.657  0.7514  0.5605 -1.9902
 6916TIP3   OH244942   1.875   2.182  11.760  0.3633  0.7536  0.0675
 6916TIP3    H144943   1.920   2.266  11.768  1.2749  0.2422  0.3342
 6916TIP3    H244944   1.840   2.182  11.671 -0.1646  1.6628  0.2547
 6917TIP3   OH244945   5.063   6.197  11.042 -0.2010 -0.4302 -0.5265
 6917TIP3    H144946   5.154   6.200  11.072 -0.2562  0.7769 -0.4545
 6917TIP3    H244947   5.036   6.106  11.057  0.4725 -0.4009  0.9870
 6918TIP3   OH244948   6.154   3.757   9.514  0.2572  0.4969  0.3090
 6918TIP3    H144949   6.144   3.837   9.564 -0.8482 -0.2846  1.3905
 6918TIP3    H244950   6.166   3.688   9.580  1.3063 -0.2216 -0.5935
 6919TIP3   OH244951   1.527   3.302   9.706  0.9230  0.1740  0.1378
 6919TIP3    H144952   1.508   3.272   9.795 -0.5622 -1.2081 -0.5854
 6919TIP3    H244953   1.441   3.312   9.665  1.5798  0.7313 -1.1566
 6920TIP3   OH244954   1.780   6.172  10.325  0.3166 -0.2408 -0.7093
 6920TIP3    H144955   1.843   6.218  10.271  0.0448  0.3009 -0.5709
 6920TIP3    H244956   1.731   6.241  10.370 -0.8610 -0.6157 -1.3544
 6921TIP3   OH244957   4.669   1.360  11.808  0.0269  0.0101  0.5153
 6921TIP3    H144958   4.714   1.392  11.886 -1.0034 -0.7451  1.4564
 6921TIP3    H244959   4.586   1.325  11.841 -0.2711 -0.6609 -0.8741
 6922TIP3   OH244960   2.507   2.971   9.450 -0.2684 -0.2290  0.2286
 6922TIP3    H144961   2.587   2.920   9.463 -0.7809 -0.9995  0.3987
 6922TIP3    H244962   2.464   2.971   9.535 -0.3385  0.4018  0.2033
 6923TIP3   OH244963   3.993   5.618  10.416  0.3810  0.6493 -0.6163
 6923TIP3    H144964   4.032   5.702  10.441  2.5210 -0.5953  0.5555
 6923TIP3    H244965   4.063   5.572  10.369 -1.0050 -0.2025 -1.9251
 6924TIP3   OH244966   2.332   1.691  11.740 -0.3001  0.4005  0.3986
 6924TIP3    H144967   2.389   1.729  11.673 -0.0363  0.8164  0.8558
 6924TIP3    H244968   2.359   1.599  11.744  0.4773  0.6321  0.7389
 6925TIP3   OH244969   3.885   2.556   9.562 -0.6087 -0.2005 -0.0962
 6925TIP3    H144970   3.809   2.499   9.561 -0.9069  0.1831  0.3852
 6925TIP3    H244971   3.912   2.562   9.470 -0.7044 -0.9309 -0.1713
 6926TIP3   OH244972   4.914   3.406   9.383 -0.2770  0.2729 -0.5079
 6926TIP3    H144973   4.983   3.351   9.346 -0.5285  0.9532 -2.0747
 6926TIP3    H244974   4.944   3.426   9.471  1.1586 -0.0851 -0.8887
 6927TIP3   OH244975   2.738   1.166  10.555 -0.2754  0.2071 -0.6126
 6927TIP3    H144976   2.756   1.247  10.507  1.4957  0.8476  1.0032
 6927TIP3    H244977   2.772   1.097  10.499  1.3595  0.8981 -0.5285
 6928TIP3   OH244978   0.478   1.532  12.084 -0.6223  0.7408 -0.0464
 6928TIP3    H144979   0.419   1.536  12.159 -1.6268  3.0124 -0.8724
 6928TIP3    H244980   0.547   1.595  12.105 -0.0189  0.1820 -0.3287
 6929TIP3   OH244981   4.374   2.012  10.603 -0.1554  0.0731 -0.5355
 6929TIP3    H144982   4.367   1.976  10.514  0.6533  0.1003 -0.6237
 6929TIP3    H244983   4.301   1.974  10.651 -1.2985  0.9744 -1.5185
 6930TIP3   OH244984   2.475   1.375   9.628  0.2223  0.3924  0.2664
 6930TIP3    H144985   2.476   1.360   9.534  1.4692 -0.0839  0.3376
 6930TIP3    H244986   2.389   1.343   9.657  0.5093 -1.1258 -0.4562
 6931TIP3   OH244987   6.176   2.211  10.095 -0.2352 -0.0531  0.4011
 6931TIP3    H144988   6.263   2.182  10.068  0.0040 -1.8051  2.7976
 6931TIP3    H244989   6.191   2.295  10.139  0.3065 -0.5369  1.1484
 6932TIP3   OH244990   0.966   1.784  11.780  0.5268  0.6248  0.4035
 6932TIP3    H144991   1.055   1.806  11.807  0.6085 -0.3150  0.9427
 6932TIP3    H244992   0.911   1.809  11.854  0.5110 -0.0677  0.6326
 6933TIP3   OH244993   3.005   2.870  10.940  0.2554 -0.2072 -0.1109
 6933TIP3    H144994   2.951   2.818  10.882  1.5892 -1.3756 -0.3686
 6933TIP3    H244995   2.947   2.898  11.011 -0.7458 -1.0803 -0.5800
 6934TIP3   OH244996   3.210   6.348  11.208 -0.6507  0.2277 -0.2052
 6934TIP3    H144997   3.221   6.389  11.294 -0.5052 -1.6252  0.7150
 6934TIP3    H244998   3.118   6.361  11.186 -0.6409  0.8927  0.1179
 6935TIP3   OH244999   3.253   5.508  11.379  0.3065  0.5243 -0.2905
 6935TIP3    H145000   3.190   5.439  11.403 -0.3720  0.5790 -1.8000
 6935TIP3    H245001   3.321   5.462  11.329  0.4293  0.7854 -0.3651
 6936TIP3   OH245002   3.304   0.899   9.592 -0.0824 -0.6440 -0.1164
 6936TIP3    H145003   3.328   0.990   9.574  0.7374 -0.6879  0.6982
 6936TIP3    H245004   3.268   0.900   9.680 -0.3247 -1.0783 -0.2061
 6937TIP3   OH245005   0.898   2.310  11.561 -0.0145 -0.6723 -0.0248
 6937TIP3    H145006   0.925   2.313  11.653  0.6001  0.4065 -0.2191
 6937TIP3    H245007   0.962   2.365  11.516 -0.0770 -1.5186 -1.1659
 6938TIP3   OH245008   3.778   5.327   9.416 -0.2068 -0.5125 -0.3870
 6938TIP3    H145009   3.746   5.298   9.330 -1.0869 -2.2622  0.4698
 6938TIP3    H245010   3.785   5.246   9.467  0.9270  0.4206  0.9983
 6939TIP3   OH245011   0.801   5.881  11.332 -0.6967 -0.1372  0.4677
 6939TIP3    H145012   0.728   5.820  11.318 -0.3497 -0.3422 -0.5423
 6939TIP3    H245013   0.873   5.825  11.361 -0.5262 -0.1376  0.0454
 6940TIP3   OH245014   2.670   3.609  11.649 -0.1770  0.1939  0.2880
 6940TIP3    H145015   2.659   3.664  11.571  0.1811 -1.4089 -0.9477
 6940TIP3    H245016   2.712   3.530  11.616  0.9798 -0.0941  2.3124
 6941TIP3   OH245017   2.891   5.821  11.114  0.0438 -0.2144  0.2390
 6941TIP3    H145018   2.909   5.915  11.102 -1.1021  0.1133  0.9379
 6941TIP3    H245019   2.948   5.795  11.186  0.0179  0.0690  0.3656
 6942TIP3   OH245020   4.400   2.773  12.286 -0.4681 -0.4792  0.4034
 6942TIP3    H145021   4.312   2.749  12.316 -0.2008 -2.4551 -0.2401
 6942TIP3    H245022   4.444   2.807  12.365 -1.9670  1.1533  0.5888
 6943TIP3   OH245023   4.827   1.993  11.482 -0.0975  0.6214 -0.5514
 6943TIP3    H145024   4.890   2.047  11.531 -0.2737  0.2778  0.0649
 6943TIP3    H245025   4.794   2.051  11.413 -0.0407  1.2048 -0.0953
 6944TIP3   OH245026   6.725   6.458  11.445  0.4067 -0.6523  0.2178
 6944TIP3    H145027   6.768   6.497  11.522  0.0781  2.5665 -1.0829
 6944TIP3    H245028   6.632   6.466  11.464  0.3284 -1.5726  0.2451
 6945TIP3   OH245029   3.205   6.274  12.406  0.2087  0.6685  0.5218
 6945TIP3    H145030   3.129   6.255  12.461 -0.3234  1.9660  0.2735
 6945TIP3    H245031   3.273   6.299  12.468 -0.1529  1.3650  0.6454
 6946TIP3   OH245032   1.807   0.608  11.751  0.3771  0.4784 -0.0911
 6946TIP3    H145033   1.772   0.663  11.681 -2.1473  0.1550  0.8463
 6946TIP3    H245034   1.767   0.641  11.831  2.3893  0.1559  1.1260
 6947TIP3   OH245035   2.480   5.507   9.602 -0.1799  0.2367 -0.0755
 6947TIP3    H145036   2.542   5.513   9.675 -0.4300 -0.4451  0.1989
 6947TIP3    H245037   2.435   5.591   9.602  0.6853  0.7122 -0.2247
 6948TIP3   OH245038   3.938   4.876  11.746 -0.1249  0.2187  0.2260
 6948TIP3    H145039   3.934   4.824  11.666 -0.8791  0.7154 -0.0737
 6948TIP3    H245040   3.942   4.811  11.816 -0.7667 -0.2438 -0.1549
 6949TIP3   OH245041   2.143   6.623   9.362 -0.1115  0.2447  0.5658
 6949TIP3    H145042   2.182   6.707   9.338 -0.5905  0.4247  0.4127
 6949TIP3    H245043   2.217   6.570   9.393  0.6302 -0.1845 -1.7501
 6950TIP3   OH245044   4.485   2.939   9.587  0.4677  0.2244 -0.1264
 6950TIP3    H145045   4.476   2.971   9.497  1.2564  1.9843  0.3731
 6950TIP3    H245046   4.575   2.908   9.591 -0.1428 -1.6964 -0.4583
 6951TIP3   OH245047   5.586   0.093  11.143 -0.2331 -0.2771 -0.0825
 6951TIP3    H145048   5.601   0.184  11.117 -0.6547 -0.2265 -0.1512
 6951TIP3    H245049   5.670   0.065  11.181  0.2009 -0.1723 -0.9398
 6952TIP3   OH245050   1.806   1.219  11.204  0.3043 -0.8147  0.2833
 6952TIP3    H145051   1.824   1.216  11.110  1.0532  0.5024  0.3703
 6952TIP3    H245052   1.758   1.300  11.217 -0.1992 -1.2178  0.9830
 6953TIP3   OH245053   3.834   1.202   9.725 -0.0510 -0.0840  0.0777
 6953TIP3    H145054   3.811   1.280   9.676 -1.0118 -0.3760  0.0452
 6953TIP3    H245055   3.854   1.233   9.813 -1.0060  0.1434  0.2239
 6954TIP3   OH245056   4.380   3.335   9.145  0.5751  0.0299  0.4703
 6954TIP3    H145057   4.451   3.397   9.124  1.3990 -0.8769  0.5030
 6954TIP3    H245058   4.305   3.391   9.163  0.7519  0.9732 -1.4473
 6955TIP3   OH245059   3.869   3.349   9.514  0.0216 -0.5983  0.1806
 6955TIP3    H145060   3.785   3.314   9.543 -0.2273 -1.1215 -1.0904
 6955TIP3    H245061   3.931   3.276   9.523 -0.0571 -0.7621 -0.5697
 6956TIP3   OH245062   0.774   6.516  11.860 -0.1761  0.1298  0.5233
 6956TIP3    H145063   0.704   6.480  11.915 -1.5261  2.3927  0.4095
 6956TIP3    H245064   0.730   6.537  11.778  0.7461  1.1441  0.2807
 6957TIP3   OH245065   6.248   4.004  11.779 -0.1685  0.9331  0.2141
 6957TIP3    H145066   6.188   4.078  11.779 -1.3673  0.0007  0.8000
 6957TIP3    H245067   6.252   3.976  11.870 -1.0189 -0.6894 -0.2062
 6958TIP3   OH245068   0.206   5.294  10.747  0.2762 -0.7597 -0.3807
 6958TIP3    H145069   0.250   5.227  10.694 -1.7659 -1.0370 -1.8850
 6958TIP3    H245070   0.157   5.243  10.812 -1.3421 -0.8287 -1.5760
 6959TIP3   OH245071   0.779   2.727  12.388 -0.3274  0.0269  0.5803
 6959TIP3    H145072   0.762   2.818  12.366 -0.4358  0.1876  1.2977
 6959TIP3    H245073   0.695   2.693  12.418 -0.2679 -0.2887  0.4004
 6960TIP3   OH245074   3.668   3.206  10.463 -0.0405  0.6031  0.0606
 6960TIP3    H145075   3.738   3.145  10.489  0.6594  0.6009 -1.6619
 6960TIP3    H245076   3.598   3.149  10.432 -0.2314  0.6296  0.4481
 6961TIP3   OH245077   1.788   2.461   9.516 -0.2123 -0.3499 -0.7328
 6961TIP3    H145078   1.859   2.414   9.473 -0.5727 -1.7597  0.1259
 6961TIP3    H245079   1.723   2.393   9.536 -0.4278  0.3632  1.2549
 6962TIP3   OH245080   3.951   3.221  10.336 -0.4873 -0.0255 -0.1456
 6962TIP3    H145081   3.864   3.237  10.300 -1.0338 -3.4704 -0.7475
 6962TIP3    H245082   4.010   3.231  10.261 -0.2278  2.5461  0.3123
 6963TIP3   OH245083   3.821   6.727  11.591  0.2118  0.2539 -0.5690
 6963TIP3    H145084   3.768   6.664  11.541 -0.7249  0.5942 -0.0375
 6963TIP3    H245085   3.771   6.741  11.672  0.6742  1.2740 -0.4503
 6964TIP3   OH245086   1.974   2.920  11.851  0.1036  0.4611  0.1384
 6964TIP3    H145087   2.039   2.938  11.783  0.0872  1.3358  0.3523
 6964TIP3    H245088   2.023   2.921  11.933 -0.0728  0.4852  0.2438
 6965TIP3   OH245089   4.065   3.773  10.932  0.0585  0.1731  0.4677
 6965TIP3    H145090   3.973   3.767  10.956 -0.1251  0.6237 -0.1039
 6965TIP3    H245091   4.107   3.702  10.980 -0.7777 -0.8010 -0.2089
 6966TIP3   OH245092   0.440   6.277  10.892 -0.1805 -0.4803 -0.2147
 6966TIP3    H145093   0.447   6.344  10.824 -1.0897  0.4403  0.5604
 6966TIP3    H245094   0.403   6.201  10.848 -0.3265 -0.0474 -0.8508
 6967TIP3   OH245095   1.885   3.203   9.475  0.1837  0.1066  0.5878
 6967TIP3    H145096   1.862   3.145   9.402  1.9549  1.4424 -1.1476
 6967TIP3    H245097   1.963   3.163   9.514 -0.5740 -0.4326  1.6082
 6968TIP3   OH245098   4.362   3.960  12.446  0.6342 -0.5588  0.0450
 6968TIP3    H145099   4.321   4.022  12.387  0.8759 -1.3240 -0.9671
 6968TIP3    H245100   4.456   3.971  12.431  0.6784 -1.2066 -0.2036
 6969TIP3   OH245101   6.374   3.735  11.516 -0.0307  0.3180  0.2592
 6969TIP3    H145102   6.426   3.814  11.500  2.3025 -1.0287  0.5652
 6969TIP3    H245103   6.394   3.678  11.441 -1.6079 -0.0339  0.0777
 6970TIP3   OH245104   4.721   2.009  10.864  0.0876  0.4371 -0.3289
 6970TIP3    H145105   4.669   2.077  10.821 -1.3283 -0.9751 -0.9694
 6970TIP3    H245106   4.785   1.983  10.798  0.4487  0.9512 -0.1828
 6971TIP3   OH245107   4.767   6.702   9.675  0.0196 -0.4106 -0.2551
 6971TIP3    H145108   4.860   6.681   9.669  0.2348  0.7280 -1.5383
 6971TIP3    H245109   4.738   6.660   9.756  1.5771 -1.0184  0.0293
 6972TIP3   OH245110   0.311   1.725   9.453 -0.1211 -0.4495  0.6654
 6972TIP3    H145111   0.375   1.795   9.463 -1.1317  0.5648  0.3834
 6972TIP3    H245112   0.341   1.655   9.511 -0.5425  1.3207  3.2000
 6973TIP3   OH245113   2.027   3.254  11.353 -0.1847 -0.4314 -0.0253
 6973TIP3    H145114   2.078   3.197  11.410 -0.6090  0.5365  1.3771
 6973TIP3    H245115   2.054   3.342  11.377 -0.2519  0.0127 -1.4764
 6974TIP3   OH245116   4.627   6.652  10.161 -0.2750 -0.0920  0.3068
 6974TIP3    H145117   4.648   6.728  10.216  1.4772 -0.2391 -0.0780
 6974TIP3    H245118   4.551   6.612  10.202  0.4412  0.3213  2.1137
 6975TIP3   OH245119   2.890   3.400  12.315 -0.0757  0.2293  0.5350
 6975TIP3    H145120   2.849   3.366  12.394  0.2124  1.9073  1.4665
 6975TIP3    H245121   2.962   3.339  12.296 -1.1212 -1.0617  0.6227
 6976TIP3   OH245122   5.081   6.143  11.774  0.3848  0.7921  0.5462
 6976TIP3    H145123   5.029   6.199  11.716  0.9884  0.7211 -0.0723
 6976TIP3    H245124   5.070   6.182  11.861  0.0802  1.3449  0.2659
 6977TIP3   OH245125   3.876   1.435   9.510 -0.1159  0.1346 -0.3833
 6977TIP3    H145126   3.831   1.465   9.431 -1.3140  0.0914  0.2615
 6977TIP3    H245127   3.967   1.460   9.496 -0.4631  0.9167 -1.3988
 6978TIP3   OH245128   4.861   5.923  10.686  0.3789  0.0478 -0.6442
 6978TIP3    H145129   4.924   5.914  10.615 -0.1996  0.5444 -1.2250
 6978TIP3    H245130   4.885   5.854  10.748  1.2967  0.0391 -1.0026
 6979TIP3   OH245131   5.654   6.228  10.791  0.4980  0.3131  0.3012
 6979TIP3    H145132   5.658   6.298  10.857 -2.2891  1.3982 -0.5143
 6979TIP3    H245133   5.715   6.257  10.722 -1.3107  2.6042 -0.4858
 6980TIP3   OH245134   3.358   3.517   9.608 -0.4411  0.0141 -0.6561
 6980TIP3    H145135   3.294   3.559   9.549 -2.5188 -1.4131  0.4805
 6980TIP3    H245136   3.335   3.425   9.607  0.2698 -0.2343  1.4252
 6981TIP3   OH245137   5.690   6.227  11.603  0.1636 -0.0905  0.4877
 6981TIP3    H145138   5.761   6.209  11.664 -1.8480  0.0119  3.0054
 6981TIP3    H245139   5.702   6.318  11.578  0.1746  0.3149  1.9282
 6982TIP3   OH245140   2.476   4.676  12.169 -0.0744  0.2311  0.3261
 6982TIP3    H145141   2.475   4.649  12.261  0.5681 -0.3629  0.1680
 6982TIP3    H245142   2.522   4.606  12.124 -0.6952  0.3499 -0.5133
 6983TIP3   OH245143   5.448   4.357  10.732  0.1796 -0.4513 -0.5725
 6983TIP3    H145144   5.503   4.304  10.789  1.7466  2.3065  0.6564
 6983TIP3    H245145   5.386   4.400  10.791  0.4311  0.8339 -1.2062
 6984TIP3   OH245146   5.592   4.739  11.071 -0.2737  0.0520 -0.1207
 6984TIP3    H145147   5.589   4.647  11.097 -0.5784  0.0052 -0.3166
 6984TIP3    H245148   5.563   4.787  11.149  1.8895  0.1359  0.6972
 6985TIP3   OH245149   5.692   2.198   9.893  0.5120  0.4195  0.1019
 6985TIP3    H145150   5.691   2.144   9.814  3.9794 -1.1073  0.9178
 6985TIP3    H245151   5.627   2.158   9.951 -0.4876  0.2178 -1.1302
 6986TIP3   OH245152   1.185   2.592  12.744  0.0802  0.3202  0.2143
 6986TIP3    H145153   1.238   2.634  12.676 -0.6498 -0.7178 -1.0579
 6986TIP3    H245154   1.150   2.665  12.796 -0.4728  1.2674 -1.4005
 6987TIP3   OH245155   3.735   6.044  11.716  0.2380 -0.2558  0.0178
 6987TIP3    H145156   3.690   5.983  11.658 -0.9067  1.0830 -0.5794
 6987TIP3    H245157   3.677   6.055  11.791 -0.6708  1.6821 -0.8778
 6988TIP3   OH245158   1.782   1.132  10.098 -0.5941  0.7105  0.1883
 6988TIP3    H145159   1.701   1.111  10.051 -0.3553 -0.9518  0.4626
 6988TIP3    H245160   1.832   1.186  10.037 -0.5841 -0.8335 -1.2290
 6989TIP3   OH245161   2.870   6.632   9.931 -0.1636 -1.1812 -0.9322
 6989TIP3    H145162   2.855   6.592  10.016 -0.3739 -0.2503 -0.5203
 6989TIP3    H245163   2.922   6.710   9.950  0.8140 -1.6039 -1.7893
 6990TIP3   OH245164   5.991   0.326   9.829 -0.1886 -0.3744 -0.0095
 6990TIP3    H145165   5.949   0.406   9.796  1.9621  1.3896  1.2674
 6990TIP3    H245166   5.937   0.300   9.903 -0.5176  0.3364  0.0129
 6991TIP3   OH245167   2.584   2.326  12.324  0.1980 -0.0920  0.1408
 6991TIP3    H145168   2.512   2.265  12.341 -1.0432  1.5045  0.8708
 6991TIP3    H245169   2.632   2.286  12.252  1.0644 -3.2818  2.2439
 6992TIP3   OH245170   3.794   5.814   9.342 -0.1988  0.1101 -0.1144
 6992TIP3    H145171   3.819   5.838   9.252  0.2405 -2.0410 -0.6266
 6992TIP3    H245172   3.810   5.893   9.393 -1.3601  1.7252 -2.0634
 6993TIP3   OH245173   5.933   4.241  12.202 -0.1153  0.7679 -0.0668
 6993TIP3    H145174   5.844   4.240  12.168 -1.1944 -2.3633  2.4075
 6993TIP3    H245175   5.976   4.167  12.160  0.6684  0.9735  0.3508
 6994TIP3   OH245176   1.211   0.823  11.411 -0.2181 -0.4409 -0.0965
 6994TIP3    H145177   1.232   0.731  11.395 -0.4705 -0.6183  0.5531
 6994TIP3    H245178   1.131   0.821  11.462  0.1682  0.1152  0.5546
 6995TIP3   OH245179   6.381   5.499  10.629  0.2635 -0.1430  0.4589
 6995TIP3    H145180   6.339   5.521  10.545 -0.7758 -0.3867  0.9050
 6995TIP3    H245181   6.475   5.501  10.609  0.0359 -2.0400 -1.1908
 6996TIP3   OH245182   4.615   2.307  10.322  0.4766 -0.0621  0.7586
 6996TIP3    H145183   4.655   2.232  10.366  1.6236  0.7400  1.1102
 6996TIP3    H245184   4.663   2.383  10.354 -1.5735  1.0025  1.4771
 6997TIP3   OH245185   0.559   5.100  11.392 -0.0493 -0.2415  0.3132
 6997TIP3    H145186   0.626   5.087  11.459  1.3987  1.8588 -0.6176
 6997TIP3    H245187   0.499   5.164  11.431  0.6714  0.8117 -0.2522
 6998TIP3   OH245188   2.911   3.874  11.546  0.7643  0.0097 -0.2500
 6998TIP3    H145189   2.971   3.945  11.527 -0.4124  0.7309 -1.4258
 6998TIP3    H245190   2.828   3.900  11.506 -0.2133 -1.1789  0.8716
 6999TIP3   OH245191   1.900   4.338   9.397  0.4550  0.1323 -0.3164
 6999TIP3    H145192   1.855   4.355   9.315 -1.1068  0.1794  0.5082
 6999TIP3    H245193   1.888   4.418   9.448  1.0461 -0.0536  0.1355
 7000TIP3   OH245194   3.582   4.322  11.542  0.2042 -0.1363 -0.5567
 7000TIP3    H145195   3.562   4.229  11.550 -0.2002 -0.1693 -1.8008
 7000TIP3    H245196   3.501   4.362  11.512 -0.3103  1.0010  2.0355
 7001TIP3   OH245197   3.207   1.213   9.269 -0.0907 -0.2874  0.3081
 7001TIP3    H145198   3.262   1.135   9.281  0.9948  0.1358 -1.5610
 7001TIP3    H245199   3.119   1.177   9.255 -0.1724 -1.0146  2.3950
 7002TIP3   OH245200   6.246   2.531  11.160  0.1277  0.2687 -0.0042
 7002TIP3    H145201   6.291   2.556  11.079  1.0546  0.6185  0.5940
 7002TIP3    H245202   6.161   2.575  11.155  1.1512  2.4198  0.3414
 7003TIP3   OH245203   4.008   3.756  11.369  0.0339  0.1614 -0.5322
 7003TIP3    H145204   4.101   3.778  11.372  0.1750 -0.4957  0.5404
 7003TIP3    H245205   4.003   3.670  11.411 -1.2881  1.0389  1.2226
 7004TIP3   OH245206   1.124   3.265  12.708 -0.2030  0.2299 -0.0591
 7004TIP3    H145207   1.102   3.200  12.775 -1.6325  0.9687  0.2164
 7004TIP3    H245208   1.123   3.349  12.754  2.0141  0.4524 -0.3316
 7005TIP3   OH245209   2.178   1.624   9.110  0.0791  0.1408  0.5704
 7005TIP3    H145210   2.230   1.677   9.171  0.5637 -0.3641  0.6033
 7005TIP3    H245211   2.179   1.536   9.147  1.9749 -0.6210 -1.0911
 7006TIP3   OH245212   4.274   1.623  10.512 -0.1847  0.0591  0.5149
 7006TIP3    H145213   4.326   1.694  10.474  0.3271 -0.5991 -0.0535
 7006TIP3    H245214   4.263   1.647  10.603 -0.7666  1.3031  0.1378
 7007TIP3   OH245215   5.619   5.527  10.133 -0.2700 -0.0579 -0.5299
 7007TIP3    H145216   5.527   5.521  10.105  0.2439 -4.4896 -2.1243
 7007TIP3    H245217   5.626   5.463  10.205  1.4076  1.0000  0.3151
 7008TIP3   OH245218   1.538   0.017  11.133 -0.0524  0.1817 -0.0894
 7008TIP3    H145219   1.511   0.093  11.083 -2.5645  0.5366  1.6025
 7008TIP3    H245220   1.625   0.039  11.167 -1.0111  2.6777  0.9630
 7009TIP3   OH245221   3.360   0.267  10.335 -0.0823  0.2163  0.2657
 7009TIP3    H145222   3.427   0.223  10.282  0.1611 -0.2403  0.9381
 7009TIP3    H245223   3.326   0.198  10.391 -0.7047  0.5835  0.3408
 7010TIP3   OH245224   4.384   4.288  10.560  0.3442  0.6004  0.0347
 7010TIP3    H145225   4.369   4.373  10.602 -0.9826  0.0729  0.6818
 7010TIP3    H245226   4.436   4.309  10.483  1.4991  1.7942  1.0778
 7011TIP3   OH245227   0.981   0.972  10.916 -0.3183  0.0201 -0.6486
 7011TIP3    H145228   1.068   0.946  10.946 -0.9316 -1.5209 -0.1049
 7011TIP3    H245229   0.935   0.999  10.996 -0.4544  0.4896 -0.8830
 7012TIP3   OH245230   2.751   3.604  12.170  0.5458  0.0013 -0.3427
 7012TIP3    H145231   2.796   3.522  12.193  1.0773  0.3995  0.0841
 7012TIP3    H245232   2.777   3.621  12.079 -0.9815 -1.2077 -1.0276
 7013TIP3   OH245233   4.159   2.367   9.758  0.2389  0.4293  0.0770
 7013TIP3    H145234   4.197   2.396   9.675 -0.0064  1.0743  0.1804
 7013TIP3    H245235   4.123   2.447   9.796 -0.6059 -0.0533  0.3053
 7014TIP3   OH245236   5.839   1.965  12.061  0.0050  0.0468  1.0345
 7014TIP3    H145237   5.869   1.934  12.147  0.6883  0.0455  0.8034
 7014TIP3    H245238   5.801   2.051  12.079  3.4592  1.7879  0.8812
 7015TIP3   OH245239   1.191   4.796   9.704 -0.4036  0.6393 -0.9383
 7015TIP3    H145240   1.196   4.886   9.736  1.0746  0.4221 -0.4655
 7015TIP3    H245241   1.138   4.750   9.770  0.7933  0.6804  0.0971
 7016TIP3   OH245242   1.915   3.769  12.137 -0.1406  0.1620 -0.2216
 7016TIP3    H145243   1.959   3.725  12.064 -0.6264  1.0454 -1.0761
 7016TIP3    H245244   1.823   3.745  12.128  0.0263 -1.2798  1.2716
 7017TIP3   OH245245   4.113   0.540  12.402 -0.1927 -0.9934  0.1308
 7017TIP3    H145246   4.142   0.631  12.398 -1.6384 -0.5557 -2.9711
 7017TIP3    H245247   4.194   0.489  12.409  0.8251  0.4281 -0.8654
 7018TIP3   OH245248   2.584   5.943  11.478  0.2623  0.2348 -0.0459
 7018TIP3    H145249   2.661   5.886  11.471 -0.2037 -0.6451  1.5502
 7018TIP3    H245250   2.572   5.977  11.390  0.1113 -2.7604 -1.3196
 7019TIP3   OH245251   2.428   3.111  10.841  0.3434  0.1201  0.1265
 7019TIP3    H145252   2.371   3.109  10.918 -0.1370  0.6285 -0.2096
 7019TIP3    H245253   2.389   3.176  10.784  0.4184 -0.6017 -0.7688
 7020TIP3   OH245254   4.595   2.694  11.751  0.1426 -0.3529  0.5255
 7020TIP3    H145255   4.622   2.605  11.773 -2.0987 -0.9625  1.0875
 7020TIP3    H245256   4.507   2.702  11.788 -0.1136  1.7631 -0.3978
 7021TIP3   OH245257   2.519   0.378  10.001 -0.6184  0.4908 -0.0489
 7021TIP3    H145258   2.522   0.324  10.080 -0.0225 -1.4510 -1.3324
 7021TIP3    H245259   2.568   0.457  10.024 -1.1009  0.3129  1.7416
 7022TIP3   OH245260   4.884   6.583  10.675  0.5459 -0.4116 -0.3051
 7022TIP3    H145261   4.817   6.649  10.693  0.2602 -0.9733  0.7366
 7022TIP3    H245262   4.834   6.503  10.658  0.9175 -0.5342 -0.8590
 7023TIP3   OH245263   2.550   5.564  11.389  0.3504 -0.6558  0.3096
 7023TIP3    H145264   2.607   5.633  11.355  1.3132 -1.1356  0.8855
 7023TIP3    H245265   2.585   5.484  11.351 -1.3841 -0.7676 -1.1722
 7024TIP3   OH245266   2.498   3.704  12.158  0.7844 -0.7628  0.0410
 7024TIP3    H145267   2.578   3.665  12.193  2.1421  1.6561 -0.1348
 7024TIP3    H245268   2.518   3.722  12.066 -0.0164 -0.2675 -0.0512
 7025TIP3   OH245269   0.547   5.652   9.936  0.1959  0.3135  0.2437
 7025TIP3    H145270   0.520   5.602  10.013 -0.0126  1.7046  1.1017
 7025TIP3    H245271   0.638   5.627   9.921  0.1134 -0.2671  0.6979
 7026TIP3   OH245272   5.358   6.378   9.330  0.7824  0.8544  0.1897
 7026TIP3    H145273   5.381   6.288   9.304  0.4827  0.7394  0.3225
 7026TIP3    H245274   5.276   6.395   9.285  1.8549  1.8152 -1.5248
 7027TIP3   OH245275   4.852   6.194  10.372  0.1554  0.1455 -0.0182
 7027TIP3    H145276   4.938   6.172  10.337  0.8619 -0.0573  1.7233
 7027TIP3    H245277   4.830   6.278  10.332 -0.6230 -1.5081 -3.4292
 7028TIP3   OH245278   5.282   2.201  11.377  0.2491 -0.1444  0.4753
 7028TIP3    H145279   5.314   2.268  11.316 -0.6061  1.3267  1.5891
 7028TIP3    H245280   5.331   2.217  11.457 -0.2560 -0.5987  0.8789
 7029TIP3   OH245281   0.897   5.955  10.321  0.0034  0.6089  0.4022
 7029TIP3    H145282   0.919   5.870  10.282  1.2980  0.8756  0.5107
 7029TIP3    H245283   0.823   5.935  10.379 -1.1836 -0.0048 -1.2416
 7030TIP3   OH245284   1.026   6.303  11.722 -0.1640  0.3706 -0.9885
 7030TIP3    H145285   0.933   6.315  11.700 -1.1797 -1.0238  2.0214
 7030TIP3    H245286   1.059   6.392  11.734 -1.7044  0.8553 -0.0690
 7031TIP3   OH245287   4.059   3.151   9.521  0.0895  0.0058  0.1983
 7031TIP3    H145288   4.118   3.150   9.596 -0.6062  1.9581  0.8371
 7031TIP3    H245289   4.117   3.161   9.445  0.6721  1.1768  0.7597
 7032TIP3   OH245290   2.593   4.958   9.146  0.2315 -0.2008  0.2286
 7032TIP3    H145291   2.500   4.945   9.164  0.2288  0.9302  1.2074
 7032TIP3    H245292   2.632   4.871   9.151 -0.5350 -0.4910  1.3798
 7033TIP3   OH245293   4.104   0.260  12.094 -0.3050 -0.0863  0.0304
 7033TIP3    H145294   4.064   0.174  12.109 -1.5258  0.4657  0.0244
 7033TIP3    H245295   4.171   0.266  12.163 -1.3171 -0.3750  1.0845
 7034TIP3   OH245296   5.803   1.784   9.890 -0.3083 -0.2885  0.3579
 7034TIP3    H145297   5.848   1.868   9.888  0.8137 -0.8732 -1.8423
 7034TIP3    H245298   5.845   1.736   9.962  0.2371  0.3837  0.4960
 7035TIP3   OH245299   1.338   4.134  11.417  0.4885  0.5059  0.6069
 7035TIP3    H145300   1.351   4.093  11.331  0.3524  0.9158  0.3893
 7035TIP3    H245301   1.279   4.207  11.400 -0.4887 -0.1011  1.2323
 7036TIP3   OH245302   1.903   5.948  11.922 -0.0615 -0.0173 -0.7087
 7036TIP3    H145303   1.976   5.896  11.889  1.3833  1.1970  0.4742
 7036TIP3    H245304   1.844   5.884  11.963  1.0761 -0.8574 -0.3419
 7037TIP3   OH245305   0.812   1.125  11.510 -0.3954 -0.3356 -0.2769
 7037TIP3    H145306   0.742   1.191  11.518 -0.3224 -0.3108  0.1880
 7037TIP3    H245307   0.799   1.088  11.423 -1.1887 -0.5500 -0.0814
 7038TIP3   OH245308   4.877   6.009  20.241  0.3993 -0.0898 -0.0628
 7038TIP3    H145309   4.870   6.008  20.146  0.4206  0.5728 -0.0730
 7038TIP3    H245310   4.970   5.998  20.259  0.7020  1.8518 -0.1843
 7039TIP3   OH245311   0.146   0.696  10.733 -0.2827  0.0080  0.0444
 7039TIP3    H145312   0.210   0.740  10.789 -1.3295  1.6247  0.0217
 7039TIP3    H245313   0.074   0.759  10.723 -0.5131 -0.5328 -2.4522
 7040TIP3   OH245314   3.342   4.108  11.590 -0.5610 -0.1509  0.3953
 7040TIP3    H145315   3.304   4.028  11.626  0.8572 -1.2221 -0.3978
 7040TIP3    H245316   3.373   4.083  11.503 -0.6287  1.4357 -0.1174
 7041TIP3   OH245317   2.939   5.789   9.918  0.1156  0.2838  0.6585
 7041TIP3    H145318   2.871   5.745   9.969  0.8654  0.8995  2.2690
 7041TIP3    H245319   2.913   5.777   9.827 -1.2602 -0.9001  1.1761
 7042TIP3   OH245320   6.328   6.215  12.419 -0.5220 -0.2377 -0.4100
 7042TIP3    H145321   6.235   6.235  12.415 -0.3345  0.4948 -1.3333
 7042TIP3    H245322   6.332   6.129  12.462 -1.5837 -0.0759  0.0379
 7043TIP3   OH245323   6.473   5.965   9.788 -0.0998  0.0491  0.7095
 7043TIP3    H145324   6.392   6.005   9.818  1.2059  1.2950  2.7891
 7043TIP3    H245325   6.466   5.873   9.816 -0.2619  0.4547  2.0782
 7044TIP3   OH245326   1.078   5.114  11.783  0.4328 -0.1690 -0.0557
 7044TIP3    H145327   1.006   5.159  11.740  2.1220  0.4647 -2.4767
 7044TIP3    H245328   1.088   5.032  11.733  2.2012  0.3923 -0.7123
 7045TIP3   OH245329   1.350   4.858  11.201 -0.1981 -0.2400 -0.6997
 7045TIP3    H145330   1.373   4.789  11.139  1.6527  0.1126 -0.4506
 7045TIP3    H245331   1.424   4.863  11.261 -2.9468 -2.4154  3.3784
 7046TIP3   OH245332   1.832   4.545   9.230  0.1833  0.1587  0.3938
 7046TIP3    H145333   1.884   4.604   9.284  0.0625 -0.3032  1.0342
 7046TIP3    H245334   1.743   4.579   9.235  0.3518  0.7481 -0.4189
 7047TIP3   OH245335   4.948   2.999  10.159 -0.6564 -0.1137  0.0874
 7047TIP3    H145336   4.979   3.053  10.086 -0.5432  0.8569  0.8222
 7047TIP3    H245337   5.027   2.980  10.210 -0.5355 -1.8537 -0.6981
 7048TIP3   OH245338   5.180   0.634  12.067 -0.3328  0.0491  0.2073
 7048TIP3    H145339   5.270   0.633  12.098  0.1013 -3.2947 -0.6850
 7048TIP3    H245340   5.183   0.681  11.984  0.5985 -0.0570  0.1775
 7049TIP3   OH245341   0.371   1.406   9.986  0.3436  0.3000 -0.2219
 7049TIP3    H145342   0.369   1.484  10.041  0.7134 -0.7568  1.3604
 7049TIP3    H245343   0.462   1.400   9.957  0.3274  0.4138 -0.2997
 7050TIP3   OH245344   0.478   0.316  11.318  0.3683 -0.4063 -0.0256
 7050TIP3    H145345   0.411   0.271  11.370  0.0361  2.0213  1.8258
 7050TIP3    H245346   0.552   0.328  11.378  2.2124 -2.2222 -1.7735
 7051TIP3   OH245347   4.081   3.945   9.703  0.2861  0.4244 -0.6522
 7051TIP3    H145348   4.160   3.980   9.744 -0.3162 -0.9207  1.8747
 7051TIP3    H245349   4.113   3.882   9.639  1.3241 -1.2809  1.4433
 7052TIP3   OH245350   4.393   2.591  10.588 -0.3527 -0.1236  0.1104
 7052TIP3    H145351   4.464   2.552  10.639 -0.6215  0.0779  0.6542
 7052TIP3    H245352   4.436   2.632  10.513  0.2442  0.9917  1.0322
 7053TIP3   OH245353   0.115   3.474   9.573  0.4145 -0.2637 -0.0113
 7053TIP3    H145354   0.116   3.477   9.478 -1.7572  0.9815 -0.0390
 7053TIP3    H245355   0.083   3.386   9.595 -0.8542  0.0728 -0.4769
 7054TIP3   OH245356   3.835   5.467  12.467 -0.3038 -0.3784 -1.0459
 7054TIP3    H145357   3.804   5.522  12.394  1.3411  1.5553 -0.3831
 7054TIP3    H245358   3.903   5.412  12.429 -1.2464 -1.2528 -1.4988
 7055TIP3   OH245359   5.955   6.734  11.814 -0.3457  0.9314  0.3621
 7055TIP3    H145360   5.865   6.715  11.839 -0.2472 -1.8374 -0.9632
 7055TIP3    H245361   5.997   6.765  11.894 -1.8926 -0.1212  1.6315
 7056TIP3   OH245362   0.588   4.818  12.084 -0.8647 -0.1678 -0.3649
 7056TIP3    H145363   0.623   4.756  12.020 -1.0626 -1.5709  0.8314
 7056TIP3    H245364   0.665   4.859  12.122 -0.7212  0.1444 -0.9795
 7057TIP3   OH245365   2.450   3.103  12.059  0.3790 -0.0516 -0.6702
 7057TIP3    H145366   2.521   3.147  12.107 -2.4395  3.0335  1.0487
 7057TIP3    H245367   2.458   3.134  11.969  1.1562  0.3451 -0.4724
 7058TIP3   OH245368   1.144   5.315   9.832  0.1450 -0.2305  0.0881
 7058TIP3    H145369   1.139   5.406   9.858  2.9361 -0.1707  0.7245
 7058TIP3    H245370   1.197   5.315   9.752 -0.0089 -1.2510 -0.0335
 7059TIP3   OH245371   6.470   3.448   9.508  0.0249  0.3276  0.2357
 7059TIP3    H145372   6.446   3.437   9.600  0.6327 -1.2027  0.2465
 7059TIP3    H245373   6.551   3.499   9.511 -0.4863  1.1444  0.4746
 7060TIP3   OH245374   5.268   4.680  12.471  0.2379  0.5250  0.2747
 7060TIP3    H145375   5.218   4.605  12.503 -1.4599  1.3505 -0.3454
 7060TIP3    H245376   5.300   4.723  12.551 -1.2698  0.7859  0.7607
 7061TIP3   OH245377   5.872   4.352  11.802 -0.2749  0.1786 -0.7060
 7061TIP3    H145378   5.867   4.427  11.862 -1.2188 -0.9036  0.6564
 7061TIP3    H245379   5.957   4.312  11.820 -0.5093 -0.0793 -0.1239
 7062TIP3   OH245380   1.681   5.381  11.804 -0.4726  0.2612  0.3268
 7062TIP3    H145381   1.746   5.383  11.734 -1.1656  0.4650 -0.3190
 7062TIP3    H245382   1.732   5.363  11.883  0.5061  1.4723  0.0044
 7063TIP3   OH245383   1.439   4.729  12.816 -0.3558 -0.4171  0.0445
 7063TIP3    H145384   1.356   4.709  12.861 -0.1368 -0.2058  0.5504
 7063TIP3    H245385   1.493   4.651  12.831 -0.0378 -0.0711  0.7417
 7064TIP3   OH245386   6.052   0.110  10.883 -0.3272 -0.0549  0.1853
 7064TIP3    H145387   6.137   0.116  10.839  0.3707 -0.6463  1.4057
 7064TIP3    H245388   6.023   0.201  10.893  0.4730  0.1830  0.3548
 7065TIP3   OH245389   6.429   1.768  11.248 -0.0333 -0.7734  0.3483
 7065TIP3    H145390   6.463   1.820  11.175  0.1299 -0.6927  0.4798
 7065TIP3    H245391   6.337   1.792  11.253 -0.4269 -1.9406 -0.8120
 7066TIP3   OH245392   0.633   1.683  11.694 -0.6917 -0.6595 -0.9831
 7066TIP3    H145393   0.584   1.760  11.724  0.0331 -0.5598 -0.0088
 7066TIP3    H245394   0.719   1.692  11.734 -0.4210 -1.7035 -1.2955
 7067TIP3   OH245395   2.114   5.150  11.868  0.2999  0.3093 -0.1322
 7067TIP3    H145396   2.108   5.162  11.774  0.0039 -1.3347 -0.3635
 7067TIP3    H245397   2.104   5.055  11.881  0.7341  0.4473  1.5142
 7068TIP3   OH245398   5.197   0.835   9.710  0.4607 -0.2302  0.0361
 7068TIP3    H145399   5.257   0.776   9.664  1.6170  1.5051 -0.8364
 7068TIP3    H245400   5.165   0.894   9.641 -0.2937  0.4448  0.9359
 7069TIP3   OH245401   1.254   5.864  11.362 -0.4410  0.0918  0.1558
 7069TIP3    H145402   1.336   5.913  11.369 -0.4865  0.3721 -0.9990
 7069TIP3    H245403   1.189   5.931  11.337 -0.9901 -0.1532  0.9063
 7070TIP3   OH245404   2.704   1.968   9.279 -0.0964  0.4914 -0.9155
 7070TIP3    H145405   2.710   2.022   9.358 -1.0685 -0.9245  0.1795
 7070TIP3    H245406   2.795   1.945   9.259  0.3235  2.2987 -1.2960
 7071TIP3   OH245407   2.543   4.139  10.068  0.4625  0.4812  0.0780
 7071TIP3    H145408   2.560   4.204  10.000 -0.6332 -0.7129 -1.4072
 7071TIP3    H245409   2.607   4.070  10.051  0.9981  0.7252  1.0560
 7072TIP3   OH245410   2.255   4.053  12.374  0.3490 -0.6322 -0.9631
 7072TIP3    H145411   2.240   4.128  12.431  0.0040  0.1159 -2.0270
 7072TIP3    H245412   2.176   3.999  12.384 -0.0144 -0.1558 -1.2627
 7073TIP3   OH245413   3.660   3.579  11.688  0.3412  0.0932 -0.0790
 7073TIP3    H145414   3.609   3.643  11.737 -1.3851 -2.9963  2.5248
 7073TIP3    H245415   3.726   3.549  11.750  1.4107 -0.3268 -1.3942
 7074TIP3   OH245416   1.892   5.076   9.789  0.1633  0.0631 -0.4892
 7074TIP3    H145417   1.911   5.139   9.718  1.1233 -0.5990 -0.8386
 7074TIP3    H245418   1.817   5.114   9.835 -0.0314  0.8637 -1.4316
 7075TIP3   OH245419   2.127   4.856  11.015 -0.2890  0.4727  0.4488
 7075TIP3    H145420   2.153   4.945  11.039 -0.5980  0.5728  0.4257
 7075TIP3    H245421   2.031   4.857  11.019 -0.2594 -0.3022  2.0467
 7076TIP3   OH245422   2.840   1.876  11.485 -0.0880 -0.2097 -0.0705
 7076TIP3    H145423   2.803   1.947  11.433 -0.0219 -1.7039 -2.3117
 7076TIP3    H245424   2.932   1.872  11.459 -0.3868 -1.9135 -1.0526
 7077TIP3   OH245425   2.872   3.572  11.925 -0.5345  0.6987  0.1661
 7077TIP3    H145426   2.879   3.635  11.854  0.7811  0.6532  0.2298
 7077TIP3    H245427   2.904   3.490  11.887 -1.7535  0.1676  0.2293
 7078TIP3   OH245428   2.575   6.051  11.200 -0.5590  0.2576  0.3354
 7078TIP3    H145429   2.632   6.081  11.129 -0.7903  1.2162  0.5321
 7078TIP3    H245430   2.503   6.114  11.200 -1.3827 -0.6636  0.3946
 7079TIP3   OH245431   0.919   5.343  10.950 -0.1701  0.0247  0.2317
 7079TIP3    H145432   0.902   5.414  11.012  0.5452  0.5122 -0.1165
 7079TIP3    H245433   0.843   5.286  10.958 -1.0693  1.1717  0.0483
 7080TIP3   OH245434   0.811   1.853  11.987  0.1197  0.1734 -0.0015
 7080TIP3    H145435   0.873   1.842  12.059 -0.0169 -0.8711 -0.0198
 7080TIP3    H245436   0.728   1.876  12.029 -0.1023 -1.0034  0.2421
 7081TIP3   OH245437   6.495   5.409   9.780 -0.3574  0.0108  0.2747
 7081TIP3    H145438   6.589   5.421   9.791 -0.2766 -1.3348  1.2801
 7081TIP3    H245439   6.487   5.355   9.702 -0.2495 -0.5414  0.6449
 7082TIP3   OH245440   2.655   6.407  10.038  0.4435  0.1199  0.2051
 7082TIP3    H145441   2.657   6.344  10.111  0.7167  0.1716  0.2417
 7082TIP3    H245442   2.739   6.395   9.994  0.3659  0.2397  0.0247
 7083TIP3   OH245443   1.583   1.446  10.264 -0.6559 -0.2351  0.5212
 7083TIP3    H145444   1.615   1.440  10.174 -0.2279  2.5221  0.4203
 7083TIP3    H245445   1.535   1.528  10.268 -0.4372 -0.1318  2.8705
 7084TIP3   OH245446   3.254   3.475  11.302 -0.5416 -0.4324 -0.9519
 7084TIP3    H145447   3.211   3.408  11.356 -0.6414 -0.0481 -0.5482
 7084TIP3    H245448   3.182   3.519  11.257 -0.6695  0.7855  0.3822
 7085TIP3   OH245449   6.060   2.010  10.257  0.7997  0.0388  0.3562
 7085TIP3    H145450   6.092   2.029  10.346 -2.4496  1.5447  1.3472
 7085TIP3    H245451   6.102   2.076  10.202  0.9332  0.7223  1.2470
 7086TIP3   OH245452   0.893   5.007   9.205 -0.1508 -0.0908  0.1913
 7086TIP3    H145453   0.895   4.922   9.249 -0.4656 -0.4052 -0.3922
 7086TIP3    H245454   0.980   5.016   9.166  0.1707  0.2430  0.9654
 7087TIP3   OH245455   4.398   3.700  10.389  0.3790  0.4709 -0.3416
 7087TIP3    H145456   4.442   3.648  10.456  0.7991 -0.7617 -1.5467
 7087TIP3    H245457   4.305   3.680  10.402  0.4731  0.0539 -0.2757
 7088TIP3   OH245458   5.282   1.174   9.727  0.1731  0.5891  0.5310
 7088TIP3    H145459   5.190   1.197   9.742  0.2378  1.2302 -0.0199
 7088TIP3    H245460   5.326   1.258   9.714  0.5956  0.2223 -0.5125
 7089TIP3   OH245461   1.868   5.314   9.285  0.2625 -0.1952  0.3533
 7089TIP3    H145462   1.839   5.234   9.240 -0.3309  0.4289 -0.3888
 7089TIP3    H245463   1.963   5.312   9.276  0.1107  0.6553 -2.2874
 7090TIP3   OH245464   0.274   4.482  12.509  0.5260 -0.0470  0.4232
 7090TIP3    H145465   0.279   4.547  12.439  0.5830  2.2454  2.4180
 7090TIP3    H245466   0.181   4.482  12.534  0.4412 -1.1188  0.1447
 7091TIP3   OH245467   5.045   2.891   9.850 -0.0488 -0.3254 -0.1356
 7091TIP3    H145468   4.962   2.936   9.838  1.0807  1.4867 -1.6643
 7091TIP3    H245469   5.059   2.844   9.768  0.9768  0.4007 -0.4008
 7092TIP3   OH245470   0.730   5.669  12.248 -0.4155  0.3685  0.6205
 7092TIP3    H145471   0.669   5.604  12.214  0.9973 -0.8258  0.2262
 7092TIP3    H245472   0.800   5.672  12.183  0.9349  0.1751  1.9975
 7093TIP3   OH245473   0.113   2.082  11.265  0.2832 -0.3574  0.3188
 7093TIP3    H145474   0.140   2.016  11.201 -0.9913  0.0182 -0.6633
 7093TIP3    H245475   0.185   2.145  11.267  0.9086 -1.0593  0.2380
 7094TIP3   OH245476   1.503   1.720  10.271  0.0199  0.6113  0.0852
 7094TIP3    H145477   1.553   1.772  10.334  1.0945  0.9847 -1.0380
 7094TIP3    H245478   1.512   1.767  10.188 -0.4831 -0.4203 -0.5808
 7095TIP3   OH245479   1.947   6.628  11.764  0.4838  0.5302 -0.3490
 7095TIP3    H145480   2.040   6.647  11.757  0.6887 -0.7675 -1.4754
 7095TIP3    H245481   1.911   6.702  11.813  1.9661  1.4418 -0.5876
 7096TIP3   OH245482   1.495   1.240  10.398 -0.2917 -0.4787 -0.0765
 7096TIP3    H145483   1.541   1.163  10.365  1.7495 -0.1045  1.6958
 7096TIP3    H245484   1.523   1.311  10.341 -0.1122 -0.5687 -0.1010
 7097TIP3   OH245485   5.605   3.596  12.220 -0.3304 -0.2264  0.3823
 7097TIP3    H145486   5.619   3.670  12.279  0.0842  0.2805 -0.3222
 7097TIP3    H245487   5.628   3.519  12.271  0.3707  0.2273  0.7718
 7098TIP3   OH245488   5.802   2.943  10.344 -0.5469  0.2993 -0.0474
 7098TIP3    H145489   5.713   2.971  10.321 -1.9490 -1.9318  2.1545
 7098TIP3    H245490   5.810   2.962  10.438  1.2988  0.3224 -0.1695
 7099TIP3   OH245491   6.301   5.028  10.841  0.0722 -0.4229  0.3482
 7099TIP3    H145492   6.312   5.085  10.764  0.0803 -0.2447  0.4801
 7099TIP3    H245493   6.367   5.058  10.903 -1.5020  1.0771  1.3906
 7100TIP3   OH245494   2.544   0.767  11.086  0.2344  0.2002 -0.2057
 7100TIP3    H145495   2.584   0.680  11.094 -1.0613 -0.3659  0.4122
 7100TIP3    H245496   2.560   0.792  10.995 -0.5832 -1.3102 -0.8076
 7101TIP3   OH245497   0.547   6.109   9.450  0.2140 -0.1135 -0.5935
 7101TIP3    H145498   0.622   6.051   9.438  1.5670  0.7173  2.6290
 7101TIP3    H245499   0.477   6.070   9.398  2.4114 -1.7921 -2.4823
 7102TIP3   OH245500   3.951   4.290  11.694  0.2537  0.2353 -0.1969
 7102TIP3    H145501   3.929   4.301  11.601 -0.8073  1.0153  0.1283
 7102TIP3    H245502   3.891   4.222  11.725  1.7220 -1.2596 -0.4257
 7103TIP3   OH245503   1.276   2.308  11.171  0.0380 -0.7271  0.2043
 7103TIP3    H145504   1.329   2.272  11.100 -0.7907  0.7805 -1.2565
 7103TIP3    H245505   1.328   2.381  11.205 -0.3336 -0.3499 -0.0372
 7104TIP3   OH245506   5.659   1.659  11.632 -0.6409 -0.2959  0.1414
 7104TIP3    H145507   5.738   1.671  11.579  0.6808 -1.4954  1.7247
 7104TIP3    H245508   5.665   1.726  11.700 -0.6043 -0.8601  0.6977
 7105TIP3   OH245509   4.846   2.771  10.398  0.1113  0.3022 -0.5122
 7105TIP3    H145510   4.818   2.815  10.317  1.1961 -0.3021 -1.2371
 7105TIP3    H245511   4.791   2.809  10.466 -1.5400  0.0817 -1.6803
 7106TIP3   OH245512   0.485   3.414  10.172 -0.3640 -0.0622  0.2704
 7106TIP3    H145513   0.559   3.353  10.171 -0.1959  0.1453 -0.3874
 7106TIP3    H245514   0.525   3.500  10.168 -0.6364  0.0540 -0.0262
 7107TIP3   OH245515   4.013   6.608   9.485  0.0902 -0.3642  0.6130
 7107TIP3    H145516   3.991   6.536   9.543  0.7437 -1.5353 -0.5268
 7107TIP3    H245517   4.032   6.566   9.401  0.3064  1.1560 -0.1356
 7108TIP3   OH245518   3.156   6.382   9.820 -0.1627 -0.3415 -0.6713
 7108TIP3    H145519   3.178   6.469   9.851 -1.1664  0.2009 -1.4146
 7108TIP3    H245520   3.234   6.353   9.773 -0.5169  1.0273 -2.1998
 7109TIP3   OH245521   4.388   3.230  11.381  0.0642  0.1357 -0.3903
 7109TIP3    H145522   4.376   3.222  11.287  1.8734 -0.8489 -0.5933
 7109TIP3    H245523   4.483   3.241  11.392 -0.2353  1.6730  1.2507
 7110TIP3   OH245524   4.340   5.440   9.395 -0.1288  0.2682 -1.0395
 7110TIP3    H145525   4.352   5.532   9.418  0.7115 -0.1287  0.2651
 7110TIP3    H245526   4.258   5.415   9.437  0.0849  0.2136 -0.6451
 7111TIP3   OH245527   5.379   2.152  12.667 -0.2690  0.2137 -0.5129
 7111TIP3    H145528   5.461   2.198  12.681  0.1948 -1.0990  1.4925
 7111TIP3    H245529   5.314   2.222  12.653  0.9540  1.2950 -0.9891
 7112TIP3   OH245530   6.039   0.751  10.842  0.3239  0.0691 -0.4593
 7112TIP3    H145531   6.087   0.808  10.902  0.3895  0.3264 -0.7544
 7112TIP3    H245532   6.057   0.786  10.755 -0.2986  0.0958 -0.5846
 7113TIP3   OH245533   2.317   2.526  11.316 -0.1819 -0.2154  0.4940
 7113TIP3    H145534   2.395   2.505  11.265 -0.3952 -0.7370  0.3832
 7113TIP3    H245535   2.340   2.606  11.363  0.2998 -0.1807  0.2021
 7114TIP3   OH245536   1.844   3.768  10.047 -0.4297  0.9425  0.2885
 7114TIP3    H145537   1.929   3.740  10.015 -0.7835 -0.2877  0.3434
 7114TIP3    H245538   1.785   3.756   9.972 -0.5770  1.6846  0.2802
 7115TIP3   OH245539   4.940   1.806  10.150  0.2012  0.7461 -0.1404
 7115TIP3    H145540   4.845   1.812  10.152 -0.0753 -2.1426  1.8875
 7115TIP3    H245541   4.958   1.736  10.087  0.9182  0.5908  0.2317
 7116TIP3   OH245542   5.097   1.552  11.329  0.2607 -0.4010 -0.5594
 7116TIP3    H145543   5.009   1.563  11.293  0.4521 -1.2013 -1.2911
 7116TIP3    H245544   5.146   1.626  11.293 -0.3001  0.5712  0.5621
 7117TIP3   OH245545   2.372   0.949  11.506  0.2439 -0.6001  0.0448
 7117TIP3    H145546   2.395   1.019  11.445  0.3444 -1.6011 -1.1075
 7117TIP3    H245547   2.453   0.929  11.552 -0.2281  1.4443  1.9602
 7118TIP3   OH245548   3.089   3.359  12.041  0.0671 -0.0556  0.7388
 7118TIP3    H145549   3.017   3.316  12.088 -0.7874 -0.7435 -1.1001
 7118TIP3    H245550   3.168   3.319  12.076 -0.6110 -1.5656  0.6541
 7119TIP3   OH245551   0.191   4.423  12.832  0.5111 -0.5077 -0.0421
 7119TIP3    H145552   0.215   4.382  12.915  2.0821 -0.7477 -0.5897
 7119TIP3    H245553   0.250   4.497  12.823 -1.8371  1.5710  0.6002
 7120TIP3   OH245554   5.829   4.923  10.512 -0.2436 -0.5195  0.4726
 7120TIP3    H145555   5.816   4.999  10.455  3.1205 -0.9606 -1.1789
 7120TIP3    H245556   5.772   4.855  10.476  1.1823 -0.5196 -1.9998
 7121TIP3   OH245557   3.136   4.639  12.437  0.2842  0.0788 -0.1219
 7121TIP3    H145558   3.085   4.562  12.414  1.4845 -0.9635  0.5841
 7121TIP3    H245559   3.138   4.639  12.533  1.9403 -0.1601 -0.1274
 7122TIP3   OH245560   6.433   4.501  12.548  0.1027  0.6360 -0.3263
 7122TIP3    H145561   6.490   4.525  12.621 -0.8521 -0.0095  0.6394
 7122TIP3    H245562   6.388   4.582  12.525 -1.0651  0.4200  1.1166
 7123TIP3   OH245563   3.091   4.475  10.313 -0.0333 -0.2258 -0.2991
 7123TIP3    H145564   3.135   4.544  10.263  1.5840 -0.6087  0.5112
 7123TIP3    H245565   3.154   4.403  10.313 -0.3453 -0.5454  1.5114
 7124TIP3   OH245566   4.645   6.295  12.154  0.1445 -0.2257 -0.0810
 7124TIP3    H145567   4.671   6.373  12.105 -1.4406  1.3693  1.4484
 7124TIP3    H245568   4.723   6.271  12.205  0.4101  0.8397  0.0251
 7125TIP3   OH245569   5.315   3.434  10.259 -0.3277 -0.0476  0.1146
 7125TIP3    H145570   5.369   3.354  10.259 -1.2135 -0.7130 -1.8828
 7125TIP3    H245571   5.302   3.454  10.351  2.4869 -0.4286  0.6829
 7126TIP3   OH245572   2.924   3.930  10.492 -0.2751  0.1066  0.3369
 7126TIP3    H145573   2.980   4.008  10.492  1.9998 -1.4087  0.5791
 7126TIP3    H245574   2.845   3.957  10.447  0.6581  2.3991 -0.0778
 7127TIP3   OH245575   4.091   3.333  10.567  0.2022  0.2440 -0.1526
 7127TIP3    H145576   4.040   3.399  10.613 -0.5595 -0.5439  0.1790
 7127TIP3    H245577   4.061   3.337  10.477  0.8277  0.9696 -0.3373
 7128TIP3   OH245578   6.391   4.613  11.805  0.1597 -0.2440  0.5259
 7128TIP3    H145579   6.329   4.542  11.786  0.5895 -0.1739 -1.2811
 7128TIP3    H245580   6.459   4.604  11.738  0.0405  2.0990  0.0051
 7129TIP3   OH245581   2.980   4.043  11.297  0.1472 -0.2149 -0.7948
 7129TIP3    H145582   2.949   4.014  11.211 -2.4014 -0.4226  0.0886
 7129TIP3    H245583   2.899   4.054  11.348  1.4213  2.1857  0.8735
 7130TIP3   OH245584   2.761   5.998  10.485  0.5048  0.2189  0.0024
 7130TIP3    H145585   2.673   6.036  10.488  1.2196  2.0537 -0.3813
 7130TIP3    H245586   2.791   5.999  10.576 -0.0184 -0.8624  0.2043
 7131TIP3   OH245587   4.804   3.269  10.254 -0.4017  0.0621 -0.4095
 7131TIP3    H145588   4.897   3.291  10.260 -0.2046 -1.0763  2.1306
 7131TIP3    H245589   4.803   3.179  10.221 -0.1819 -1.5880  3.4847
 7132TIP3   OH245590   1.155   0.120  11.274 -0.7104 -0.3175  0.3532
 7132TIP3    H145591   1.124   0.106  11.364 -0.8406 -0.4783  0.2832
 7132TIP3    H245592   1.076   0.120  11.221 -0.5652 -1.0938  0.1289
 7133TIP3   OH245593   2.060   6.361  11.709  0.1855  0.4037 -0.1023
 7133TIP3    H145594   2.011   6.423  11.656 -1.4987 -2.6424 -2.4252
 7133TIP3    H245595   2.020   6.276  11.690  2.6113 -1.5219  2.5139
 7134TIP3   OH245596   0.248   4.101  11.489 -0.1309 -0.1487  0.1558
 7134TIP3    H145597   0.269   4.011  11.513  2.2591  0.0484 -0.9212
 7134TIP3    H245598   0.199   4.135  11.564 -1.2965 -2.3676  0.4841
 7135TIP3   OH245599   4.347   5.378  10.630 -0.3667 -0.8501 -0.0602
 7135TIP3    H145600   4.345   5.424  10.546 -2.0977 -0.2740  0.2536
 7135TIP3    H245601   4.283   5.307  10.620  0.8184 -1.9754  0.1416
 7136TIP3   OH245602   0.478   6.309  11.948 -0.0785 -0.1324 -0.3665
 7136TIP3    H145603   0.537   6.334  12.019 -2.2833 -0.5850  1.7307
 7136TIP3    H245604   0.532   6.254  11.891  1.0792 -2.2702  2.5399
 7137TIP3   OH245605   6.545   1.365  10.615 -0.2631  0.8604  0.0782
 7137TIP3    H145606   6.596   1.285  10.611 -3.1752 -1.2393  1.6122
 7137TIP3    H245607   6.560   1.408  10.530  0.6854 -1.7736 -1.1702
 7138TIP3   OH245608   6.203   6.346  11.475 -0.0560  0.2744 -0.4052
 7138TIP3    H145609   6.221   6.434  11.506  0.7510  0.1368 -0.4547
 7138TIP3    H245610   6.289   6.311  11.449 -0.5647  0.0434 -1.8919
 7139TIP3   OH245611   0.897   1.828  11.512  0.4097  0.3700  0.0832
 7139TIP3    H145612   0.816   1.877  11.504 -0.3460 -1.0693 -2.0014
 7139TIP3    H245613   0.909   1.816  11.606 -1.1136  1.6707  0.4759
 7140TIP3   OH245614   0.890   1.414  10.038  0.1582 -0.1703 -0.0373
 7140TIP3    H145615   0.943   1.461  10.103 -0.6348  0.1269  0.4097
 7140TIP3    H245616   0.933   1.330  10.027  1.4981  0.5650 -0.6971
 7141TIP3   OH245617   2.926   0.247  12.078  0.2018  0.4386 -0.2584
 7141TIP3    H145618   2.904   0.166  12.125 -1.6043  0.5361 -0.8820
 7141TIP3    H245619   2.880   0.316  12.126 -1.2345  0.6068 -1.8105
 7142TIP3   OH245620   3.468   5.803  11.775  0.0958 -0.2477 -0.1621
 7142TIP3    H145621   3.481   5.887  11.819 -0.8245 -0.3014  0.2171
 7142TIP3    H245622   3.376   5.803  11.748 -0.1479 -1.4778  0.5780
 7143TIP3   OH245623   5.275   2.327   9.642 -0.0985  0.2366  0.1478
 7143TIP3    H145624   5.213   2.392   9.675  1.6022  2.1439 -0.1769
 7143TIP3    H245625   5.277   2.341   9.548 -1.3620 -1.8899 -0.2479
 7144TIP3   OH245626   4.416   3.102  12.468  0.0662  0.0227  0.4478
 7144TIP3    H145627   4.416   3.020  12.516  0.6332  0.1680  0.6977
 7144TIP3    H245628   4.506   3.113  12.437 -0.5135 -0.6296 -1.6347
 7145TIP3   OH245629   4.347   4.420   9.265  0.0552 -0.7295  0.1235
 7145TIP3    H145630   4.302   4.503   9.249  1.4201 -0.3202 -1.9129
 7145TIP3    H245631   4.283   4.354   9.239 -0.7202 -0.3167  0.9159
 7146TIP3   OH245632   4.223   6.092  12.182  0.2534 -0.2957  0.6526
 7146TIP3    H145633   4.266   6.020  12.230 -0.7051 -1.3397  0.0019
 7146TIP3    H245634   4.143   6.109  12.232  1.2416  1.4784  1.7237
 7147TIP3   OH245635   1.523   4.387  11.234  0.2640  0.1450  0.2488
 7147TIP3    H145636   1.512   4.418  11.324 -0.0746  1.6985 -0.2965
 7147TIP3    H245637   1.501   4.463  11.180 -1.1140 -1.2088 -1.1970
 7148TIP3   OH245638   0.542   6.560   9.568 -0.4379 -0.0861 -0.4937
 7148TIP3    H145639   0.530   6.653   9.550  3.3997  0.7481  0.3021
 7148TIP3    H245640   0.480   6.540   9.638 -3.0253  1.1443 -2.2650
 7149TIP3   OH245641   3.026   4.791   9.966  0.0501 -0.1858 -0.4521
 7149TIP3    H145642   2.982   4.709   9.989 -4.6432  1.9634 -0.6541
 7149TIP3    H245643   3.055   4.777   9.875 -3.7733 -0.7136 -1.7698
 7150TIP3   OH245644   5.457   6.431  12.178  0.4601 -0.1186  0.3702
 7150TIP3    H145645   5.491   6.393  12.098  0.6541  0.7608  0.0207
 7150TIP3    H245646   5.495   6.519  12.181 -0.4981  0.3031  0.8031
 7151TIP3   OH245647   3.724   6.098  10.686  0.4093 -0.3373  0.9052
 7151TIP3    H145648   3.703   6.013  10.650  1.1147  0.7773 -2.4668
 7151TIP3    H245649   3.810   6.087  10.726 -0.0496 -1.4440  1.6201
 7152TIP3   OH245650   6.633   5.655  11.501  0.6884 -0.0445  0.9580
 7152TIP3    H145651   6.725   5.683  11.507  1.0970 -0.8802 -0.6847
 7152TIP3    H245652   6.623   5.628  11.410 -0.9091 -0.9800  1.3767
 7153TIP3   OH245653   2.951   4.849  10.353 -0.1490  0.6509 -0.0663
 7153TIP3    H145654   2.956   4.856  10.257  1.7004 -0.9999 -0.1545
 7153TIP3    H245655   2.910   4.763  10.369 -0.0638  0.7295  0.6110
 7154TIP3   OH245656   2.701   4.381  11.365  0.3962 -0.3356 -0.3748
 7154TIP3    H145657   2.674   4.289  11.369 -2.2013  0.3854  0.6866
 7154TIP3    H245658   2.651   4.417  11.292  0.0850  0.5778  0.2674
 7155TIP3   OH245659   2.640   4.750  10.066 -0.3141 -0.1391 -0.2655
 7155TIP3    H145660   2.555   4.721  10.033 -0.0423 -1.8895  0.4697
 7155TIP3    H245661   2.675   4.674  10.113 -0.0022  1.7044  2.7640
 7156TIP3   OH245662   5.267   3.706  11.996  0.3840  0.9479  0.1444
 7156TIP3    H145663   5.218   3.709  12.078  0.8687 -1.9499  0.6429
 7156TIP3    H245664   5.359   3.705  12.022  0.6837  3.1858 -0.6441
 7157TIP3   OH245665   2.626   0.966   9.913  0.1306 -0.4676 -0.3549
 7157TIP3    H145666   2.544   1.008   9.886 -0.1003  0.2429  1.3205
 7157TIP3    H245667   2.609   0.936  10.002  2.4281  1.9923  1.0654
 7158TIP3   OH245668   3.802   6.456   9.127  0.4952 -0.3602 -0.7025
 7158TIP3    H145669   3.784   6.495   9.041  0.8329  0.2196 -0.5162
 7158TIP3    H245670   3.726   6.401   9.145 -0.8115  1.5358 -0.2094
 7159TIP3   OH245671   3.093   2.271  10.514  0.6897 -0.7456 -0.3163
 7159TIP3    H145672   3.095   2.220  10.595  0.1376 -0.5566 -0.1766
 7159TIP3    H245673   3.062   2.357  10.540 -0.9144 -1.0939 -0.9173
 7160TIP3   OH245674   1.989   0.236  10.353  0.1297  0.1193  0.7878
 7160TIP3    H145675   1.894   0.242  10.351 -0.1038 -2.4117 -1.5613
 7160TIP3    H245676   2.007   0.169  10.419  0.1621 -0.3196  0.3426
 7161TIP3   OH245677   5.737   0.092   9.799  0.0161  0.3590  0.0120
 7161TIP3    H145678   5.658   0.145   9.789 -0.1908 -0.3749 -3.8572
 7161TIP3    H245679   5.708   0.003   9.777  1.5795 -0.2264  0.2367
 7162TIP3   OH245680   3.070   5.327   9.408 -0.2047 -0.4075 -0.0249
 7162TIP3    H145681   3.073   5.398   9.344 -0.7547  0.4082  0.8218
 7162TIP3    H245682   3.148   5.275   9.390  0.5303  0.7449 -0.3004
 7163TIP3   OH245683   3.424   2.626  12.053 -0.0383 -0.1537  0.1757
 7163TIP3    H145684   3.497   2.564  12.043 -0.9012 -1.2387  0.4256
 7163TIP3    H245685   3.387   2.607  12.139 -1.3112 -0.4054 -0.3989
 7164TIP3   OH245686   1.854   4.899  10.995 -0.7278 -0.1216  0.0286
 7164TIP3    H145687   1.788   4.958  11.032 -0.7596 -0.1201 -0.0304
 7164TIP3    H245688   1.863   4.927  10.904  1.7617  2.0838  0.8164
 7165TIP3   OH245689   1.788   0.433  11.228 -0.1894 -0.1432  0.1024
 7165TIP3    H145690   1.861   0.495  11.223 -0.7477  0.4141 -1.5197
 7165TIP3    H245691   1.787   0.405  11.320  1.1815  0.8966  0.4627
 7166TIP3   OH245692   5.556   2.623  11.111  0.6820 -0.2780  0.0827
 7166TIP3    H145693   5.465   2.594  11.118  0.3500  0.5414 -0.7396
 7166TIP3    H245694   5.583   2.596  11.023  1.5734 -1.4135  0.6713
 7167TIP3   OH245695   2.853   1.736  10.235  0.2918  0.2356 -0.1146
 7167TIP3    H145696   2.898   1.676  10.175  0.0730 -0.9067  0.8372
 7167TIP3    H245697   2.885   1.713  10.322 -1.4049  0.0290  0.4976
 7168TIP3   OH245698   5.171   5.269  10.829 -0.6754 -0.1016  0.5379
 7168TIP3    H145699   5.253   5.261  10.782 -0.7782  2.6726 -0.3311
 7168TIP3    H245700   5.196   5.282  10.921 -0.3268 -2.0954  0.7565
 7169TIP3   OH245701   1.479   5.685  10.545  0.3360 -0.5781  0.0934
 7169TIP3    H145702   1.406   5.745  10.528  0.7995 -0.1440 -0.3707
 7169TIP3    H245703   1.468   5.661  10.637  0.0839  0.1365  0.2594
 7170TIP3   OH245704   3.671   6.551  11.470  0.4805 -0.0934 -0.6113
 7170TIP3    H145705   3.669   6.473  11.526 -0.6140 -0.6722 -1.4019
 7170TIP3    H245706   3.580   6.561  11.440  0.4507  1.9516  0.0655
 7171TIP3   OH245707   1.636   2.973   9.403  0.1322  0.2867 -0.1626
 7171TIP3    H145708   1.598   2.928   9.479  0.8365  0.0641  0.0669
 7171TIP3    H245709   1.565   3.029   9.370  0.2894  1.6205  1.6332
 7172TIP3   OH245710   5.533   6.363   9.730 -0.3927  0.5692  0.0876
 7172TIP3    H145711   5.485   6.302   9.787 -0.7674  1.8434  1.1763
 7172TIP3    H245712   5.465   6.416   9.689 -0.1233 -0.2400 -1.5275
 7173TIP3   OH245713   2.770   4.339  10.440 -0.2940  0.8827 -0.6110
 7173TIP3    H145714   2.820   4.288  10.377 -0.9866 -1.7858  0.8663
 7173TIP3    H245715   2.686   4.355  10.397  0.5400  2.4722 -1.7791
 7174TIP3   OH245716   4.173   0.178  10.094 -0.0780 -0.0647  0.6193
 7174TIP3    H145717   4.112   0.245  10.062 -1.1117 -1.4536 -0.3918
 7174TIP3    H245718   4.137   0.095  10.064  1.5871 -1.0480  1.1903
 7175TIP3   OH245719   1.541   2.863  10.185  0.0801 -0.1913 -0.3659
 7175TIP3    H145720   1.631   2.841  10.211  0.3156  1.1137 -0.0196
 7175TIP3    H245721   1.491   2.784  10.205  1.0148 -0.6738  0.1486
 7176TIP3   OH245722   6.487   1.800  11.912  0.5487  0.2463 -0.2157
 7176TIP3    H145723   6.402   1.817  11.952  0.2587 -0.3856 -0.5468
 7176TIP3    H245724   6.476   1.716  11.867  1.4847 -0.0840  0.1372
 7177TIP3   OH245725   5.857   1.872  10.437  0.7735  0.1879  0.3329
 7177TIP3    H145726   5.918   1.908  10.372  2.1235  2.1700  2.5386
 7177TIP3    H245727   5.796   1.944  10.456 -0.3085 -0.7335  0.4596
 7178TIP3   OH245728   0.792   0.775  10.852 -0.4499  0.1906  0.0513
 7178TIP3    H145729   0.865   0.837  10.853 -1.2900  1.2057  0.5282
 7178TIP3    H245730   0.735   0.806  10.782 -1.1336  0.2536  0.6328
 7179TIP3   OH245731   1.671   0.469   9.805  0.1449  0.1434  0.2705
 7179TIP3    H145732   1.669   0.380   9.768  0.2523 -0.5126  1.7978
 7179TIP3    H245733   1.584   0.504   9.785 -0.7530 -1.1659  1.6560
 7180TIP3   OH245734   6.294   5.424  12.811 -0.0432  0.1982  0.3503
 7180TIP3    H145735   6.216   5.377  12.843 -0.1127  0.2170  0.2105
 7180TIP3    H245736   6.346   5.356  12.767 -1.4428  0.6924 -2.3079
 7181TIP3   OH245737   1.565   5.533  11.489 -0.1587 -0.2835 -0.3394
 7181TIP3    H145738   1.496   5.506  11.429 -0.6135 -1.3612  0.6158
 7181TIP3    H245739   1.558   5.628  11.493 -1.5949 -0.3657 -0.2803
 7182TIP3   OH245740   4.440   5.050  10.699  0.1683 -0.0017 -0.1536
 7182TIP3    H145741   4.347   5.069  10.711 -0.2378 -1.2300 -1.1067
 7182TIP3    H245742   4.445   5.002  10.616  1.7249  0.5036 -0.3951
 7183TIP3   OH245743   1.175   4.660  11.047  0.3105 -0.6808 -0.2469
 7183TIP3    H145744   1.140   4.623  10.966  0.5704 -0.7262 -0.3410
 7183TIP3    H245745   1.270   4.645  11.041  0.3506 -0.5261 -0.0167
 7184TIP3   OH245746   6.263   4.781  11.993 -0.6200 -0.2473 -0.3507
 7184TIP3    H145747   6.224   4.701  12.027 -0.6240 -0.5022 -0.9428
 7184TIP3    H245748   6.345   4.753  11.953 -0.1896  0.1751  0.2154
 7185TIP3   OH245749   2.058   1.107  12.296  0.8427  0.5364  0.2749
 7185TIP3    H145750   2.053   1.011  12.298 -1.0142  0.5871 -0.2676
 7185TIP3    H245751   2.135   1.128  12.349  2.0365 -1.2874 -0.6263
 7186TIP3   OH245752   2.012   2.778  12.118  0.2065  0.5165 -0.4189
 7186TIP3    H145753   2.078   2.845  12.103 -0.1354  0.5900 -1.6691
 7186TIP3    H245754   2.051   2.721  12.185  1.4192  0.7037 -0.9419
 7187TIP3   OH245755   6.024   3.458  10.817  0.4497  0.2857  0.2013
 7187TIP3    H145756   6.091   3.466  10.885 -1.0553  0.6810  1.6740
 7187TIP3    H245757   5.956   3.519  10.842 -2.6630 -3.2573  1.3698
 7188TIP3   OH245758   1.559   0.399  11.411 -0.4992  0.3813 -0.1873
 7188TIP3    H145759   1.523   0.311  11.421 -1.3618  0.7309 -0.1088
 7188TIP3    H245760   1.604   0.416  11.493  1.3335 -0.6991 -0.9050
 7189TIP3   OH245761   2.874   0.518  10.744 -0.4424 -0.3722  0.3571
 7189TIP3    H145762   2.932   0.594  10.747  0.5185 -0.7823 -3.2063
 7189TIP3    H245763   2.930   0.447  10.712 -1.5383 -2.4212  2.6712
 7190TIP3   OH245764   2.143   5.115  10.122  0.4536 -0.6512  0.1972
 7190TIP3    H145765   2.193   5.036  10.145  1.3087 -0.2527 -0.2674
 7190TIP3    H245766   2.052   5.088  10.130  0.7117 -1.1302  1.9941
 7191TIP3   OH245767   6.197   1.587  11.253  0.1170  0.0551  0.1361
 7191TIP3    H145768   6.130   1.531  11.214 -0.2406 -0.8365  1.9348
 7191TIP3    H245769   6.275   1.532  11.259  0.2038  0.2185  0.5535
 7192TIP3   OH245770   5.593   0.589   9.762  0.7141 -0.0195 -0.5654
 7192TIP3    H145771   5.519   0.622   9.711  0.3555 -1.4478 -1.0118
 7192TIP3    H245772   5.569   0.606   9.853  1.3880  2.6208 -0.8009
 7193TIP3   OH245773   3.734   3.374  11.492 -0.1329 -0.7079 -0.1033
 7193TIP3    H145774   3.665   3.355  11.428  0.1820 -1.2755 -0.2812
 7193TIP3    H245775   3.695   3.438  11.551 -0.7312 -0.8403 -0.3485
 7194TIP3   OH245776   0.881   5.269  11.994 -0.1592 -0.3273  0.1410
 7194TIP3    H145777   0.866   5.273  11.900 -2.2701 -1.7679  0.3408
 7194TIP3    H245778   0.934   5.190  12.006 -1.2865 -1.0975  0.2469
 7195TIP3   OH245779   0.199   4.758  12.017 -0.6291 -0.3461 -0.0694
 7195TIP3    H145780   0.108   4.745  12.043 -0.5009  0.0199  0.6079
 7195TIP3    H245781   0.202   4.733  11.925 -1.8258  1.4322 -0.6421
 7196TIP3   OH245782   5.072   0.018  11.741 -0.1621  0.4987 -0.2306
 7196TIP3    H145783   5.136   0.084  11.714  1.4652 -0.8040  0.2701
 7196TIP3    H245784   5.114  -0.066  11.718 -1.6921 -0.3920  0.1369
 7197TIP3   OH245785   2.074   3.816  10.704  0.0143  0.6311  0.8137
 7197TIP3    H145786   2.105   3.904  10.724 -1.3432  1.3150  0.0700
 7197TIP3    H245787   1.985   3.829  10.673  0.2203 -0.8776 -0.5314
 7198TIP3   OH245788   0.796   0.285  12.255 -0.0650  0.3094 -0.0033
 7198TIP3    H145789   0.880   0.277  12.301  0.3592  0.7634 -0.6931
 7198TIP3    H245790   0.779   0.197  12.222 -0.0331  0.1368  0.4255
 7199TIP3   OH245791   3.040   3.264   9.444 -0.1991 -0.6181 -0.0310
 7199TIP3    H145792   3.035   3.307   9.359 -0.1757 -2.7424 -1.1863
 7199TIP3    H245793   2.949   3.256   9.472 -0.1834  0.4210  0.3441
 7200TIP3   OH245794   3.195   6.232  10.887  0.1394 -0.5066 -0.0627
 7200TIP3    H145795   3.188   6.239  10.982  0.2897 -0.6809 -0.0390
 7200TIP3    H245796   3.286   6.254  10.867  0.1101 -0.4777 -0.1653
 7201TIP3   OH245797   0.673   2.645  10.157  0.3822 -0.3712 -0.3852
 7201TIP3    H145798   0.612   2.700  10.206 -1.5939 -1.3690 -1.6025
 7201TIP3    H245799   0.748   2.633  10.216 -0.3925  1.2407  0.9978
 7202TIP3   OH245800   0.304   0.496  10.635 -0.5487  0.6391 -0.1736
 7202TIP3    H145801   0.235   0.554  10.667  0.0367  1.5686 -0.5716
 7202TIP3    H245802   0.288   0.491  10.541 -0.9708 -0.3689 -0.0674
 7203TIP3   OH245803   4.384   0.112   9.663  0.3448  0.6949 -0.0554
 7203TIP3    H145804   4.412   0.042   9.721  0.0108  1.2320  0.7739
 7203TIP3    H245805   4.465   0.143   9.622  0.5252  0.0132 -0.2287
 7204TIP3   OH245806   5.697   3.957  12.983 -0.1558  0.7955  0.1117
 7204TIP3    H145807   5.640   4.002  12.921  0.8512  1.4469 -0.3707
 7204TIP3    H245808   5.638   3.925  13.051 -1.3594 -0.3848 -1.4241
 7205TIP3   OH245809   0.847   5.003  11.451 -0.3294  0.3199 -0.2862
 7205TIP3    H145810   0.921   4.961  11.495  1.2631  4.3466  1.3489
 7205TIP3    H245811   0.799   5.047  11.521 -2.3549  0.5600 -1.7351
 7206TIP3   OH245812   4.445   5.352  10.074  0.1228  1.0881 -0.2932
 7206TIP3    H145813   4.352   5.331  10.059  0.0591  1.2950 -0.1885
 7206TIP3    H245814   4.460   5.327  10.165  1.0745 -2.2803 -1.2165
 7207TIP3   OH245815   3.897   5.084  12.414  0.1754 -0.3638  0.2143
 7207TIP3    H145816   3.969   5.117  12.360 -0.1908  1.0860  0.5729
 7207TIP3    H245817   3.818   5.107  12.365 -0.1131  0.0170  0.8446
 7208TIP3   OH245818   3.282   1.171  12.350 -0.6978  0.2758  0.0306
 7208TIP3    H145819   3.293   1.155  12.443  1.9137  0.9657 -0.0842
 7208TIP3    H245820   3.205   1.228  12.344  0.4664  2.1863  2.0247
 7209TIP3   OH245821   5.573   1.807  10.493  0.3920  0.2898 -0.6953
 7209TIP3    H145822   5.549   1.764  10.411 -3.1181 -1.2103  0.9235
 7209TIP3    H245823   5.630   1.744  10.537  1.3643  0.6210 -1.4351
 7210TIP3   OH245824   0.888   6.268  10.824 -0.4263  0.0826 -0.0629
 7210TIP3    H145825   0.906   6.318  10.903 -0.5884 -1.9595  1.3478
 7210TIP3    H245826   0.859   6.333  10.761 -0.6614  1.7459  1.6621
 7211TIP3   OH245827   3.012   0.764  10.744 -0.2982 -0.1478 -0.1562
 7211TIP3    H145828   3.104   0.767  10.719  0.1142  0.8364  1.3236
 7211TIP3    H245829   2.991   0.854  10.769 -1.4718 -0.4925  0.1730
 7212TIP3   OH245830   1.534   5.244  11.220 -0.3066  0.3995 -0.5774
 7212TIP3    H145831   1.469   5.225  11.153 -1.2845 -0.8630  0.6667
 7212TIP3    H245832   1.489   5.302  11.281  0.8053  2.1278 -1.3346
 7213TIP3   OH245833   3.545   0.511  12.101  0.4527 -0.1207 -0.2404
 7213TIP3    H145834   3.557   0.591  12.153 -1.6733  0.8147 -1.0556
 7213TIP3    H245835   3.465   0.471  12.136  0.1167 -0.5460 -1.4474
 7214TIP3   OH245836   3.404   3.415  12.695 -0.4512  0.0427  0.3822
 7214TIP3    H145837   3.405   3.511  12.688 -0.6963 -0.0431 -1.5892
 7214TIP3    H245838   3.496   3.390  12.691 -0.4592  0.1337 -1.6538
 7215TIP3   OH245839   4.554   6.458   9.706  0.0131 -0.7943  0.3643
 7215TIP3    H145840   4.555   6.444   9.801 -0.5913  1.2609  0.7274
 7215TIP3    H245841   4.629   6.516   9.689 -1.7511  1.5900  0.1548
 7216TIP3   OH245842   0.648   0.289  10.286  0.1653  0.6830 -0.2983
 7216TIP3    H145843   0.651   0.366  10.230 -0.8519  0.7055 -0.3385
 7216TIP3    H245844   0.573   0.239  10.255  0.7940 -0.3255 -0.2569
 7217TIP3   OH245845   0.234   1.997  11.721 -0.6098 -0.1922  0.1302
 7217TIP3    H145846   0.198   1.925  11.669 -0.3068 -0.0029 -0.3453
 7217TIP3    H245847   0.267   2.059  11.656  1.9454 -1.0236  0.5254
 7218TIP3   OH245848   5.733   2.152  11.664 -0.4829 -0.0620 -0.4161
 7218TIP3    H145849   5.787   2.225  11.695 -0.0359 -1.2076  1.6843
 7218TIP3    H245850   5.672   2.135  11.735  1.6502 -3.9006  0.7906
 7219TIP3   OH245851   6.595   5.278  10.485  0.7883  0.0341 -0.6735
 7219TIP3    H145852   6.637   5.360  10.513 -0.2349  0.5125 -0.4855
 7219TIP3    H245853   6.640   5.210  10.535 -0.0137  0.7348  1.0973
 7220TIP3   OH245854   0.670   2.445  11.095 -0.6977  0.1323 -0.2368
 7220TIP3    H145855   0.685   2.410  11.183 -2.8128 -0.1152  0.0836
 7220TIP3    H245856   0.690   2.538  11.103 -0.0905 -0.0355  0.2882
 7221TIP3   OH245857   2.178   5.144  10.495 -0.1367 -0.1529  0.3469
 7221TIP3    H145858   2.251   5.150  10.433  0.0564 -0.1017  0.5798
 7221TIP3    H245859   2.131   5.064  10.469  0.2766 -0.4468  0.4992
 7222TIP3   OH245860   0.973   5.122  10.110 -0.0829 -0.2309  0.3509
 7222TIP3    H145861   1.047   5.168  10.071  0.2419 -2.4957 -1.9645
 7222TIP3    H245862   1.012   5.051  10.161 -0.5708 -1.3535 -0.7714
 7223TIP3   OH245863   4.311   0.586  11.202 -0.2424 -0.0908 -0.2384
 7223TIP3    H145864   4.363   0.541  11.267 -0.7421  1.2702  1.1718
 7223TIP3    H245865   4.348   0.559  11.118  3.1559  1.2545  0.6716
 7224TIP3   OH245866   2.606   5.958  10.826 -0.3397 -0.0446 -0.2077
 7224TIP3    H145867   2.685   6.012  10.825  1.6923 -2.7548 -1.6712
 7224TIP3    H245868   2.548   5.998  10.762  1.2752  0.2477 -1.5653
 7225TIP3   OH245869   2.432   5.699  10.617 -0.1381 -0.2502  0.0443
 7225TIP3    H145870   2.514   5.659  10.589 -0.2994 -0.5718  0.0354
 7225TIP3    H245871   2.441   5.791  10.593  0.4096 -0.1889  0.4522
 7226TIP3   OH245872   5.517   0.164  10.800 -0.8205 -0.5312  1.0872
 7226TIP3    H145873   5.513   0.250  10.840 -0.7746 -0.6811  1.4154
 7226TIP3    H245874   5.603   0.130  10.825 -1.1970 -1.0400  1.7257
 7227TIP3   OH245875   6.426   5.718  11.736  0.6945  0.0277 -0.3916
 7227TIP3    H145876   6.388   5.633  11.759  1.9589 -0.4713 -0.1021
 7227TIP3    H245877   6.374   5.747  11.660 -2.2316  0.7882  1.7344
 7228TIP3   OH245878   5.582   1.868  10.860  0.3832 -0.5452 -0.8317
 7228TIP3    H145879   5.577   1.930  10.788 -0.9836 -0.4051 -0.6433
 7228TIP3    H245880   5.653   1.900  10.916 -0.7263  1.2497 -0.3837
 7229TIP3   OH245881   1.037   3.378  11.042  0.1322  0.2074 -0.6839
 7229TIP3    H145882   0.964   3.440  11.043 -1.3378 -1.4189  0.0750
 7229TIP3    H245883   1.003   3.301  11.088  2.3494 -0.6381 -0.3166
 7230TIP3   OH245884   1.518   1.869  10.022 -0.0596  0.1297  0.3916
 7230TIP3    H145885   1.429   1.880   9.988  0.8472  1.8526 -1.6385
 7230TIP3    H245886   1.547   1.959  10.040  1.3576 -0.3946  0.8218
 7231TIP3   OH245887   5.000   5.282  11.425 -0.4217 -0.1755 -0.4021
 7231TIP3    H145888   4.974   5.374  11.421 -0.8526 -0.2092  1.2083
 7231TIP3    H245889   5.011   5.263  11.518 -1.0725 -1.9487 -0.6355
 7232TIP3   OH245890   1.150   2.794  12.211  0.2939 -0.9407 -0.5570
 7232TIP3    H145891   1.092   2.736  12.260 -0.7908  0.1238 -0.5305
 7232TIP3    H245892   1.229   2.800  12.265 -0.3034 -0.9370  0.3422
 7233TIP3   OH245893   1.848   4.591  11.671  0.7939  0.4623  0.6557
 7233TIP3    H145894   1.843   4.496  11.678  0.0179  0.5794  1.9781
 7233TIP3    H245895   1.851   4.608  11.577 -2.5077 -0.7420  0.1975
 7234TIP3   OH245896   3.596   6.080  10.194 -0.3346 -0.0797  0.5751
 7234TIP3    H145897   3.661   6.034  10.141 -0.5357 -2.7976  2.4641
 7234TIP3    H245898   3.598   6.170  10.162  0.5663 -1.2182 -2.9381
 7235TIP3   OH245899   5.509   4.930  12.575 -0.0417 -0.5250  0.0334
 7235TIP3    H145900   5.470   4.866  12.636  0.2312 -0.4993  0.2380
 7235TIP3    H245901   5.603   4.916  12.583  0.3634  2.6076  3.1626
 7236TIP3   OH245902   1.389   0.854   9.587 -0.7223 -0.4336  0.1978
 7236TIP3    H145903   1.439   0.893   9.515 -2.5611 -0.2544 -1.0718
 7236TIP3    H245904   1.393   0.919   9.657  1.5966 -0.8734  0.5361
 7237TIP3   OH245905   5.575   4.757   9.580  0.4657  0.3694 -0.0159
 7237TIP3    H145906   5.587   4.715   9.666 -0.1200  1.0513  0.4136
 7237TIP3    H245907   5.608   4.846   9.592  1.5723  0.0910 -0.8863
 7238TIP3   OH245908   6.366   0.951  11.697 -0.0438 -0.1074 -0.4329
 7238TIP3    H145909   6.375   0.856  11.709 -2.1903 -0.3521 -0.4094
 7238TIP3    H245910   6.424   0.989  11.764  1.3841 -1.3618 -0.9009
 7239TIP3   OH245911   5.975   3.238  12.122 -0.2179 -0.0722  0.3457
 7239TIP3    H145912   5.896   3.239  12.068 -1.8536 -2.6792  2.4437
 7239TIP3    H245913   5.960   3.306  12.188 -0.5207 -0.2887  0.4993
 7240TIP3   OH245914   6.410   4.053  11.158  0.1163 -0.3342  0.1681
 7240TIP3    H145915   6.425   4.145  11.180  1.6084 -0.7738  1.1396
 7240TIP3    H245916   6.323   4.052  11.119  0.0345  1.4778  0.2110
 7241TIP3   OH245917   4.799   4.332  11.684  0.0340  0.1529  0.3725
 7241TIP3    H145918   4.733   4.343  11.752  1.6530  1.8676  1.7675
 7241TIP3    H245919   4.751   4.345  11.602 -1.5371  0.3748  1.2861
 7242TIP3   OH245920   0.894   3.178   9.700  0.0545 -0.2288  0.2650
 7242TIP3    H145921   0.886   3.266   9.664  0.5886  0.0478  0.8262
 7242TIP3    H245922   0.861   3.185   9.790  0.4484 -0.5156  0.4362
 7243TIP3   OH245923   6.510   2.317  12.186 -0.8252 -0.9224 -0.2886
 7243TIP3    H145924   6.478   2.313  12.277 -2.0878 -0.6202 -0.6903
 7243TIP3    H245925   6.603   2.300  12.193 -1.2151 -2.9286  0.8574
 7244TIP3   OH245926   4.163   0.404   9.558  0.1132  0.4302 -0.2821
 7244TIP3    H145927   4.251   0.420   9.592 -0.0699  1.1673 -0.1513
 7244TIP3    H245928   4.160   0.309   9.543  1.3292  0.5343 -1.3982
 7245TIP3   OH245929   0.769   1.261  12.470  0.0018  0.6450 -0.5748
 7245TIP3    H145930   0.760   1.168  12.447  0.5965  1.0224 -2.4504
 7245TIP3    H245931   0.843   1.262  12.531 -0.7477 -0.2148  0.4138
 7246TIP3   OH245932   6.332   0.249  11.103 -0.4097 -0.2523  0.0134
 7246TIP3    H145933   6.315   0.340  11.125 -0.3510 -0.3537  0.4903
 7246TIP3    H245934   6.269   0.199  11.155  0.5355 -0.5595  0.9075
 7247TIP3   OH245935   1.655   6.432  12.145  0.1840  0.9476  0.0805
 7247TIP3    H145936   1.714   6.483  12.200 -0.0609  0.8414  0.4494
 7247TIP3    H245937   1.614   6.370  12.206 -0.5973  1.2847 -0.0949
 7248TIP3   OH245938   0.730   2.858   9.334  0.0456 -0.4310 -0.7386
 7248TIP3    H145939   0.747   2.834   9.243  0.4971 -0.6642 -0.5999
 7248TIP3    H245940   0.812   2.838   9.379  0.2199  0.7620 -0.4926
 7249TIP3   OH245941   5.273   1.285  10.511  0.0607 -0.6216  0.1246
 7249TIP3    H145942   5.279   1.347  10.438  0.0751 -0.9637 -0.1706
 7249TIP3    H245943   5.182   1.258  10.512 -0.3489  0.6722  1.3343
 7250TIP3   OH245944   4.174   0.714  10.736  0.2439  0.3725 -0.6128
 7250TIP3    H145945   4.138   0.646  10.679 -1.1511  0.0805  0.5558
 7250TIP3    H245946   4.134   0.697  10.822 -1.0928  3.3405 -0.5351
 7251TIP3   OH245947   3.820   5.519  12.813 -0.7673 -0.2173  0.0642
 7251TIP3    H145948   3.726   5.535  12.818 -0.6424  0.2770  1.1448
 7251TIP3    H245949   3.860   5.606  12.814 -0.3531 -0.2058 -3.7686
 7252TIP3   OH245950   6.443   6.225  10.664 -0.2625  0.5549 -0.1348
 7252TIP3    H145951   6.392   6.144  10.656 -0.3040  0.3029  1.9143
 7252TIP3    H245952   6.532   6.200  10.641 -0.4802  0.1898 -0.5903
 7253TIP3   OH245953   3.508   1.252  11.581  0.2594  0.0646 -0.7432
 7253TIP3    H145954   3.582   1.289  11.534  0.5595  1.4457  0.7425
 7253TIP3    H245955   3.471   1.187  11.521  0.6806  1.6559 -2.8310
 7254TIP3   OH245956   4.303   2.433   9.538  0.3010  0.0471 -0.0855
 7254TIP3    H145957   4.257   2.447   9.456 -0.6596  2.0427  0.7230
 7254TIP3    H245958   4.373   2.499   9.538  1.6959 -1.3667 -0.2263
 7255TIP3   OH245959   1.041   0.257   9.383 -0.0370 -0.0758  0.0529
 7255TIP3    H145960   1.070   0.212   9.462  1.0572  0.9789  0.2828
 7255TIP3    H245961   1.091   0.215   9.313 -1.4709 -1.4420 -0.2015
 7256TIP3   OH245962   0.296   1.541  10.967  0.0581 -0.6267  0.2247
 7256TIP3    H145963   0.219   1.566  11.019  0.2402  0.3611  0.0388
 7256TIP3    H245964   0.287   1.446  10.955 -0.7648 -0.6329  0.7888
 7257TIP3   OH245965   3.511   5.859  10.556 -0.7001 -0.5889 -0.4930
 7257TIP3    H145966   3.568   5.834  10.628 -0.9025  0.2150 -0.0397
 7257TIP3    H245967   3.422   5.845  10.589 -0.8429  1.0341 -0.0640
 7258TIP3   OH245968   5.511   4.709   8.826  0.3492  0.2623  0.6057
 7258TIP3    H145969   5.522   4.617   8.805 -1.0024  0.2523 -0.1405
 7258TIP3    H245970   5.590   4.732   8.874 -0.2318 -1.8568  2.8019
 7259TIP3   OH245971   1.542   1.233  10.659 -0.6059  0.0956 -0.0462
 7259TIP3    H145972   1.475   1.173  10.692 -0.6684 -0.5509 -1.2694
 7259TIP3    H245973   1.519   1.246  10.567  0.9909 -0.2049 -0.5235
 7260TIP3   OH245974   5.790   6.425   9.626  0.2751  0.2427  0.2750
 7260TIP3    H145975   5.720   6.388   9.681  0.1728  0.1526  0.0830
 7260TIP3    H245976   5.746   6.456   9.547  0.2731  1.2903  0.6665
 7261TIP3   OH245977   5.482   6.115  11.757 -0.6020  0.1975  0.4226
 7261TIP3    H145978   5.484   6.024  11.787 -2.5016 -0.3658 -0.9734
 7261TIP3    H245979   5.556   6.123  11.697  0.2075 -0.0936  1.3612
 7262TIP3   OH245980   1.755   4.651  10.849  0.4192  0.3721 -0.3172
 7262TIP3    H145981   1.760   4.745  10.831  1.1500  0.5137  0.5354
 7262TIP3    H245982   1.673   4.640  10.897  0.5777  0.6650  0.0288
 7263TIP3   OH245983   3.232   4.196   9.419 -0.1381  0.2525  0.3472
 7263TIP3    H145984   3.238   4.287   9.447  0.7765  0.2161  0.2791
 7263TIP3    H245985   3.244   4.145   9.499 -0.8315  0.1889  0.4158
 7264TIP3   OH245986   4.688   2.913  10.205  0.1849  0.3191 -0.3260
 7264TIP3    H145987   4.777   2.941  10.182  0.7792 -0.6972  0.6824
 7264TIP3    H245988   4.632   2.980  10.164  1.5310  3.2986  2.2606
 7265TIP3   OH245989   1.690   1.794  19.081  0.0153  0.1566 -0.1999
 7265TIP3    H145990   1.596   1.780  19.089 -0.0500 -0.2403 -1.4571
 7265TIP3    H245991   1.722   1.717  19.034  1.0016  0.2218  0.3229
 7266TIP3   OH245992   6.695   1.327  10.051  0.4056 -0.0757  0.5757
 7266TIP3    H145993   6.706   1.422  10.041  1.6611 -0.0556  1.7582
 7266TIP3    H245994   6.603   1.316  10.073 -0.0096  0.7506 -0.6108
 7267TIP3   OH245995   3.375   0.560   9.974 -0.4694  0.0197 -0.2924
 7267TIP3    H145996   3.464   0.526   9.976 -0.9418 -1.2510  0.4445
 7267TIP3    H245997   3.340   0.532   9.889  0.2039  1.5770 -1.1107
 7268TIP3   OH245998   0.480   5.938   9.928 -0.2278  0.4631 -0.3874
 7268TIP3    H145999   0.573   5.961   9.926 -0.3553  0.9861 -2.1245
 7268TIP3    H246000   0.479   5.846   9.953  0.8221  0.2627 -1.0094
 7269TIP3   OH246001   5.064   2.636  10.009  0.2295  0.0645  0.4496
 7269TIP3    H146002   4.979   2.594   9.997 -0.1136  0.4493  1.4590
 7269TIP3    H246003   5.051   2.726   9.981  0.0985  0.3143  1.2932
 7270TIP3   OH246004   5.141   2.732  11.792  0.1967 -0.0003  0.5275
 7270TIP3    H146005   5.147   2.768  11.880  0.9883 -1.4521  1.0992
 7270TIP3    H246006   5.052   2.699  11.785 -0.1556  0.9445  0.4303
 7271TIP3   OH246007   1.731   0.032   9.357 -0.6722 -0.7313 -0.3258
 7271TIP3    H146008   1.765  -0.012   9.435 -0.5665 -0.7352 -0.3733
 7271TIP3    H246009   1.805   0.085   9.326 -0.0655 -2.2393 -1.5473
 7272TIP3   OH246010   4.239   4.722  11.707  0.0264 -0.0501 -0.6473
 7272TIP3    H146011   4.176   4.666  11.661 -0.9966  0.9950 -0.5439
 7272TIP3    H246012   4.302   4.748  11.640 -1.8741  2.0792 -1.7112
 7273TIP3   OH246013   1.686   0.936   9.767 -0.0979 -0.2145  0.1931
 7273TIP3    H146014   1.726   0.979   9.692 -0.8330 -1.6454 -1.0608
 7273TIP3    H246015   1.649   1.008   9.819  2.2520  0.9804  0.3506
 7274TIP3   OH246016   4.830   0.293  10.097  0.3501  0.1992  0.2239
 7274TIP3    H146017   4.873   0.252  10.022 -0.0749  1.0347 -0.4969
 7274TIP3    H246018   4.849   0.386  10.088  0.5342  0.2899  1.3259
 7275TIP3   OH246019   3.550   2.477  10.785 -0.1130  0.3078 -0.2860
 7275TIP3    H146020   3.553   2.382  10.796 -0.6077  0.2207 -0.8377
 7275TIP3    H246021   3.632   2.509  10.823 -0.4462 -0.2309  0.9205
 7276TIP3   OH246022   1.556   3.140  12.294 -0.0244  0.1313  0.0909
 7276TIP3    H146023   1.492   3.070  12.299  1.6651 -1.4199  2.3533
 7276TIP3    H246024   1.625   3.106  12.237  0.4396  0.2744  0.5585
 7277TIP3   OH246025   1.078   4.205  13.040 -0.5062 -1.0075  0.1827
 7277TIP3    H146026   1.134   4.191  13.117  0.5742  1.7399  0.0359
 7277TIP3    H246027   1.117   4.282  12.997 -1.9971 -1.5280 -2.2709
 7278TIP3   OH246028   0.026   5.466  10.270 -0.3537  0.5564  0.1560
 7278TIP3    H146029  -0.058   5.505  10.244 -0.2692  1.3128  0.9565
 7278TIP3    H246030   0.013   5.372  10.260 -0.8854  0.7282 -0.9073
 7279TIP3   OH246031   4.029   1.630  10.880 -0.8574 -0.1270  0.2174
 7279TIP3    H146032   3.995   1.672  10.958 -1.5851 -1.2314  0.5315
 7279TIP3    H246033   4.050   1.702  10.820  0.0786  0.7475  1.5486
 7280TIP3   OH246034   3.442   3.857   9.827  0.5673 -0.1454 -0.1739
 7280TIP3    H146035   3.485   3.943   9.834  2.1050 -0.8859 -0.1488
 7280TIP3    H246036   3.494   3.799   9.882  0.3183 -1.3762 -1.1774
 7281TIP3   OH246037   6.128   1.732  10.240  0.0849  0.0853  0.0454
 7281TIP3    H146038   6.089   1.819  10.228  0.0363  0.0899  0.2434
 7281TIP3    H246039   6.216   1.740  10.203  0.0787  0.2168  0.0581
 7282TIP3   OH246040   2.492   1.045  10.914 -0.3645  0.0860  0.1522
 7282TIP3    H146041   2.544   0.983  10.862  0.7916  1.5637 -0.5522
 7282TIP3    H246042   2.496   1.127  10.864 -1.3476  0.8951  1.3389
 7283TIP3   OH246043   1.867   5.081  10.224 -0.1047  0.0055 -0.1061
 7283TIP3    H146044   1.802   5.110  10.288 -0.1665  0.1683 -0.2400
 7283TIP3    H246045   1.826   5.098  10.139  0.2810  0.5212 -0.1968
 7284TIP3   OH246046   1.954   5.135  11.390  0.3981  0.1026  0.5526
 7284TIP3    H146047   1.896   5.204  11.358  1.0202  1.8147  2.8994
 7284TIP3    H246048   1.897   5.077  11.440  0.3187  0.4510  0.8683
 7285TIP3   OH246049   0.343   4.778   9.656 -0.2132 -0.2749 -0.8351
 7285TIP3    H146050   0.336   4.873   9.644  0.9089 -0.3637 -2.4543
 7285TIP3    H246051   0.425   4.766   9.702  0.4085 -0.5219 -1.9712
 7286TIP3   OH246052   6.268   5.305  11.642 -0.3966 -0.1486 -0.1899
 7286TIP3    H146053   6.254   5.342  11.555  1.5720  0.5468 -0.2598
 7286TIP3    H246054   6.308   5.220  11.626  2.6239  1.1091 -0.0657
 7287TIP3   OH246055   3.762   2.119  10.498  0.4583  0.3007 -0.3886
 7287TIP3    H146056   3.732   2.079  10.579  3.4933 -0.1921  0.6399
 7287TIP3    H246057   3.788   2.045  10.442 -0.4307  0.6743 -1.3211
 7288TIP3   OH246058   4.420   0.190  11.231 -0.4032  0.1144  0.0783
 7288TIP3    H146059   4.515   0.182  11.235 -0.1801  0.6970 -2.3326
 7288TIP3    H246060   4.404   0.249  11.157 -2.6205  0.8865  1.0796
 7289TIP3   OH246061   5.255   3.054   9.927 -0.0728  0.0798  0.0506
 7289TIP3    H146062   5.221   3.109   9.998  1.1320  0.3406  0.4489
 7289TIP3    H246063   5.202   2.974   9.931 -3.0385  1.8121 -1.6557
 7290TIP3   OH246064   2.897   1.050  12.275 -0.0395 -0.1321 -1.4877
 7290TIP3    H146065   2.959   1.104  12.226  0.2079 -1.3810 -2.6043
 7290TIP3    H246066   2.952   0.991  12.326 -0.3091  0.0848 -0.9409
 7291TIP3   OH246067   1.511   2.135   9.316 -0.0470 -0.2292 -0.0714
 7291TIP3    H146068   1.476   2.164   9.400  1.2516 -2.0858  1.1973
 7291TIP3    H246069   1.600   2.172   9.314  1.2218 -2.9817  1.0690
 7292TIP3   OH246070   6.343   1.393  10.947  0.2823 -0.2956  0.3937
 7292TIP3    H146071   6.341   1.485  10.922  0.0095 -0.7018 -1.1864
 7292TIP3    H246072   6.422   1.384  11.001  0.2983  0.8513  0.5799
 7293TIP3   OH246073   4.296   3.761  11.391 -0.1149 -0.3478 -0.3059
 7293TIP3    H146074   4.352   3.719  11.456  0.4725  2.2026  0.9711
 7293TIP3    H246075   4.336   3.737  11.307  1.9337  0.0027  0.4898
 7294TIP3   OH246076   5.850   0.557  10.758 -0.1503 -0.1425  0.4550
 7294TIP3    H146077   5.885   0.536  10.671  0.2550 -1.1475  0.8520
 7294TIP3    H246078   5.897   0.635  10.785  0.3050 -0.2950  0.1102
 7295TIP3   OH246079   2.919   4.538  13.007  0.4829  0.7408  0.5725
 7295TIP3    H146080   2.996   4.489  13.034  1.2318  2.4608  1.7219
 7295TIP3    H246081   2.944   4.580  12.924 -0.5506 -1.6104 -1.0271
 7296TIP3   OH246082   1.853   0.088  10.092 -0.1117 -0.5372 -0.1306
 7296TIP3    H146083   1.929   0.146  10.096  1.5221 -2.3807 -2.0983
 7296TIP3    H246084   1.805   0.105  10.173  1.0536  2.4423  0.0548
 7297TIP3   OH246085   5.494   0.623  10.054  0.3152  0.1477  0.3233
 7297TIP3    H146086   5.400   0.640  10.042  0.7601  2.0794 -0.8392
 7297TIP3    H246087   5.514   0.659  10.140  0.1304  0.5400  0.2086
 7298TIP3   OH246088   0.181   6.708  11.912 -0.0944 -0.6580  0.3093
 7298TIP3    H146089   0.194   6.667  11.998  1.4101  1.0092  0.9449
 7298TIP3    H246090   0.153   6.797  11.932 -0.4000 -0.4489 -0.9627
 7299TIP3   OH246091   5.695   2.748  10.665  0.1883 -0.3959 -0.1504
 7299TIP3    H146092   5.612   2.733  10.619 -0.0466 -0.9999  0.4570
 7299TIP3    H246093   5.671   2.746  10.757  0.6549  0.7965  0.0170
 7300TIP3   OH246094   1.980   0.630  11.113  0.4557 -0.2214  0.3571
 7300TIP3    H146095   1.929   0.665  11.040 -0.2051  0.3434  1.0718
 7300TIP3    H246096   2.069   0.660  11.097  0.9474 -2.5022 -1.7356
 7301TIP3   OH246097   6.427   6.178  10.262  0.1111 -0.1745  0.2445
 7301TIP3    H146098   6.433   6.260  10.310  0.7052  0.2968 -0.6181
 7301TIP3    H246099   6.402   6.113  10.329 -2.5780  1.0470  0.5921
 7302TIP3   OH246100   5.584   6.204   9.519  0.3112 -0.4643 -0.4618
 7302TIP3    H146101   5.598   6.272   9.453 -1.5822  0.5645  0.1366
 7302TIP3    H246102   5.557   6.252   9.597  0.7577 -1.7929  0.5399
 7303TIP3   OH246103   3.076   0.001   9.303 -0.9393  0.3401  0.1607
 7303TIP3    H146104   3.128   0.066   9.256  0.5581 -1.5119 -0.9020
 7303TIP3    H246105   3.047   0.045   9.382  2.6694  1.4161  1.0640
 7304TIP3   OH246106   0.466   3.456   9.509 -0.3260 -0.0343  0.2908
 7304TIP3    H146107   0.402   3.504   9.457 -1.8892 -1.0752  1.1816
 7304TIP3    H246108   0.433   3.366   9.511  0.9213 -0.5025  1.1675
 7305TIP3   OH246109   0.197   6.355  11.966 -0.9040 -0.3252 -0.0272
 7305TIP3    H146110   0.292   6.343  11.966 -0.8543  0.0498 -0.3029
 7305TIP3    H246111   0.182   6.426  12.028 -1.0359 -0.5861  0.2448
 7306TIP3   OH246112   6.419   5.098  11.524 -0.0932 -0.7805 -0.8315
 7306TIP3    H146113   6.514   5.104  11.516 -0.0376 -1.4009 -0.7405
 7306TIP3    H246114   6.404   5.016  11.572 -0.5919  0.4810  1.2983
 7307TIP3   OH246115   5.439   0.052  11.743  0.4202 -0.0393 -0.0583
 7307TIP3    H146116   5.425  -0.014  11.675 -2.3090  0.0659  0.2936
 7307TIP3    H246117   5.381   0.125  11.718  3.0710  2.1576 -0.2532
 7308TIP3   OH246118   5.912   2.339   9.915  0.4453 -0.2886  0.0841
 7308TIP3    H146119   5.821   2.310   9.904 -0.5424  2.1703  1.0594
 7308TIP3    H246120   5.961   2.287   9.852 -2.2125  0.8663 -3.2327
 7309TIP3   OH246121   2.823   0.668  12.046 -0.0932  0.2376  0.5706
 7309TIP3    H146122   2.870   0.750  12.038  1.2048 -0.5725 -0.3415
 7309TIP3    H246123   2.885   0.601  12.020 -1.4253 -0.9702  0.3402
 7310TIP3   OH246124   2.328   1.881  10.112 -0.0184 -0.1922  0.1519
 7310TIP3    H146125   2.388   1.896  10.039  0.4600 -1.0862  0.3476
 7310TIP3    H246126   2.275   1.806  10.085  0.8397 -1.1835  1.1134
 7311TIP3   OH246127   3.382   0.471  11.504 -0.3161  0.4978  0.4608
 7311TIP3    H146128   3.302   0.496  11.459 -0.5918 -0.8287  0.1649
 7311TIP3    H246129   3.353   0.439  11.589 -0.0134  0.8269  0.6927
 7312TIP3   OH246130   1.031   5.510  12.143  0.5111  0.1478  0.0544
 7312TIP3    H146131   0.996   5.492  12.230 -0.4129  1.5317  0.0048
 7312TIP3    H246132   1.017   5.429  12.095  0.2588 -0.3616  0.9560
 7313TIP3   OH246133   5.778   3.743   9.226 -0.0792 -0.4973  0.1828
 7313TIP3    H146134   5.687   3.768   9.213  0.1136  0.1880  0.0773
 7313TIP3    H246135   5.825   3.827   9.229  0.2686 -0.7141  2.5647
 7314TIP3   OH246136   6.671   5.537  11.779 -0.6035  0.3856  0.1398
 7314TIP3    H146137   6.657   5.582  11.696 -0.2703 -1.9560 -1.2765
 7314TIP3    H246138   6.590   5.489  11.794 -0.3681  0.1683  0.7494
 7315TIP3   OH246139   2.662   0.856  10.853  0.0806  0.1543 -0.0465
 7315TIP3    H146140   2.701   0.780  10.810 -0.2158 -0.7019  1.1450
 7315TIP3    H246141   2.734   0.894  10.904  0.1955  0.5981 -0.5362
 7316TIP3   OH246142   2.449   2.044  11.334  0.2749  0.0858  0.0047
 7316TIP3    H146143   2.365   2.070  11.297  0.9058  1.1462 -0.7149
 7316TIP3    H246144   2.492   1.995  11.264  0.1572 -0.6903  0.4639
 7317TIP3   OH246145   2.428   2.998   9.733 -0.1513  0.2728 -0.1207
 7317TIP3    H146146   2.466   2.912   9.719  0.7321  0.8447 -1.4063
 7317TIP3    H246147   2.415   3.003   9.828 -1.0486 -1.5827 -0.1010
 7318TIP3   OH246148   6.002   3.561  10.400 -0.0576 -0.5269 -0.3302
 7318TIP3    H146149   6.020   3.469  10.381 -1.2094 -0.9308  0.4500
 7318TIP3    H246150   5.959   3.560  10.485 -2.7400  0.4580 -1.5680
 7319TIP3   OH246151   2.697   6.310  11.456  0.5022  0.2379 -0.9786
 7319TIP3    H146152   2.744   6.254  11.395  1.7046 -0.1839  0.2856
 7319TIP3    H246153   2.631   6.354  11.402  0.6091 -1.1357 -2.3126
 7320TIP3   OH246154   6.664   0.103  12.349  0.4374 -0.5469  0.5167
 7320TIP3    H146155   6.638   0.187  12.310  2.4833 -0.5390 -0.9544
 7320TIP3    H246156   6.759   0.100  12.340  0.2909 -3.9357 -1.3949
 7321TIP3   OH246157   3.382   6.270   9.338 -0.2145 -0.3502 -0.2539
 7321TIP3    H146158   3.310   6.332   9.342  0.9856  1.1036 -0.2745
 7321TIP3    H246159   3.422   6.274   9.426  1.7926  1.3457 -1.1654
 7322TIP3   OH246160   4.414   4.857  11.029  0.5180  0.0889  0.4162
 7322TIP3    H146161   4.482   4.913  10.990  1.1972 -0.2031  1.1612
 7322TIP3    H246162   4.441   4.768  11.007 -0.9011  0.0180 -1.3197
 7323TIP3   OH246163   3.892   3.553  11.830 -0.6179 -0.1538  0.6308
 7323TIP3    H146164   3.902   3.559  11.925 -0.6557 -0.7678  0.6735
 7323TIP3    H246165   3.918   3.640  11.798  0.5839 -0.3144  1.1055
 7324TIP3   OH246166   2.761   5.429  12.664  0.2743 -0.4050 -0.1667
 7324TIP3    H146167   2.767   5.457  12.572 -0.1442  0.0893 -0.0494
 7324TIP3    H246168   2.672   5.453  12.690  0.3173 -0.7486  0.3034
 7325TIP3   OH246169   0.278   1.355  10.622  0.2475 -0.2007 -0.9469
 7325TIP3    H146170   0.341   1.297  10.578  0.7659 -0.5819  0.2490
 7325TIP3    H246171   0.315   1.443  10.612  1.1988 -0.4648  0.0843
 7326TIP3   OH246172   4.848   3.568  12.391 -0.2170  0.3041  0.0596
 7326TIP3    H146173   4.757   3.542  12.375 -0.5567  0.7370  1.2151
 7326TIP3    H246174   4.871   3.526  12.473  0.3908  0.7891  0.1433
 7327TIP3   OH246175   0.202   6.119  12.134 -0.4974  0.0475 -0.5709
 7327TIP3    H146176   0.158   6.173  12.198 -1.2769  1.8592 -2.5230
 7327TIP3    H246177   0.205   6.172  12.054  0.2070 -2.1465 -2.1339
 7328TIP3   OH246178   0.959   4.610  12.535  0.8132 -0.8040 -0.3247
 7328TIP3    H146179   1.004   4.694  12.523  0.8881 -0.8615 -0.4429
 7328TIP3    H246180   0.967   4.592  12.629  1.0497 -0.8201 -0.3473
 7329TIP3   OH246181   0.844   2.575  12.133  0.5450  0.0272  0.0243
 7329TIP3    H146182   0.830   2.630  12.211  0.2735 -1.6460  1.1971
 7329TIP3    H246183   0.758   2.570  12.092 -0.0104 -1.4644  1.2769
 7330TIP3   OH246184   5.396   1.041  11.423  0.2732 -0.5091  0.0214
 7330TIP3    H146185   5.394   1.065  11.331  1.3344  0.4515  0.2330
 7330TIP3    H246186   5.310   1.002  11.439 -0.0274 -0.4410 -1.2921
 7331TIP3   OH246187   5.639   5.408  12.818 -0.1903  0.2971  0.6603
 7331TIP3    H146188   5.606   5.457  12.894 -0.9887  1.1480 -0.1940
 7331TIP3    H246189   5.576   5.428  12.749  0.9271  0.1427 -0.4324
 7332TIP3   OH246190   0.956   2.497   9.648  0.3676  0.2029  0.5706
 7332TIP3    H146191   0.921   2.517   9.735 -0.3221  1.4697  0.0245
 7332TIP3    H246192   0.928   2.408   9.631 -0.7085  0.4286  1.0767
 7333TIP3   OH246193   2.831   5.158   9.170 -0.3173 -0.4292 -0.1538
 7333TIP3    H146194   2.762   5.099   9.138  0.3995 -2.7770  2.2682
 7333TIP3    H246195   2.787   5.214   9.234 -0.3000 -0.9231  0.2999
 7334TIP3   OH246196   0.455   5.478  11.770 -0.0913  0.2658 -0.3911
 7334TIP3    H146197   0.479   5.539  11.840 -0.0527  1.9535 -1.8161
 7334TIP3    H246198   0.513   5.500  11.698 -1.0323 -0.5186 -1.4239
 7335TIP3   OH246199   0.387   3.669  11.172 -0.4623  0.1701  0.1294
 7335TIP3    H146200   0.398   3.764  11.178  0.3263  0.0742  0.3397
 7335TIP3    H246201   0.455   3.634  11.230 -1.1615 -0.5058  0.5549
 7336TIP3   OH246202   4.327   6.357  10.933 -0.5284  0.0022  0.5486
 7336TIP3    H146203   4.379   6.402  10.867 -2.2156 -1.1838 -1.7096
 7336TIP3    H246204   4.317   6.268  10.900 -3.1935 -0.0601  1.2796
 7337TIP3   OH246205   5.278   2.907  11.337  0.2553  0.1349 -0.6091
 7337TIP3    H146206   5.281   2.837  11.272 -0.7197 -0.1295 -0.3855
 7337TIP3    H246207   5.216   2.877  11.403 -0.4015  1.3176 -0.6525
 7338TIP3   OH246208   2.063   0.243  12.114 -0.1821 -0.2464  0.0276
 7338TIP3    H146209   1.971   0.266  12.129 -0.3204 -0.9051  0.2067
 7338TIP3    H246210   2.075   0.160  12.160  0.7753  0.3422  0.8953
 7339TIP3   OH246211   5.757   5.870  11.129  0.0261 -0.5179  0.3422
 7339TIP3    H146212   5.790   5.787  11.165  0.9911  0.3844  1.6016
 7339TIP3    H246213   5.661   5.860  11.131  0.1101 -1.2826  1.2620
 7340TIP3   OH246214   5.696   4.405  12.910  0.2479  0.5585 -0.3822
 7340TIP3    H146215   5.673   4.356  12.831  1.2594  0.1765 -0.4577
 7340TIP3    H246216   5.790   4.389  12.921 -0.0474 -0.1851  1.4229
 7341TIP3   OH246217   3.036   1.683  11.128  0.7510  0.0055 -0.1116
 7341TIP3    H146218   2.952   1.728  11.114  0.9576 -0.0235 -1.5858
 7341TIP3    H246219   3.033   1.655  11.219 -1.2916 -0.8820 -0.3996
 7342TIP3   OH246220   5.940   4.617  11.037  0.1263  0.5612  0.3107
 7342TIP3    H146221   5.887   4.571  10.972  0.9710 -0.7325  0.5017
 7342TIP3    H246222   5.906   4.706  11.036 -1.5766 -0.0443 -0.0698
 7343TIP3   OH246223   2.340   4.438  12.825 -0.3057 -0.5619  0.1559
 7343TIP3    H146224   2.334   4.444  12.920  1.3836  2.8292  0.1793
 7343TIP3    H246225   2.413   4.379  12.809  0.1673 -0.2274  1.0182
 7344TIP3   OH246226   4.157   5.870  11.059 -0.0428 -0.0639  0.2195
 7344TIP3    H146227   4.221   5.812  11.100  1.2044  1.2881  0.2958
 7344TIP3    H246228   4.078   5.818  11.051  0.3568 -1.0878  2.2745
 7345TIP3   OH246229   3.934   4.455  12.396  0.7348  0.2285  0.2206
 7345TIP3    H146230   3.874   4.389  12.363  0.0479  0.9569 -0.0210
 7345TIP3    H246231   3.947   4.515  12.322  0.2493  1.1253  0.8456
 7346TIP3   OH246232   3.231   6.674  11.209  0.0939  0.0307 -0.2002
 7346TIP3    H146233   3.326   6.687  11.211  0.0671  0.2101  2.1177
 7346TIP3    H246234   3.194   6.759  11.229 -0.5137 -0.3445  0.3093
 7347TIP3   OH246235   2.508   5.627  10.329 -0.4238 -0.2800 -0.3003
 7347TIP3    H146236   2.546   5.561  10.271  2.4559 -0.3727  1.4987
 7347TIP3    H246237   2.457   5.577  10.393 -0.0270 -0.5686 -0.2077
 7348TIP3   OH246238   1.142   3.990  12.205 -0.3216  0.3877 -0.0510
 7348TIP3    H146239   1.092   3.975  12.285 -0.3203  0.6333 -0.0042
 7348TIP3    H246240   1.103   4.069  12.167  0.3495  0.8711  0.2409
 7349TIP3   OH246241   6.503   4.761  10.488 -0.1312 -0.0257 -0.1172
 7349TIP3    H146242   6.546   4.744  10.404  1.4027 -1.2276  0.8728
 7349TIP3    H246243   6.421   4.803  10.464 -1.1193 -2.9179 -2.4319
 7350TIP3   OH246244   4.917   1.390  10.943 -0.2169 -0.1518 -0.9432
 7350TIP3    H146245   4.831   1.354  10.921 -0.1550 -0.8419 -0.1199
 7350TIP3    H246246   4.963   1.318  10.987  0.1797  0.6967  0.0929
 7351TIP3   OH246247   2.603   6.637  11.539  0.2355  0.2139  0.2337
 7351TIP3    H146248   2.529   6.589  11.576 -0.4786  0.8139 -0.3832
 7351TIP3    H246249   2.616   6.598  11.452 -0.4348  1.1820 -0.3263
 7352TIP3   OH246250   4.775   2.043   9.519 -0.6795  0.2631  0.0655
 7352TIP3    H146251   4.812   2.013   9.601  1.2411  0.6713 -0.5993
 7352TIP3    H246252   4.682   2.019   9.524  0.0332 -2.7173  0.9507
 7353TIP3   OH246253   5.189   6.734  10.608 -0.5644  0.1985 -0.0690
 7353TIP3    H146254   5.145   6.740  10.693 -0.3151 -2.9483  0.4084
 7353TIP3    H246255   5.144   6.662  10.563  1.8628 -0.9177 -0.8940
 7354TIP3   OH246256   6.634   3.946   9.696 -0.7822 -0.1218 -0.3234
 7354TIP3    H146257   6.642   3.991   9.780 -1.3575  0.5876 -0.6379
 7354TIP3    H246258   6.675   3.860   9.711  0.0955  0.3998  0.3582
 7355TIP3   OH246259   0.443   5.014  11.952 -0.1425  0.0093 -0.2834
 7355TIP3    H146260   0.500   4.950  11.996 -2.6643 -1.9594  0.3852
 7355TIP3    H246261   0.386   4.961  11.897 -2.2852  1.6580  0.1996
 7356TIP3   OH246262   4.218   3.331  12.902  0.0948 -0.9477 -0.6746
 7356TIP3    H146263   4.256   3.244  12.909  0.6676 -0.6712 -0.3100
 7356TIP3    H246264   4.286   3.384  12.861 -0.1319 -0.5932 -0.6005
 7357TIP3   OH246265   6.317   4.834  11.605 -0.4181 -0.2584  0.6712
 7357TIP3    H146266   6.269   4.834  11.522 -1.7391 -1.2316  1.4130
 7357TIP3    H246267   6.352   4.745  11.612 -0.7148 -0.3250  1.3735
 7358TIP3   OH246268   2.269   3.785  10.236  0.0471 -0.5303  0.3616
 7358TIP3    H146269   2.208   3.858  10.246 -0.2471 -0.5353 -1.1740
 7358TIP3    H246270   2.215   3.713  10.204  0.8041 -0.5807 -0.8730
 7359TIP3   OH246271   4.314   4.214  10.265 -0.0475  0.0491 -0.7407
 7359TIP3    H146272   4.336   4.121  10.262 -1.7296 -0.4619  0.9524
 7359TIP3    H246273   4.398   4.259  10.272  0.7046 -1.5516  1.4891
 7360TIP3   OH246274   0.561   2.819  10.995  0.0156 -0.0413 -0.1398
 7360TIP3    H146275   0.585   2.795  11.084 -2.7380 -0.1550  0.6705
 7360TIP3    H246276   0.643   2.813  10.945  1.2203 -2.1420  1.8877
 7361TIP3   OH246277   4.298   6.521   9.797  0.3818 -0.0020  0.1145
 7361TIP3    H146278   4.352   6.482   9.728 -0.3261  0.6446 -0.8320
 7361TIP3    H246279   4.351   6.594   9.829 -0.3737  1.3903 -1.6492
 7362TIP3   OH246280   3.208   5.863   9.562 -0.2645  0.5322  0.6246
 7362TIP3    H146281   3.294   5.826   9.580 -0.7043 -0.6304  0.4066
 7362TIP3    H246282   3.227   5.946   9.518  0.7402  0.5070  0.9828
 7363TIP3   OH246283   2.198   6.225  10.349 -0.2642 -0.1117  0.2641
 7363TIP3    H146284   2.215   6.218  10.443 -1.2472 -0.2842  0.4470
 7363TIP3    H246285   2.272   6.274  10.314 -0.9336  1.8826  1.4896
 7364TIP3   OH246286   2.213   3.790  11.065 -0.2787  0.3509 -0.3834
 7364TIP3    H146287   2.182   3.880  11.058 -0.4540  0.2461 -0.9943
 7364TIP3    H246288   2.135   3.739  11.085 -0.3799  0.1913 -1.1484
 7365TIP3   OH246289   1.609   1.667  12.417  0.8686 -0.4115 -0.6898
 7365TIP3    H146290   1.684   1.608  12.414 -0.3369 -1.9369 -1.6659
 7365TIP3    H246291   1.543   1.620  12.467  0.0804  0.3679 -0.9801
 7366TIP3   OH246292   3.974   2.914  10.950 -0.1581 -0.0438 -0.5077
 7366TIP3    H146293   4.006   2.968  11.023  0.4874 -1.2277  0.1141
 7366TIP3    H246294   3.913   2.971  10.903 -1.1882  0.5200  1.4059
 7367TIP3   OH246295   5.919   2.112  11.206 -0.1096  0.0803 -0.2503
 7367TIP3    H146296   5.979   2.185  11.219  1.2156 -0.5655 -2.3218
 7367TIP3    H246297   5.919   2.066  11.290  0.7180  1.2145  0.4040
 7368TIP3   OH246298   0.115   1.343   9.852  0.5970  0.1496 -0.1605
 7368TIP3    H146299   0.199   1.372   9.888  1.0493 -1.5687  0.2629
 7368TIP3    H246300   0.060   1.329   9.929 -0.3074  1.8092 -0.4577
 7369TIP3   OH246301   4.964   4.511  12.249 -0.1420 -0.9156  0.1565
 7369TIP3    H146302   4.997   4.510  12.339  0.4037 -2.9205 -0.0233
 7369TIP3    H246303   4.926   4.599  12.239 -0.6433 -0.7830  2.4803
 7370TIP3   OH246304   1.671   2.880  11.381 -0.1920  0.2914 -0.9056
 7370TIP3    H146305   1.599   2.818  11.383 -0.1538  0.2590  0.1370
 7370TIP3    H246306   1.750   2.826  11.384 -0.1631  0.3809  0.4196
 7371TIP3   OH246307   2.982   1.614   9.376 -0.3251  0.0372 -0.0576
 7371TIP3    H146308   2.933   1.567   9.308  0.2284 -3.0142  1.4732
 7371TIP3    H246309   2.915   1.641   9.439 -0.5068 -0.1085 -0.1867
 7372TIP3   OH246310   5.527   1.461  11.432  0.1663 -0.1736  0.0293
 7372TIP3    H146311   5.536   1.493  11.343  3.0383  0.6307  0.5278
 7372TIP3    H246312   5.553   1.534  11.487 -1.1029 -0.8048  1.5537
 7373TIP3   OH246313   2.507   1.386  10.036 -0.3160  0.1677 -0.0777
 7373TIP3    H146314   2.565   1.404  10.111  0.8797  0.7268 -1.0884
 7373TIP3    H246315   2.561   1.335   9.976 -0.7487  0.9647 -1.1892
 7374TIP3   OH246316   5.534   4.750  10.567 -0.2989 -0.5243  0.1352
 7374TIP3    H146317   5.500   4.762  10.655  0.2422  0.0554  0.2768
 7374TIP3    H246318   5.580   4.666  10.569 -1.2967 -1.0854  0.0694
 7375TIP3   OH246319   6.662   3.390  12.045 -0.3097 -0.2660  0.0272
 7375TIP3    H146320   6.655   3.436  12.129 -0.5980  0.1484 -0.2175
 7375TIP3    H246321   6.578   3.405  12.003  0.3887  0.8905 -1.0146
 7376TIP3   OH246322   6.368   1.649  12.200  0.3382 -0.0137  0.6345
 7376TIP3    H146323   6.404   1.591  12.133  0.1580 -1.0983  1.4511
 7376TIP3    H246324   6.273   1.646  12.187  0.3773  1.1284 -0.1222
 7377TIP3   OH246325   5.965   3.581   9.374  0.4085  0.5933  0.1542
 7377TIP3    H146326   5.889   3.622   9.333  1.5263  1.3228 -1.2869
 7377TIP3    H246327   6.016   3.654   9.408  0.5796  0.1242  0.9291
 7378TIP3   OH246328   1.217   6.540  11.429  0.2170  0.4473  0.0244
 7378TIP3    H146329   1.260   6.508  11.508 -1.5761 -0.4198  0.7150
 7378TIP3    H246330   1.148   6.598  11.461 -1.7401 -1.3363 -0.7193
 7379TIP3   OH246331   2.880   0.880  11.763 -0.2845  0.4350  0.3751
 7379TIP3    H146332   2.955   0.927  11.727 -0.6954  2.6720  2.2509
 7379TIP3    H246333   2.888   0.889  11.857 -1.1235 -2.2505  0.7895
 7380TIP3   OH246334   3.282   4.435  10.880 -0.2583 -0.1569  0.0841
 7380TIP3    H146335   3.274   4.480  10.796  0.8872  0.7526  0.4424
 7380TIP3    H246336   3.315   4.348  10.858 -1.6178 -0.5383 -0.5386
 7381TIP3   OH246337   2.186   3.214  12.472 -0.0056 -0.6526 -0.0357
 7381TIP3    H146338   2.173   3.195  12.565 -0.9919  0.5842  0.1120
 7381TIP3    H246339   2.128   3.152  12.428 -0.3368 -0.5427  0.2347
 7382TIP3   OH246340   0.711   5.169  10.177 -0.0313 -0.3687  0.2665
 7382TIP3    H146341   0.685   5.107  10.244  1.8901 -2.6533 -0.9278
 7382TIP3    H246342   0.805   5.152  10.164 -0.1671  0.4733 -2.4206
 7383TIP3   OH246343   3.904   0.752  10.360 -0.2147 -0.7635  1.3278
 7383TIP3    H146344   3.810   0.749  10.343 -0.3436  0.7868  1.5715
 7383TIP3    H246345   3.917   0.693  10.435 -0.9879 -0.9748  1.2991
 7384TIP3   OH246346   3.649   5.561   9.338 -0.3139  0.2028  0.4737
 7384TIP3    H146347   3.700   5.489   9.374 -0.7461 -0.9887 -1.1637
 7384TIP3    H246348   3.700   5.640   9.358  0.3758 -0.5887  1.9344
 7385TIP3   OH246349   3.029   1.449  10.967  0.1554 -0.1489 -0.1928
 7385TIP3    H146350   3.041   1.526  11.023 -1.4020 -1.9638  2.8947
 7385TIP3    H246351   2.974   1.480  10.895  1.6868  2.1512 -0.4758
 7386TIP3   OH246352   6.587   4.506  10.612  0.3496  0.3569 -0.0624
 7386TIP3    H146353   6.576   4.590  10.569 -0.8646 -0.1540 -0.8137
 7386TIP3    H246354   6.498   4.481  10.640  0.9905  0.3783  2.2231
 7387TIP3   OH246355   5.644   1.210  11.411  0.4400  0.0137 -0.2482
 7387TIP3    H146356   5.614   1.298  11.433 -1.4569 -1.3745  3.6836
 7387TIP3    H246357   5.565   1.156  11.418  2.0731 -2.4212  0.5470
 7388TIP3   OH246358   1.378   6.650  11.802 -0.0085 -0.0920  0.2194
 7388TIP3    H146359   1.459   6.699  11.789 -0.3291  0.7694  1.3003
 7388TIP3    H246360   1.403   6.558  11.792  1.0771  0.1659  0.4854
 7389TIP3   OH246361   1.577   3.561  10.085  0.5053  0.2773  0.2711
 7389TIP3    H146362   1.581   3.501  10.011  0.1854  1.5822 -0.8586
 7389TIP3    H246363   1.610   3.644  10.050  0.1753  0.9687  1.5474
 7390TIP3   OH246364   2.726   5.639  10.034  0.7587  0.1159 -0.5133
 7390TIP3    H146365   2.704   5.552  10.069  1.5170 -0.5910 -1.7017
 7390TIP3    H246366   2.753   5.690  10.110 -0.4998 -0.4102  0.3348
 7391TIP3   OH246367   6.015   3.260   9.665 -0.2073 -0.3738  0.2692
 7391TIP3    H146368   5.982   3.203   9.734  1.1156 -1.4352  0.0815
 7391TIP3    H246369   6.064   3.202   9.607 -0.0547  0.7287 -0.7620
 7392TIP3   OH246370   6.594   4.475  12.333 -0.1609  0.4435 -0.0468
 7392TIP3    H146371   6.680   4.488  12.374  0.5478 -1.2135 -0.8945
 7392TIP3    H246372   6.531   4.486  12.403  0.9071 -0.6771  1.1373
 7393TIP3   OH246373   0.634   0.525  10.106  0.0256  0.0657 -0.8615
 7393TIP3    H146374   0.613   0.609  10.147 -3.0338 -1.2599  0.6226
 7393TIP3    H246375   0.608   0.535  10.015 -3.4193 -0.1052 -0.0278
 7394TIP3   OH246376   4.618   4.421   9.182  0.0232  0.0097  0.6033
 7394TIP3    H146377   4.639   4.329   9.169 -1.3226 -0.1536 -0.6907
 7394TIP3    H246378   4.529   4.421   9.216 -0.7598  0.8467 -1.2892
 7395TIP3   OH246379   4.758   2.303   9.428 -0.0687 -0.2512  0.2451
 7395TIP3    H146380   4.787   2.226   9.476 -0.7726 -1.8531 -1.7459
 7395TIP3    H246381   4.772   2.376   9.488  2.6800 -1.6154  1.4221
 7396TIP3   OH246382   2.318   0.974   9.378  0.8399 -0.9470 -0.1369
 7396TIP3    H146383   2.326   0.909   9.448  0.3728 -2.1534 -1.1616
 7396TIP3    H246384   2.357   0.932   9.302 -0.0438 -0.2852 -0.9841
 7397TIP3   OH246385   2.825   0.014  12.198  0.0433  0.1067 -0.5297
 7397TIP3    H146386   2.797   0.070  12.271 -0.2434  1.8114 -1.8833
 7397TIP3    H246387   2.747  -0.038  12.176 -0.7228  1.5278 -1.3151
 7398TIP3   OH246388   1.219   5.627  11.651 -0.1558 -0.3634  0.2824
 7398TIP3    H146389   1.136   5.654  11.689 -0.3553  0.3003 -0.6047
 7398TIP3    H246390   1.199   5.546  11.605 -0.3433 -0.1179 -0.0653
 7399TIP3   OH246391   0.163   5.709   9.871  0.1778  0.7233  0.2215
 7399TIP3    H146392   0.163   5.700   9.776  0.7902  2.5338  0.0246
 7399TIP3    H246393   0.089   5.766   9.890 -1.0118 -0.9904  1.0346
 7400TIP3   OH246394   3.120   6.263  11.777 -0.3600 -0.3620  0.0213
 7400TIP3    H146395   3.144   6.342  11.826  0.2048 -1.1882  1.1012
 7400TIP3    H246396   3.028   6.277  11.755 -0.5085  0.2371  0.9457
 7401TIP3   OH246397   6.417   5.867   9.275  0.5446 -0.4936  0.2655
 7401TIP3    H146398   6.412   5.962   9.271  1.0446 -0.4815 -0.1962
 7401TIP3    H246399   6.511   5.848   9.283  0.6235 -1.0015 -1.4838
 7402TIP3   OH246400   6.550   0.193  10.751  0.0563  0.2246  0.0266
 7402TIP3    H146401   6.615   0.263  10.746 -1.3443  1.5972 -0.0163
 7402TIP3    H246402   6.569   0.136  10.677  2.5186 -0.6740  1.2312
 7403TIP3   OH246403   6.472   4.929  12.343 -0.0068  0.5982  0.5518
 7403TIP3    H146404   6.515   4.946  12.427 -0.0312  2.3481  0.2332
 7403TIP3    H246405   6.398   4.989  12.342 -0.1835  0.3729 -0.6050
 7404TIP3   OH246406   5.881   2.916  11.800 -0.0641 -0.1569  0.1652
 7404TIP3    H146407   5.929   2.839  11.830 -0.3696  0.2702  1.8620
 7404TIP3    H246408   5.789   2.891  11.808 -0.1605 -0.3398 -1.3310
 7405TIP3   OH246409   1.535   4.000   9.730 -0.0629  0.1256 -0.4443
 7405TIP3    H146410   1.549   3.949   9.651 -2.1891 -1.5534  0.1555
 7405TIP3    H246411   1.440   4.005   9.739  0.1108  1.1975  1.4142
 7406TIP3   OH246412   2.117   2.241  10.594 -0.1576 -0.1885 -0.1646
 7406TIP3    H146413   2.062   2.267  10.519 -1.1973 -1.5192  0.1077
 7406TIP3    H246414   2.060   2.253  10.670  1.2075  2.1070  0.5848
 7407TIP3   OH246415   2.871   6.266  11.639  0.0236 -0.5955 -0.1000
 7407TIP3    H146416   2.780   6.284  11.615  0.3940  1.2069 -0.3099
 7407TIP3    H246417   2.901   6.204  11.573 -0.4796  0.3584 -1.2730
 7408TIP3   OH246418   5.515   4.183  11.921  0.3600 -0.3544  0.4668
 7408TIP3    H146419   5.444   4.132  11.960  0.0639 -0.2819  0.0241
 7408TIP3    H246420   5.472   4.257  11.879  0.6571 -0.5345 -0.1642
 7409TIP3   OH246421   4.561   3.873  12.017  0.5805 -0.0410 -0.0955
 7409TIP3    H146422   4.592   3.952  11.973  2.7594  0.4942  2.1722
 7409TIP3    H246423   4.468   3.891  12.036  0.2929  0.7591 -2.0700
 7410TIP3   OH246424   1.798   6.256  12.389  0.5566  0.3052 -0.8163
 7410TIP3    H146425   1.797   6.185  12.325  1.2290  0.5273 -1.0791
 7410TIP3    H246426   1.749   6.222  12.463 -0.3091  0.0783 -1.4774
 7411TIP3   OH246427   1.010   4.184  12.083 -0.1685  0.3889  0.8629
 7411TIP3    H146428   1.069   4.155  12.013 -0.0365 -0.1829  1.2047
 7411TIP3    H246429   0.922   4.176  12.046 -0.0294  1.6179  0.2141
 7412TIP3   OH246430   0.872   3.941  11.348  0.7208 -0.0988  0.4957
 7412TIP3    H146431   0.796   3.997  11.338  0.3674 -0.3028  1.8745
 7412TIP3    H246432   0.945   3.991  11.310 -0.2316 -0.3394 -1.8170
 7413TIP3   OH246433   4.397   0.472  11.509  0.2846  0.6965  0.0988
 7413TIP3    H146434   4.462   0.406  11.485 -1.8148 -1.4546 -0.0351
 7413TIP3    H246435   4.412   0.487  11.603  0.6771 -0.1223  0.1798
 7414TIP3   OH246436   1.492   6.433  10.730 -0.8423 -0.2940  0.5065
 7414TIP3    H146437   1.534   6.414  10.813  0.8160 -1.5669 -0.5590
 7414TIP3    H246438   1.434   6.359  10.714 -1.5425  0.1882  0.7205
 7415TIP3   OH246439   4.353   1.128  11.525 -0.0619  0.3932  0.0618
 7415TIP3    H146440   4.265   1.092  11.520 -0.2737  0.8029  0.6327
 7415TIP3    H246441   4.404   1.079  11.461 -0.3247 -0.9580  0.8537
 7416TIP3   OH246442   4.656   4.755   9.786  0.1201  0.3697  0.3364
 7416TIP3    H146443   4.599   4.714   9.851 -0.5803  0.1977 -0.3613
 7416TIP3    H246444   4.606   4.749   9.704  1.6691 -0.9709 -0.5735
 7417TIP3   OH246445   2.602   6.616  10.755 -0.1049  0.3433 -0.1336
 7417TIP3    H146446   2.625   6.691  10.810 -1.6116  0.6624  0.0902
 7417TIP3    H246447   2.627   6.539  10.807  1.1241  0.6683 -0.2242
 7418TIP3   OH246448   5.679   5.476  10.571 -0.5173 -0.3627 -0.1281
 7418TIP3    H146449   5.754   5.526  10.605 -1.2899 -0.9857  2.7595
 7418TIP3    H246450   5.614   5.542  10.548  0.3730  0.1218 -1.3380
 7419TIP3   OH246451   2.488   0.371  10.829  0.3086  0.0960  0.6575
 7419TIP3    H146452   2.572   0.357  10.872 -0.3994 -2.5875  1.3745
 7419TIP3    H246453   2.509   0.421  10.750  2.6973 -1.1783  0.3932
 7420TIP3   OH246454   1.002   1.804   9.925  0.1375 -0.0719  0.0761
 7420TIP3    H146455   0.971   1.790  10.014  0.8942 -0.6676  0.2566
 7420TIP3    H246456   1.010   1.899   9.917  3.7257 -0.0460  1.9768
 7421TIP3   OH246457   3.836   5.008  12.681  0.1369  0.1680 -0.0623
 7421TIP3    H146458   3.741   4.995  12.675  0.1691  0.4374 -1.5907
 7421TIP3    H246459   3.857   5.063  12.606  1.8826 -1.9936 -1.2467
 7422TIP3   OH246460   0.582   6.530  10.737  0.9855 -0.5737 -0.4367
 7422TIP3    H146461   0.611   6.610  10.693 -0.3224  0.5495  0.6462
 7422TIP3    H246462   0.545   6.560  10.820 -1.6131 -2.0288 -0.9456
 7423TIP3   OH246463   2.355   4.322   9.369  0.4076 -0.0643 -0.0902
 7423TIP3    H146464   2.319   4.410   9.361 -0.0745 -0.0841  1.5868
 7423TIP3    H246465   2.279   4.264   9.362  0.5923 -0.2998 -0.1633
 7424TIP3   OH246466   2.829   3.212  10.691 -0.2511  0.6626  0.2219
 7424TIP3    H146467   2.773   3.253  10.625 -0.8369  0.7529  0.7665
 7424TIP3    H246468   2.777   3.213  10.772 -0.2675 -1.1219  0.2730
 7425TIP3   OH246469   3.497   4.849  11.136  0.0585  0.0328 -0.0443
 7425TIP3    H146470   3.452   4.803  11.065 -0.5514  0.9393 -0.2688
 7425TIP3    H246471   3.586   4.861  11.104 -0.2372  0.5327 -0.7234
 7426TIP3   OH246472   5.430   0.100  12.345 -0.3686 -0.1392 -0.1861
 7426TIP3    H146473   5.505   0.066  12.297 -0.7229 -2.3854  0.7358
 7426TIP3    H246474   5.397   0.172  12.291  1.9468  0.3819 -0.9857
 7427TIP3   OH246475   2.435   3.542  10.263 -0.7635  0.2270  0.1317
 7427TIP3    H146476   2.413   3.467  10.209  0.0056 -0.5790  0.9132
 7427TIP3    H246477   2.361   3.603  10.251 -2.4859 -1.5425  1.1434
 7428TIP3   OH246478   1.100   0.514   9.881 -0.2135 -0.5844 -0.2592
 7428TIP3    H146479   1.114   0.437   9.937 -1.2133 -0.7452 -0.2063
 7428TIP3    H246480   1.009   0.539   9.899 -0.1362  0.1364 -0.8659
 7429TIP3   OH246481   5.633   6.474   9.382 -0.2291 -0.5717  0.4652
 7429TIP3    H146482   5.624   6.569   9.389 -0.0500 -0.5790  0.8639
 7429TIP3    H246483   5.547   6.444   9.353 -0.0471 -0.2152 -0.4715
 7430TIP3   OH246484   5.067   3.148  11.241  0.3964  0.1400  0.6174
 7430TIP3    H146485   5.135   3.081  11.249 -0.3654 -0.7249 -0.0207
 7430TIP3    H246486   5.010   3.133  11.316 -0.2818 -0.5420 -0.0087
 7431TIP3   OH246487   4.492   5.228  10.349 -0.3401 -0.2537 -0.4901
 7431TIP3    H146488   4.518   5.149  10.396  0.0140 -0.8140 -1.5778
 7431TIP3    H246489   4.572   5.279  10.341 -0.0483 -0.8747 -1.7830
 7432TIP3   OH246490   2.299   0.070   9.990 -0.1668  0.0355  0.5992
 7432TIP3    H146491   2.216   0.086  10.036  0.4110  2.5339  0.9385
 7432TIP3    H246492   2.344   0.004  10.042 -1.2996 -0.2440  1.2488
 7433TIP3   OH246493   5.336   6.484   9.590 -0.4763 -0.6523  0.1231
 7433TIP3    H146494   5.316   6.444   9.505 -2.0902 -1.3443  0.7949
 7433TIP3    H246495   5.265   6.456   9.647 -0.2237  1.0183  1.3251
 7434TIP3   OH246496   5.705   2.599  12.366  0.8027 -0.5049 -0.0475
 7434TIP3    H146497   5.617   2.579  12.398  0.5256  0.4190 -0.2039
 7434TIP3    H246498   5.741   2.514  12.341  0.1899 -0.9666  0.5998
 7435TIP3   OH246499   2.784   3.961  11.918  0.6450 -0.0299  0.1373
 7435TIP3    H146500   2.715   3.905  11.883  1.3459 -0.8221 -0.0148
 7435TIP3    H246501   2.745   4.048  11.923  0.2429 -0.0531 -1.8195
 7436TIP3   OH246502   5.100   2.178  11.107 -0.9832 -0.0510 -0.2345
 7436TIP3    H146503   5.061   2.091  11.093  0.2471 -0.5680 -0.5800
 7436TIP3    H246504   5.148   2.169  11.189 -0.6671  0.2296 -0.3869
 7437TIP3   OH246505   1.629   0.658  11.164  0.0795  0.2166 -0.2277
 7437TIP3    H146506   1.559   0.684  11.224  0.5567 -0.5199  0.6811
 7437TIP3    H246507   1.673   0.585  11.209 -0.4723 -1.3571 -2.1260
 7438TIP3   OH246508   6.437   4.958   9.406  0.1360  0.2098 -0.5682
 7438TIP3    H146509   6.513   5.014   9.421 -0.9696  1.4154  0.8935
 7438TIP3    H246510   6.370   5.017   9.373 -0.7509 -0.4425  0.0275
 7439TIP3   OH246511   0.611   4.863  10.713 -0.3660  0.1901 -0.6661
 7439TIP3    H146512   0.527   4.898  10.684 -0.3600  0.8081  0.0230
 7439TIP3    H246513   0.624   4.784  10.660 -1.7876 -0.4063 -0.1832
 7440TIP3   OH246514   1.662   2.856  11.033  0.4258 -0.1810 -0.4163
 7440TIP3    H146515   1.739   2.895  10.992 -0.6858  1.3649 -1.1202
 7440TIP3    H246516   1.635   2.920  11.098  0.1926 -1.0831  0.3893
 7441TIP3   OH246517   0.282   1.138   9.624  0.1014 -0.3909 -0.0530
 7441TIP3    H146518   0.238   1.146   9.539  1.1428 -0.5761 -0.6422
 7441TIP3    H246519   0.375   1.135   9.601  0.5603  2.0035  1.2648
 7442TIP3   OH246520   0.550   2.577  10.517  0.0152  0.2436 -0.5953
 7442TIP3    H146521   0.485   2.509  10.535  1.7870 -1.4487 -0.2453
 7442TIP3    H246522   0.516   2.622  10.440 -1.1726 -1.1301 -0.9229
 7443TIP3   OH246523   0.586   4.768  11.720  0.3425  0.1685 -0.4104
 7443TIP3    H146524   0.591   4.703  11.790  0.9209 -1.0856 -1.5834
 7443TIP3    H246525   0.602   4.719  11.640 -0.0885  1.6155 -1.4198
 7444TIP3   OH246526   4.073   0.985  10.225  0.1787  0.5872 -0.3518
 7444TIP3    H146527   4.145   0.959  10.167 -0.0686 -1.7117  0.2436
 7444TIP3    H246528   3.994   0.951  10.182 -0.3509  1.4899 -0.1116
 7445TIP3   OH246529   5.314   2.495  11.108  0.3977  0.1248  0.1831
 7445TIP3    H146530   5.241   2.464  11.055 -0.4120 -0.2559  1.4757
 7445TIP3    H246531   5.358   2.415  11.137  0.8415  0.3281  0.0803
 7446TIP3   OH246532   0.021   0.351  10.720  0.0487 -0.1982 -0.1086
 7446TIP3    H146533   0.083   0.315  10.784  0.4590 -0.5669 -0.6878
 7446TIP3    H246534   0.062   0.331  10.635  1.0907  3.0348 -0.4740
 7447TIP3   OH246535   5.938   1.598  10.054 -0.4015 -0.2661  0.2075
 7447TIP3    H146536   5.990   1.626  10.129  0.1510  2.1056 -0.9632
 7447TIP3    H246537   5.997   1.543  10.003 -1.0368 -2.6086  1.8008
 7448TIP3   OH246538   6.655   2.915  10.234 -0.4835  0.4792  0.2705
 7448TIP3    H146539   6.670   2.840  10.291  0.3651 -0.1700 -0.7766
 7448TIP3    H246540   6.735   2.967  10.241  0.0768 -0.1571 -1.1162
 7449TIP3   OH246541   6.274   3.160   9.220 -0.1980  0.8371 -0.1385
 7449TIP3    H146542   6.331   3.153   9.144 -0.2356  2.6688 -0.3697
 7449TIP3    H246543   6.280   3.252   9.247 -0.0738  0.2251  2.1539
 7450TIP3   OH246544   5.020   0.789  10.691  0.1206  0.0165  0.1330
 7450TIP3    H146545   5.077   0.743  10.630 -0.5791  0.3076 -0.7557
 7450TIP3    H246546   5.014   0.730  10.767  2.6708  0.5686  0.8577
 7451TIP3   OH246547   2.799   3.686   9.695  0.6539 -0.1879  0.2170
 7451TIP3    H146548   2.751   3.655   9.618  0.1958  1.1429 -0.0554
 7451TIP3    H246549   2.753   3.645   9.769 -1.4770  1.6134  0.0186
 7452TIP3   OH246550   4.612   2.644  11.199 -0.3119 -0.6321  0.5456
 7452TIP3    H146551   4.625   2.590  11.121  2.2600 -2.2364  1.9185
 7452TIP3    H246552   4.528   2.615  11.236 -0.4105 -1.5282 -0.3632
 7453TIP3   OH246553   3.000   1.995   9.355 -0.0887  0.2536  0.0567
 7453TIP3    H146554   3.074   1.940   9.329 -0.0768 -0.6345  1.8556
 7453TIP3    H246555   3.041   2.075   9.389 -0.1137  1.8326 -3.2031
 7454TIP3   OH246556   0.608   4.315  11.676  0.0371 -0.4406 -0.2200
 7454TIP3    H146557   0.583   4.235  11.723 -2.4950  1.1876  1.4425
 7454TIP3    H246558   0.566   4.306  11.591  0.8008 -1.3978 -0.5096
 7455TIP3   OH246559   0.943   4.544  12.264 -0.0454  0.3502 -0.2547
 7455TIP3    H146560   0.930   4.569  12.355  0.4618 -2.6255  0.7649
 7455TIP3    H246561   1.026   4.586  12.239  0.6454 -0.0512  1.2343
 7456TIP3   OH246562   0.151   4.647  13.335 -0.2901  0.1937 -0.3005
 7456TIP3    H146563   0.219   4.593  13.295  1.7180  0.9842  1.7794
 7456TIP3    H246564   0.073   4.593  13.334  1.1968 -2.0919  0.1567
 7457TIP3   OH246565   1.770   5.022  11.574 -0.0324  0.1624  0.1100
 7457TIP3    H146566   1.709   5.079  11.622 -1.0095  0.0419 -0.9573
 7457TIP3    H246567   1.782   4.947  11.632 -2.0336 -0.4828 -0.2384
 7458TIP3   OH246568   3.741   5.504  10.015  0.5622  0.6403  0.7598
 7458TIP3    H146569   3.773   5.527   9.928  2.7459 -0.5574  1.1851
 7458TIP3    H246570   3.742   5.587  10.063 -3.7117  2.0523 -1.0477
 7459TIP3   OH246571   0.681   2.588   9.427  0.1851 -0.1554  0.0006
 7459TIP3    H146572   0.590   2.562   9.411 -1.5153  2.7192  3.6796
 7459TIP3    H246573   0.689   2.674   9.386  2.5197 -1.7052 -3.2230
 7460TIP3   OH246574   2.211   1.693  10.415  0.1308 -0.1532  0.1669
 7460TIP3    H146575   2.248   1.662  10.332  0.7209 -1.0547  0.7440
 7460TIP3    H246576   2.125   1.652  10.420  0.3786 -0.6739  0.3104
 7461TIP3   OH246577   2.274   3.298  10.656 -0.1087  0.3933 -0.0721
 7461TIP3    H146578   2.252   3.311  10.564  1.4719  0.0241 -0.5348
 7461TIP3    H246579   2.203   3.243  10.690 -2.6987  3.4975 -0.0691
 7462TIP3   OH246580   0.099   6.471  11.202  0.1981 -0.3388 -0.2607
 7462TIP3    H146581   0.049   6.471  11.284  2.5405  1.9313  1.3083
 7462TIP3    H246582   0.036   6.502  11.136 -1.7239 -2.1652  0.5745
 7463TIP3   OH246583   5.671   6.593  11.846  0.0792  0.5400 -0.3613
 7463TIP3    H146584   5.596   6.651  11.865  0.6510  0.5980  2.1393
 7463TIP3    H246585   5.638   6.505  11.864  0.5454  0.5571  0.6480
 7464TIP3   OH246586   3.764   1.495  10.414  0.1971  0.1442  0.3950
 7464TIP3    H146587   3.724   1.523  10.496 -0.6883  0.9423 -0.2922
 7464TIP3    H246588   3.789   1.404  10.429 -0.8019 -0.0058  1.2424
 7465TIP3   OH246589   2.787   6.045   9.968 -0.0640 -0.2839  0.1090
 7465TIP3    H146590   2.854   5.996   9.922 -0.0226 -0.2961  0.1820
 7465TIP3    H246591   2.831   6.124  10.000  0.3267 -1.0208  1.5056
 7466TIP3   OH246592   6.060   5.420  12.040  0.1788  0.3492  0.1262
 7466TIP3    H146593   6.025   5.475  11.970  0.5232  0.7733  0.2843
 7466TIP3    H246594   6.005   5.440  12.116 -0.4250 -0.3774 -0.1084
 7467TIP3   OH246595   4.827   0.778  10.219 -0.2240  0.1388 -0.0881
 7467TIP3    H146596   4.875   0.696  10.233 -0.5952 -0.2384 -0.9484
 7467TIP3    H246597   4.893   0.839  10.186  0.0386  0.1755  0.4894
 7468TIP3   OH246598   3.825   6.026   9.141 -0.0796  0.2483 -0.7745
 7468TIP3    H146599   3.888   6.065   9.081 -0.9698  1.4202 -0.9913
 7468TIP3    H246600   3.745   6.077   9.128 -0.9732 -0.9678 -0.2570
 7469TIP3   OH246601   5.496   0.181  11.451  0.1450 -0.6206  0.2111
 7469TIP3    H146602   5.571   0.240  11.459  1.2876 -2.2424  2.9667
 7469TIP3    H246603   5.529   0.107  11.399 -0.8157  0.3468 -1.8989
 7470TIP3   OH246604   0.952   6.692   9.359  0.4835  0.1075 -0.1526
 7470TIP3    H146605   0.983   6.758   9.296  0.5444  0.0448 -0.1882
 7470TIP3    H246606   1.029   6.639   9.379  0.1345 -0.8144 -1.1715
 7471TIP3   OH246607   5.073   3.198  12.067 -0.3458 -0.0195  0.4678
 7471TIP3    H146608   5.083   3.293  12.060 -1.3022  0.1113  0.7673
 7471TIP3    H246609   4.989   3.180  12.026 -0.7578 -0.5821  1.5362
 7472TIP3   OH246610   4.239   4.801  10.737 -0.4787  0.1676 -0.0611
 7472TIP3    H146611   4.244   4.846  10.821 -1.3999  0.1745  0.0061
 7472TIP3    H246612   4.330   4.793  10.707 -0.2763  1.7307  0.0980
 7473TIP3   OH246613   3.875   5.286  10.100  0.2257  0.6186 -0.3680
 7473TIP3    H146614   3.935   5.360  10.089 -0.9768  1.9329  1.2141
 7473TIP3    H246615   3.788   5.327  10.106 -0.6634 -1.0782 -0.9442
 7474TIP3   OH246616   2.114   6.612  10.583 -0.4137  0.5409  0.3156
 7474TIP3    H146617   2.034   6.588  10.535 -1.9138  1.2362  2.3226
 7474TIP3    H246618   2.120   6.707  10.574  1.0072  0.3611 -0.9585
 7475TIP3   OH246619   1.121   6.593   9.987 -0.1170  0.1693 -0.5385
 7475TIP3    H146620   1.089   6.503   9.979 -1.9637  0.7752 -0.5112
 7475TIP3    H246621   1.084   6.625  10.069  0.5174  0.9599 -0.5435
 7476TIP3   OH246622   3.542   5.371  11.793 -0.5383  0.2282 -0.0826
 7476TIP3    H146623   3.582   5.290  11.760 -0.2275 -0.2398  1.3907
 7476TIP3    H246624   3.475   5.341  11.854 -0.8293  1.0815  0.0254
 7477TIP3   OH246625   3.706   3.965  10.731 -0.5869 -0.6389 -0.0748
 7477TIP3    H146626   3.727   4.052  10.697  1.9389 -0.5495  1.4502
 7477TIP3    H246627   3.646   3.982  10.804  0.2299 -0.1209  0.4864
 7478TIP3   OH246628   2.884   2.690  11.690 -0.0139 -0.3184 -0.2934
 7478TIP3    H146629   2.968   2.734  11.680  0.2975 -1.1466 -1.5334
 7478TIP3    H246630   2.907   2.599  11.709 -0.6393 -0.3944  0.1183
 7479TIP3   OH246631   3.288   2.383  17.617 -0.1259  0.0150  0.0010
 7479TIP3    H146632   3.239   2.362  17.537  1.7479 -2.2423 -0.6637
 7479TIP3    H246633   3.296   2.478  17.616 -0.7420  0.0963 -2.1580
 7480TIP3   OH246634   1.869   0.479  11.526  0.2316 -0.4746  0.4275
 7480TIP3    H146635   1.876   0.512  11.616 -1.3182  0.9003  0.0850
 7480TIP3    H246636   1.905   0.549  11.472 -0.3215 -0.6173 -0.1351
 7481TIP3   OH246637   1.259   1.575   9.530  0.2737  0.7830 -0.1152
 7481TIP3    H146638   1.192   1.623   9.578  1.9873  1.4144  1.7528
 7481TIP3    H246639   1.212   1.536   9.456 -1.7258  2.9459 -0.0880
 7482TIP3   OH246640   2.814   3.207   9.781 -0.1221  0.1758  0.0609
 7482TIP3    H146641   2.758   3.168   9.714  2.7102  0.6346 -2.8524
 7482TIP3    H246642   2.851   3.132   9.827 -1.1960 -0.2026  0.3317
 7483TIP3   OH246643   1.691   4.412   9.857  0.1174  0.2559 -0.1796
 7483TIP3    H146644   1.786   4.406   9.848 -0.0162 -1.8077 -0.5749
 7483TIP3    H246645   1.671   4.504   9.840  1.6635  0.0366 -4.1029
 7484TIP3   OH246646   6.575   1.389  11.100 -0.5080 -0.8146 -0.3975
 7484TIP3    H146647   6.642   1.397  11.032 -0.0523 -1.8459 -0.0846
 7484TIP3    H246648   6.623   1.366  11.179 -1.2246 -1.5954 -0.1754
 7485TIP3   OH246649   0.141   0.084  10.202  0.7480 -0.1504 -0.0830
 7485TIP3    H146650   0.144   0.029  10.280  0.8472  3.6200  2.8985
 7485TIP3    H246651   0.225   0.130  10.201  0.3205  0.6775 -1.7939
 7486TIP3   OH246652   6.192   2.412   9.906  0.0879  0.1993  0.2525
 7486TIP3    H146653   6.224   2.326   9.878  0.4011  1.2310 -3.0665
 7486TIP3    H246654   6.099   2.397   9.926  0.3227 -1.0596  0.5137
 7487TIP3   OH246655   1.581   5.705   9.219 -0.1306  0.1090 -0.1407
 7487TIP3    H146656   1.585   5.800   9.216 -1.1577  0.1621 -0.0123
 7487TIP3    H246657   1.661   5.679   9.265 -0.2428  0.9474  0.5438
 7488TIP3   OH246658   6.525   3.381  10.276  0.2825 -0.3799  0.0122
 7488TIP3    H146659   6.458   3.349  10.214 -3.4057  0.5200  3.1329
 7488TIP3    H246660   6.554   3.303  10.322  0.5305 -0.6392 -0.5696
 7489TIP3   OH246661   3.293   3.983   9.579 -0.6063  0.7570  0.0102
 7489TIP3    H146662   3.254   3.921   9.518  1.0749  2.5876 -3.1560
 7489TIP3    H246663   3.383   3.953   9.590 -0.3312  1.5565  0.0080
 7490TIP3   OH246664   5.228   2.267   9.373  0.0857  0.5618 -0.2788
 7490TIP3    H146665   5.241   2.182   9.414 -1.6956  0.3468 -0.0910
 7490TIP3    H246666   5.180   2.249   9.292 -0.6213  1.3855 -0.0701
 7491TIP3   OH246667   2.066   5.970  10.421 -0.5119  0.4426 -0.2897
 7491TIP3    H146668   2.036   6.060  10.405 -1.5205  0.3458  0.8745
 7491TIP3    H246669   2.153   5.966  10.381 -1.5687  1.0758 -2.8534
 7492TIP3   OH246670   4.809   0.185  12.027 -0.0709 -0.4617  0.1648
 7492TIP3    H146671   4.822   0.125  11.954  0.6976 -0.7359  0.5129
 7492TIP3    H246672   4.789   0.128  12.101 -0.5217 -0.2076  0.2384
 7493TIP3   OH246673   5.909   5.717  10.378  0.4093 -0.1304  0.2102
 7493TIP3    H146674   5.923   5.703  10.284  0.4859 -1.3977  0.3916
 7493TIP3    H246675   5.816   5.702  10.392  0.3133  0.4917  0.2766
 7494TIP3   OH246676   6.696   3.629  11.906 -0.1716  0.3325  0.5935
 7494TIP3    H146677   6.770   3.602  11.961 -0.0960  0.3009  0.4754
 7494TIP3    H246678   6.643   3.549  11.896  1.0410 -0.3012 -1.3348
 7495TIP3   OH246679   2.494   5.479  11.646 -0.2153 -0.2193 -0.4498
 7495TIP3    H146680   2.501   5.557  11.701 -0.4426  0.5199 -1.4538
 7495TIP3    H246681   2.485   5.512  11.557 -1.4833 -1.3732 -0.7849
 7496TIP3   OH246682   3.672   5.293  12.601  0.6065  0.1745  0.2771
 7496TIP3    H146683   3.728   5.369  12.583 -1.5439  1.7841 -0.0251
 7496TIP3    H246684   3.665   5.248  12.517  2.1940 -0.6335  0.5406
 7497TIP3   OH246685   2.439   6.538  11.882  0.1459 -0.2244  0.4862
 7497TIP3    H146686   2.378   6.605  11.912 -0.3034 -0.9252  1.1981
 7497TIP3    H246687   2.415   6.521  11.791  1.1004  1.4741 -0.1195
 7498TIP3   OH246688   1.012   5.777  11.756  0.1129 -1.0126  0.8770
 7498TIP3    H146689   1.003   5.772  11.851 -0.9337 -0.2446  0.8360
 7498TIP3    H246690   1.017   5.871  11.737  0.9960 -1.1789  0.2179
 7499TIP3   OH246691   1.947   6.097  11.654  0.8990 -0.2831  0.3577
 7499TIP3    H146692   1.919   6.053  11.734  2.4959 -0.5368  0.7942
 7499TIP3    H246693   1.947   6.029  11.587 -0.6194 -0.0330  0.0556
 7500TIP3   OH246694   1.024   3.964  12.457 -0.2592 -0.6852 -0.2952
 7500TIP3    H146695   1.016   3.944  12.551 -1.3840  0.9323 -0.0038
 7500TIP3    H246696   0.935   3.951  12.423  0.2168 -1.6080 -1.2382
 7501TIP3   OH246697   4.388   3.910  10.222 -0.2912  0.0486  0.0047
 7501TIP3    H146698   4.394   3.821  10.256  1.1843  0.4239  0.7799
 7501TIP3    H246699   4.314   3.907  10.160 -0.0868 -1.7660 -0.2013
 7502TIP3   OH246700   1.657   4.224   9.584 -0.3410 -0.3798  0.4729
 7502TIP3    H146701   1.714   4.272   9.644 -1.4003  1.1946  0.2689
 7502TIP3    H246702   1.608   4.165   9.641  0.9502 -1.2408  0.7329
 7503TIP3   OH246703   1.061   4.169  11.207 -0.5340  0.4400 -0.4634
 7503TIP3    H146704   1.117   4.242  11.234  1.7694 -1.0072 -1.0192
 7503TIP3    H246705   0.998   4.208  11.147 -0.7667  2.3176  0.8881
 7504TIP3   OH246706   1.842   6.483   9.841  0.3428  0.2459 -0.6642
 7504TIP3    H146707   1.901   6.540   9.890  0.0383  0.5561 -0.6593
 7504TIP3    H246708   1.769   6.539   9.816 -1.2832 -0.7165  1.5925
 7505TIP3   OH246709   0.367   5.927   9.636  0.0197 -0.4567 -0.5980
 7505TIP3    H146710   0.415   5.868   9.578  0.9081 -0.7189  0.3691
 7505TIP3    H246711   0.416   5.925   9.718  0.3259  1.9174 -0.6271
 7506TIP3   OH246712   0.107   4.453  11.877 -0.1991 -0.3556 -0.2199
 7506TIP3    H146713   0.026   4.500  11.898 -0.3364 -0.5106 -0.3956
 7506TIP3    H246714   0.133   4.413  11.960 -0.5186 -0.6308 -0.2501
 7507TIP3   OH246715   1.841   2.171  11.501  0.0758  0.3508 -0.3057
 7507TIP3    H146716   1.769   2.121  11.462 -0.4613  1.8408 -1.3558
 7507TIP3    H246717   1.901   2.187  11.428  0.9850 -0.0174  0.3418
 7508TIP3   OH246718   4.508   0.483   9.642 -0.0961  0.0737 -0.2289
 7508TIP3    H146719   4.540   0.394   9.628  1.7765  0.6199  0.2637
 7508TIP3    H246720   4.500   0.491   9.737  0.5696  0.6745 -0.2122
 7509TIP3   OH246721   6.385   3.990   9.158  0.1052 -0.1005 -0.5009
 7509TIP3    H146722   6.339   3.995   9.074 -0.2910 -1.1712 -0.3644
 7509TIP3    H246723   6.372   3.900   9.186  0.8776  0.0504  0.3554
 7510TIP3   OH246724   6.334   3.364   9.796 -0.0134 -0.1043  0.1090
 7510TIP3    H146725   6.283   3.290   9.763 -1.0092  0.4293  0.3851
 7510TIP3    H246726   6.277   3.439   9.784  1.1460  0.6961 -0.5446
 7511TIP3   OH246727   2.693   4.029  10.701  0.3148  0.2886  0.4887
 7511TIP3    H146728   2.718   3.937  10.691  0.8421  0.4724  0.0531
 7511TIP3    H246729   2.600   4.030  10.680  0.5043 -0.0062 -0.4348
 7512TIP3   OH246730   2.230   1.445  12.182 -0.5825  0.2351 -0.1698
 7512TIP3    H146731   2.245   1.354  12.159 -0.1445  0.1917  0.2916
 7512TIP3    H246732   2.166   1.442  12.253  0.9697  0.1706  1.2749
 7513TIP3   OH246733   1.777   2.785  10.058  0.7236  0.2312 -0.0393
 7513TIP3    H146734   1.741   2.807   9.972 -0.4171  0.5583  0.5118
 7513TIP3    H246735   1.869   2.812  10.053  1.0111 -0.8880 -1.5691
 7514TIP3   OH246736   4.989   4.205  10.195  0.4300  0.1652 -0.2257
 7514TIP3    H146737   4.907   4.236  10.157  0.1484  0.0494  0.2791
 7514TIP3    H246738   5.013   4.129  10.140  1.2453  1.3603 -1.6021
 7515TIP3   OH246739   1.330   5.881  11.669  0.0026 -0.0346 -1.0877
 7515TIP3    H146740   1.287   5.890  11.754 -1.1015  0.4797 -1.6817
 7515TIP3    H246741   1.298   5.799  11.634 -0.5642  0.3931 -1.5721
 7516TIP3   OH246742   6.026   6.282   9.665 -0.1460  0.2656 -0.0815
 7516TIP3    H146743   5.949   6.333   9.640  0.4561  2.5648  2.2293
 7516TIP3    H246744   6.096   6.316   9.609  0.2476  2.1784  1.4270
 7517TIP3   OH246745   3.665   0.954  11.826 -0.1998  0.4553 -0.3373
 7517TIP3    H146746   3.598   0.886  11.827 -0.3637  0.6073 -0.8777
 7517TIP3    H246747   3.706   0.949  11.913 -0.0067 -0.5273 -0.4744
 7518TIP3   OH246748   3.456   4.611  10.396  0.1104  0.3049 -0.0460
 7518TIP3    H146749   3.508   4.684  10.362  0.5662  0.4064  0.8542
 7518TIP3    H246750   3.446   4.630  10.489 -0.5238 -0.3330  0.0259
 7519TIP3   OH246751   3.812   4.599   9.767 -0.6919  0.3891  0.2122
 7519TIP3    H146752   3.905   4.621   9.770 -0.3441 -0.9005 -0.3421
 7519TIP3    H246753   3.771   4.656   9.832  0.5730  0.5887  0.8557
 7520TIP3   OH246754   0.136   4.183  12.315  0.7099  0.4572 -0.4288
 7520TIP3    H146755   0.144   4.088  12.326  1.7087  0.4808 -0.8425
 7520TIP3    H246756   0.151   4.218  12.403 -3.0342  0.1199  0.5129
 7521TIP3   OH246757   4.203   4.004  10.005 -0.0998  0.1667  0.4592
 7521TIP3    H146758   4.114   4.022  10.035  0.2080  1.3397  0.7483
 7521TIP3    H246759   4.251   4.085  10.024 -0.1420  1.5942 -4.3888
 7522TIP3   OH246760   1.737   3.591  12.284 -0.6382  0.0785 -0.6673
 7522TIP3    H146761   1.830   3.581  12.260 -0.3216  0.2167  0.4422
 7522TIP3    H246762   1.690   3.542  12.217  0.2044  0.4201 -1.5396
 7523TIP3   OH246763   0.506   1.939  11.802  0.5092 -0.1376 -0.2163
 7523TIP3    H146764   0.487   1.909  11.891 -0.6817  0.9202 -0.0993
 7523TIP3    H246765   0.420   1.956  11.764  0.9004 -2.0488 -2.1231
 7524TIP3   OH246766   1.730   4.723  10.352  0.2926 -0.3463  0.4791
 7524TIP3    H146767   1.665   4.789  10.325  0.6039 -0.1614  0.1800
 7524TIP3    H246768   1.806   4.741  10.298 -0.3081 -2.2551 -1.0796
 7525TIP3   OH246769   3.248   1.636  10.721  0.6893  0.1459  0.2380
 7525TIP3    H146770   3.338   1.606  10.736  0.6391  0.1085  0.4640
 7525TIP3    H246771   3.220   1.672  10.805  0.1317 -0.7900  0.4624
 7526TIP3   OH246772   5.192   3.333  11.429  0.0141  0.2273  0.4114
 7526TIP3    H146773   5.107   3.360  11.465 -0.0724  0.6808 -0.1130
 7526TIP3    H246774   5.181   3.241  11.408 -0.7896  0.5931 -0.8785
 7527TIP3   OH246775   3.051   2.561   9.195 -0.8347 -0.0365 -0.2860
 7527TIP3    H146776   2.960   2.590   9.187 -0.3624  1.8905  0.7114
 7527TIP3    H246777   3.100   2.641   9.215  0.8972 -1.2388  0.5281
 7528TIP3   OH246778   4.406   4.408  12.165  0.0117  0.3128  0.3790
 7528TIP3    H146779   4.494   4.444  12.168  0.2867 -0.3512  0.4332
 7528TIP3    H246780   4.375   4.425  12.076  0.3708  0.1400  0.2218
 7529TIP3   OH246781   3.096   0.117  11.633 -0.1814  0.4620 -0.6403
 7529TIP3    H146782   3.017   0.064  11.623 -0.9270  1.4243  0.0037
 7529TIP3    H246783   3.107   0.127  11.728 -0.9770  2.7489 -0.7220
 7530TIP3   OH246784   1.078   0.411  11.511 -0.3666  0.1294 -0.4403
 7530TIP3    H146785   1.021   0.449  11.577 -0.5198 -1.4438  0.3780
 7530TIP3    H246786   1.019   0.374  11.446 -0.2299  0.5599 -0.8178
 7531TIP3   OH246787   1.677   5.210  10.591 -0.3333  0.0137  0.1785
 7531TIP3    H146788   1.645   5.129  10.552  0.5512 -0.3935  0.2746
 7531TIP3    H246789   1.639   5.279  10.536 -0.0640 -0.5084 -0.6914
 7532TIP3   OH246790   0.984   3.806   9.897 -0.0353 -0.4661 -0.3423
 7532TIP3    H146791   1.000   3.790   9.990 -1.4814  3.4044  0.7396
 7532TIP3    H246792   0.894   3.839   9.893  0.4486  0.7814 -2.8849
 7533TIP3   OH246793   1.694   3.368  10.482 -0.1727  0.3467  0.6515
 7533TIP3    H146794   1.782   3.397  10.460 -0.7576 -0.5426 -3.6405
 7533TIP3    H246795   1.641   3.448  10.481 -0.0914  0.4340 -1.3422
 7534TIP3   OH246796   1.883   2.403  10.480  0.2188 -0.1624 -0.1482
 7534TIP3    H146797   1.942   2.442  10.545 -0.4867  0.7548 -0.0209
 7534TIP3    H246798   1.918   2.431  10.396 -0.0172  0.3863 -0.0727
 7535TIP3   OH246799   5.017   4.585  11.470 -0.3221  0.5200 -0.4365
 7535TIP3    H146800   5.041   4.672  11.502 -0.3494  0.3997 -0.0770
 7535TIP3    H246801   4.935   4.565  11.515  0.4657 -0.3353  0.7203
 7536TIP3   OH246802   6.446   4.175  10.458  0.0219 -0.1288 -0.3575
 7536TIP3    H146803   6.525   4.184  10.512 -0.3855  0.6095  0.1343
 7536TIP3    H246804   6.470   4.112  10.390  0.9870 -0.0168 -0.1296
 7537TIP3   OH246805   3.403   0.978   9.306 -0.1853 -0.0503  0.3234
 7537TIP3    H146806   3.331   0.918   9.292 -1.1635  1.6411 -2.7341
 7537TIP3    H246807   3.432   0.960   9.396 -3.0243 -2.1881  0.9523
 7538TIP3   OH246808   1.927   4.079   9.139 -0.5823  0.2898 -0.1547
 7538TIP3    H146809   1.887   4.157   9.102 -1.6652 -0.9264 -1.7074
 7538TIP3    H246810   1.855   4.016   9.146  0.3145 -0.6865  0.7793
 7539TIP3   OH246811   4.106   0.102  12.692  0.0778  0.6893  0.2605
 7539TIP3    H146812   4.101   0.148  12.775  1.6674  1.3929 -0.0170
 7539TIP3    H246813   4.180   0.141  12.646 -0.2495 -0.2554 -1.1423
 7540TIP3   OH246814   2.365   4.680  12.417  0.0067 -0.0571  0.8773
 7540TIP3    H146815   2.307   4.729  12.474  0.1817  0.0559  0.9587
 7540TIP3    H246816   2.447   4.670  12.466 -0.5089 -1.7335  1.4739
 7541TIP3   OH246817   1.577   1.232   9.902 -0.0426 -0.2466  0.0665
 7541TIP3    H146818   1.511   1.269   9.843  0.5865  0.5016 -0.1845
 7541TIP3    H246819   1.612   1.307   9.950 -0.0612 -0.7584  0.9181
 7542TIP3   OH246820   4.865   0.152  11.433  0.6522  0.1673 -0.3822
 7542TIP3    H146821   4.889   0.064  11.463 -0.2317 -0.3679 -1.1867
 7542TIP3    H246822   4.900   0.158  11.344 -1.0283 -0.1714 -1.1074
 7543TIP3   OH246823   5.986   1.709  10.727  0.2097  0.5195  0.2134
 7543TIP3    H146824   6.057   1.715  10.664 -0.0918  0.7548 -0.1085
 7543TIP3    H246825   5.912   1.676  10.676  0.1426  0.0652  0.5916
 7544TIP3   OH246826   4.654   3.738  11.369 -0.3503 -0.3414 -0.1982
 7544TIP3    H146827   4.711   3.732  11.445 -0.2821  0.0454 -0.2160
 7544TIP3    H246828   4.602   3.658  11.371 -0.5092 -0.2217  0.3843
 7545TIP3   OH246829   4.990   2.760  12.056 -0.1383 -0.3796 -0.1397
 7545TIP3    H146830   4.989   2.666  12.077 -0.4014 -0.1306  0.9951
 7545TIP3    H246831   4.906   2.775  12.014 -0.4284 -0.5024  0.3860
 7546TIP3   OH246832   2.176   0.214   9.535  0.1986  0.5101  0.4812
 7546TIP3    H146833   2.098   0.268   9.518 -0.8352 -1.2340 -0.6171
 7546TIP3    H246834   2.222   0.212   9.451  0.9350  0.7697  0.8766
 7547TIP3   OH246835   1.763   0.607  12.773 -0.1358 -0.6301  0.5064
 7547TIP3    H146836   1.826   0.560  12.719 -0.0573 -0.2331  0.2496
 7547TIP3    H246837   1.792   0.698  12.771 -0.9788 -0.3619 -0.0040
 7548TIP3   OH246838   3.599   2.796  11.915 -0.3264 -0.2444 -0.2206
 7548TIP3    H146839   3.523   2.755  11.956 -2.6781  0.8952 -3.0440
 7548TIP3    H246840   3.589   2.889  11.934  0.8333 -0.1474 -0.0087
 7549TIP3   OH246841   2.091   5.821  11.749  0.6587 -0.1211  0.4235
 7549TIP3    H146842   2.123   5.731  11.749  1.0806  0.0268  0.1168
 7549TIP3    H246843   2.080   5.843  11.657 -1.9421 -0.7215  0.5015
 7550TIP3   OH246844   0.632   0.859  11.094  0.1855 -0.2193  0.0628
 7550TIP3    H146845   0.578   0.789  11.130 -0.1734  0.5701  1.1368
 7550TIP3    H246846   0.663   0.826  11.010 -0.5322 -1.3813  0.2394
 7551TIP3   OH246847   3.137   0.142  11.354  0.2404 -0.4175  0.3253
 7551TIP3    H146848   3.158   0.125  11.446  1.5080 -1.8631 -0.1898
 7551TIP3    H246849   3.042   0.127  11.348 -0.0145  0.5651  1.5475
 7552TIP3   OH246850   3.793   1.817   9.676 -0.4087  0.6079  0.6733
 7552TIP3    H146851   3.826   1.865   9.600 -2.0145  0.1341 -0.3721
 7552TIP3    H246852   3.700   1.840   9.680 -0.8377 -1.0910  1.1408
 7553TIP3   OH246853   0.297   3.862  11.647 -0.4361  0.7245  0.1979
 7553TIP3    H146854   0.283   3.920  11.722 -0.8410 -0.4832  1.0800
 7553TIP3    H246855   0.383   3.823  11.663 -0.7526  0.0686  0.3106
 7554TIP3   OH246856   1.672   0.900   9.324 -0.0675  0.1442  0.0857
 7554TIP3    H146857   1.732   0.941   9.386  3.3506  0.9126 -3.2711
 7554TIP3    H246858   1.607   0.967   9.305 -0.4357  0.3216  1.8196
 7555TIP3   OH246859   1.571   3.154  11.881 -0.0017 -0.2012  0.4969
 7555TIP3    H146860   1.621   3.174  11.960 -0.7094  0.2472  0.8342
 7555TIP3    H246861   1.637   3.130  11.817  0.6756  0.6265  0.8642
 7556TIP3   OH246862   2.770   1.359  10.117 -0.0153  0.4163  0.1549
 7556TIP3    H146863   2.787   1.277  10.071 -0.3134 -0.3532  1.3594
 7556TIP3    H246864   2.813   1.426  10.064  2.3911 -0.8154  0.4424
 7557TIP3   OH246865   3.910   5.775  12.843  0.4720 -0.4198 -0.3022
 7557TIP3    H146866   3.867   5.849  12.800  2.4974  0.9111 -0.1532
 7557TIP3    H246867   4.003   5.785  12.823  0.9903 -2.0890  0.9769
 7558TIP3   OH246868   4.166   5.482  10.280 -0.4429  0.4647  0.2218
 7558TIP3    H146869   4.180   5.388  10.272 -0.9317  0.3706  0.4474
 7558TIP3    H246870   4.253   5.521  10.270 -0.2099 -0.0228  0.3636
 7559TIP3   OH246871   0.040   1.000  10.040  0.4241  0.0087 -0.0099
 7559TIP3    H146872   0.089   1.024   9.962  3.2482 -0.6385  1.4315
 7559TIP3    H246873   0.064   0.908  10.057 -2.3993 -0.8260  0.0765
 7560TIP3   OH246874   4.308   4.990  10.036  0.5728  0.6309 -0.2793
 7560TIP3    H146875   4.294   4.928   9.965  1.1101  1.8749 -1.5000
 7560TIP3    H246876   4.395   4.970  10.069 -0.1265 -0.7286  0.8750
 7561TIP3   OH246877   3.266   1.627  10.423  0.0013 -0.0477 -0.5209
 7561TIP3    H146878   3.334   1.563  10.400  1.0877  1.2638 -1.0507
 7561TIP3    H246879   3.274   1.636  10.518  0.9910  0.5305 -0.6453
 7562TIP3   OH246880   0.318   4.044  12.778 -0.1138 -0.1786 -0.0851
 7562TIP3    H146881   0.268   4.059  12.859 -0.0415 -1.2681  0.1784
 7562TIP3    H246882   0.348   3.953  12.785  0.7598  0.0363 -0.8702
 7563TIP3   OH246883   2.263   1.760  12.517 -0.1634 -0.3162  0.1163
 7563TIP3    H146884   2.170   1.740  12.506 -0.8441  2.5508 -0.2300
 7563TIP3    H246885   2.268   1.855  12.510  2.6909 -0.2826  1.1572
 7564TIP3   OH246886   1.339   6.121  12.831  0.0070  0.2259 -0.1856
 7564TIP3    H146887   1.331   6.114  12.736 -0.3567  2.9263 -0.4109
 7564TIP3    H246888   1.323   6.213  12.851 -1.5297 -0.5250  2.6814
 7565TIP3   OH246889   0.779   6.196   9.896  0.1603 -0.5057  0.1123
 7565TIP3    H146890   0.768   6.147   9.815  0.3906 -2.2310  1.0741
 7565TIP3    H246891   0.716   6.267   9.890 -2.0522 -2.4019 -0.2611
 7566TIP3   OH246892   2.082   1.230   9.971  0.3144 -0.2754  0.0876
 7566TIP3    H146893   2.114   1.258   9.885  1.4979 -0.6034  0.3950
 7566TIP3    H246894   2.162   1.206  10.018 -0.3246 -0.0857  1.2803
 7567TIP3   OH246895   0.508   1.145  10.000 -0.2238  0.8194  0.6184
 7567TIP3    H146896   0.551   1.170  10.082 -1.1981  0.5564  1.2159
 7567TIP3    H246897   0.425   1.193  10.000  0.1376  1.5149 -0.6442
 7568TIP3   OH246898   5.068   4.982  11.771  0.1881 -0.1395 -0.0604
 7568TIP3    H146899   5.034   4.921  11.836  1.4572  0.1386  0.9180
 7568TIP3    H246900   4.993   5.034  11.744 -0.7525 -1.5568 -0.2921
 7569TIP3   OH246901   0.532   1.122  11.700 -0.4104  0.1106  0.1788
 7569TIP3    H146902   0.471   1.133  11.627 -0.0593  2.4340  0.1405
 7569TIP3    H246903   0.537   1.028  11.714 -2.6754 -0.2332 -0.9287
 7570TIP3   OH246904   2.366   4.990  10.296  0.2247 -0.3559 -0.2020
 7570TIP3    H146905   2.456   4.989  10.263  0.7918 -1.8642  1.2513
 7570TIP3    H246906   2.354   4.904  10.336 -0.9518  0.7170  1.9734
 7571TIP3   OH246907   5.366   5.467  10.963 -0.2485  0.8950  0.0067
 7571TIP3    H146908   5.403   5.529  11.026  1.1217  2.2033 -1.9493
 7571TIP3    H246909   5.374   5.512  10.879  2.7950 -2.6986 -1.9105
 7572TIP3   OH246910   5.544   2.659  10.188 -0.0024  0.2379 -0.2809
 7572TIP3    H146911   5.556   2.686  10.097  1.0764  2.3741  0.4284
 7572TIP3    H246912   5.586   2.574  10.194 -0.7829 -0.2973 -1.9464
 7573TIP3   OH246913   0.696   5.229  12.440 -0.1460 -0.4159 -0.2488
 7573TIP3    H146914   0.707   5.245  12.346 -0.3219  0.5687 -0.1116
 7573TIP3    H246915   0.772   5.176  12.464  0.4209  0.1338 -0.7658
 7574TIP3   OH246916   3.479   2.768  11.274 -0.5209 -0.1470 -0.2433
 7574TIP3    H146917   3.531   2.845  11.252  1.9067 -1.3960  0.7624
 7574TIP3    H246918   3.474   2.719  11.191 -0.4853  0.2113 -0.4588
 7575TIP3   OH246919   1.511   0.153  10.136  0.7980  0.2891  0.3030
 7575TIP3    H146920   1.526   0.078  10.194  2.7530  0.0040 -0.4849
 7575TIP3    H246921   1.427   0.135  10.094 -0.6981  0.5147  2.9733
 7576TIP3   OH246922   3.445   6.711  11.383 -0.0706 -0.1608 -0.1493
 7576TIP3    H146923   3.413   6.755  11.462  0.0243 -0.3985  0.0212
 7576TIP3    H246924   3.519   6.764  11.354  0.9176 -0.9817  0.8384
 7577TIP3   OH246925   0.666   2.836   9.681  0.2703 -0.2560 -0.4794
 7577TIP3    H146926   0.628   2.749   9.698 -0.5475 -0.0212 -1.0511
 7577TIP3    H246927   0.749   2.818   9.637  1.2080 -0.7989  1.3956
 7578TIP3   OH246928   2.155   0.922  10.392 -0.4248  0.7560  0.0361
 7578TIP3    H146929   2.094   0.974  10.444 -1.5291  1.3166 -1.7265
 7578TIP3    H246930   2.121   0.928  10.303  1.2640 -0.3432 -0.7272
 7579TIP3   OH246931   5.869   0.743  12.451 -0.0654 -0.2072  0.0714
 7579TIP3    H146932   5.941   0.681  12.451  0.4346  0.2531  2.6233
 7579TIP3    H246933   5.790   0.689  12.445  0.4125 -0.8022 -1.2382
 7580TIP3   OH246934   0.566   5.329   9.354  0.3720 -0.0416 -0.4837
 7580TIP3    H146935   0.558   5.332   9.259  1.7201  2.1043 -0.5909
 7580TIP3    H246936   0.476   5.317   9.386 -0.1140 -0.5800 -2.0062
 7581TIP3   OH246937   2.015   4.024  11.708 -0.0730  0.3172 -0.0580
 7581TIP3    H146938   1.935   4.018  11.656 -1.1043 -0.1595  1.4954
 7581TIP3    H246939   2.002   4.103  11.762  0.8551  0.6693 -0.3329
 7582TIP3   OH246940   0.775   6.033  11.936 -0.1861 -0.1666 -0.2304
 7582TIP3    H146941   0.709   5.966  11.953  0.5476 -0.6101  0.9081
 7582TIP3    H246942   0.723   6.113  11.920 -1.0102 -0.6463 -0.0281
 7583TIP3   OH246943   1.021   6.337  12.761 -0.1245  0.2295  0.0600
 7583TIP3    H146944   1.054   6.276  12.695 -1.6095 -0.7216  0.1585
 7583TIP3    H246945   0.932   6.357  12.733 -0.2543  0.9953  0.9788
 7584TIP3   OH246946   1.231   2.527   9.616  0.2157  0.3109  0.4099
 7584TIP3    H146947   1.215   2.612   9.656 -0.1012  1.8149 -2.6083
 7584TIP3    H246948   1.145   2.485   9.613  0.3860 -0.2253  1.9686
 7585TIP3   OH246949   6.448   0.053   9.760 -0.0272 -0.5037  0.3089
 7585TIP3    H146950   6.392   0.016   9.692  1.9025  0.0711 -1.7316
 7585TIP3    H246951   6.524  -0.006   9.762  0.1362 -0.2681  1.6951
 7586TIP3   OH246952   4.671   3.212  10.649  1.2392  1.0134 -0.7598
 7586TIP3    H146953   4.592   3.176  10.690  1.7308  1.0596  0.2442
 7586TIP3    H246954   4.662   3.189  10.557  0.6622 -0.0957 -0.4470
 7587TIP3   OH246955   2.981   3.589  11.485  0.1166  0.7430  0.3800
 7587TIP3    H146956   2.974   3.681  11.510  0.4863  0.1101  3.1430
 7587TIP3    H246957   2.981   3.541  11.568 -0.8218 -1.8287 -0.9775
 7588TIP3   OH246958   4.621   2.453  10.694 -0.0079 -0.0663  0.0001
 7588TIP3    H146959   4.665   2.475  10.611  1.0326  0.8756  0.7790
 7588TIP3    H246960   4.630   2.358  10.700  0.3548 -0.0951 -0.7279
 7589TIP3   OH246961   5.346   1.104  11.165 -0.1092 -0.9996  0.3223
 7589TIP3    H146962   5.325   1.090  11.073  1.8753 -0.4497 -0.2814
 7589TIP3    H246963   5.303   1.186  11.188 -0.2350 -0.9032 -0.2568
 7590TIP3   OH246964   1.298   0.893  11.075  0.5890 -0.1583  0.2863
 7590TIP3    H146965   1.282   0.839  11.152  0.4313  1.4710  1.4395
 7590TIP3    H246966   1.319   0.980  11.110  1.8620  0.3044 -1.4630
 7591TIP3   OH246967   1.324   1.793  10.622  0.2583  0.2301  0.2125
 7591TIP3    H146968   1.356   1.703  10.621 -1.4631 -0.4188 -0.9932
 7591TIP3    H246969   1.292   1.807  10.712  0.0453 -0.5446  0.2583
 7592TIP3   OH246970   1.626   3.954  12.222  1.1974 -0.0599 -0.0856
 7592TIP3    H146971   1.536   3.932  12.198  1.0311  0.5736 -0.0510
 7592TIP3    H246972   1.635   4.047  12.201  1.4255  0.2151  1.1575
 7593TIP3   OH246973   3.199   3.961  12.179 -0.1818  0.2544 -0.8278
 7593TIP3    H146974   3.162   4.049  12.179 -0.4182  0.2010  1.2524
 7593TIP3    H246975   3.124   3.903  12.163 -0.5452  0.3104  0.5316
 7594TIP3   OH246976   3.681   6.002  12.244 -0.1557  0.5422 -0.1262
 7594TIP3    H146977   3.633   5.956  12.175  0.4165  0.3705 -0.4098
 7594TIP3    H246978   3.694   5.937  12.312  1.5145 -0.0190 -0.9373
 7595TIP3   OH246979   3.925   6.526  10.214  0.1896  0.2216  0.2456
 7595TIP3    H146980   3.857   6.587  10.184  0.8579  0.1278 -1.6146
 7595TIP3    H246981   3.911   6.519  10.308 -0.5452  2.4398  0.3687
 7596TIP3   OH246982   0.381   5.278   8.777 -0.1738  0.0091  0.2352
 7596TIP3    H146983   0.382   5.226   8.697 -0.2854 -1.5566  1.2300
 7596TIP3    H246984   0.394   5.368   8.746  1.3357 -0.7082 -1.4095
 7597TIP3   OH246985   0.756   5.835  10.055  0.4364 -0.7489  0.1295
 7597TIP3    H146986   0.801   5.770  10.108  1.1065  0.2909  0.8793
 7597TIP3    H246987   0.826   5.884  10.011  0.0101  0.1615  0.4331
 7598TIP3   OH246988   4.437   6.603  12.812  0.2082  0.1465  0.7043
 7598TIP3    H146989   4.439   6.519  12.858 -0.5210  0.4345  1.2639
 7598TIP3    H246990   4.358   6.646  12.843  1.0617  1.4525  1.1208
 7599TIP3   OH246991   3.702   1.046   9.525  0.1482 -0.1968  0.4230
 7599TIP3    H146992   3.779   1.003   9.488  0.9293  0.4707  1.2002
 7599TIP3    H246993   3.734   1.086   9.606 -0.1486  2.9879 -0.8550
 7600TIP3   OH246994   0.937   4.634  10.861  0.3756 -0.5022 -0.5362
 7600TIP3    H146995   0.868   4.677  10.911 -0.5385 -1.0046 -1.3362
 7600TIP3    H246996   0.913   4.542  10.862  2.6826 -1.2088  1.7744
 7601TIP3   OH246997   2.178   0.261  11.473  0.3080 -0.3063  0.1448
 7601TIP3    H146998   2.209   0.208  11.546 -3.5411  0.4028  2.5682
 7601TIP3    H246999   2.199   0.351  11.497  1.1073 -0.2034 -0.8444
 7602TIP3   OH247000   5.544   6.010  11.428  0.0336 -0.1180  0.1950
 7602TIP3    H147001   5.562   5.934  11.483  2.0669 -0.3801 -0.7407
 7602TIP3    H247002   5.620   6.066  11.440 -0.9203  1.2687 -0.0125
 7603TIP3   OH247003   2.885   2.773  12.585  0.0473 -0.2390 -0.2912
 7603TIP3    H147004   2.977   2.758  12.563  0.1438  0.6272 -0.5108
 7603TIP3    H247005   2.837   2.706  12.535  0.6505 -1.6716  0.9849
 7604TIP3   OH247006   3.342   3.292  12.088 -0.2665 -0.0393  0.6376
 7604TIP3    H147007   3.321   3.200  12.100  0.9958 -0.3143  0.8641
 7604TIP3    H247008   3.401   3.313  12.161  0.6526  0.5343 -0.2367
 7605TIP3   OH247009   3.685   4.215  10.322 -0.3186 -0.5205 -0.6832
 7605TIP3    H147010   3.599   4.227  10.362  0.9045 -1.6963  2.6349
 7605TIP3    H247011   3.668   4.162  10.245 -2.6356  0.0566 -0.6452
 7606TIP3   OH247012   0.908   0.361  11.324  0.3318 -0.3411 -0.4124
 7606TIP3    H147013   0.820   0.329  11.342 -1.1731  2.2829 -2.3589
 7606TIP3    H247014   0.942   0.303  11.256 -0.6076 -0.3612 -0.8740
 7607TIP3   OH247015   0.446   3.758   9.649  0.6034 -0.0776 -0.2787
 7607TIP3    H147016   0.411   3.713   9.726  1.7954  0.4186  0.5829
 7607TIP3    H247017   0.403   3.716   9.574 -0.4572 -0.6724  0.6462
 7608TIP3   OH247018   0.294   3.577   9.778  0.0235 -0.2419 -0.3420
 7608TIP3    H147019   0.338   3.494   9.795  0.8594  0.4066  0.8921
 7608TIP3    H247020   0.227   3.557   9.713  0.5761 -1.7534 -0.4832
 7609TIP3   OH247021   6.104   0.810  11.906 -0.0420  0.0879 -0.0595
 7609TIP3    H147022   6.167   0.842  11.972  0.6501  1.5820 -1.3672
 7609TIP3    H247023   6.024   0.795  11.956  1.2031 -1.5671  1.6093
 7610TIP3   OH247024   4.323   4.622  12.817 -0.4585  0.1831  0.0922
 7610TIP3    H147025   4.303   4.529  12.826 -1.3757  0.5526  2.2227
 7610TIP3    H247026   4.256   4.667  12.869  0.7514  1.9607  0.1967
 7611TIP3   OH247027   0.950   3.294  11.823 -0.2265 -0.7142 -0.1475
 7611TIP3    H147028   1.042   3.322  11.824  0.0298 -1.5081  1.2342
 7611TIP3    H247029   0.901   3.372  11.850  0.1959 -0.7306  0.6952
 7612TIP3   OH247030   6.202   5.975   9.581 -0.1611  0.5169  0.0100
 7612TIP3    H147031   6.241   6.062   9.593 -0.6059  0.6064  0.8538
 7612TIP3    H247032   6.276   5.915   9.592 -0.2089  0.6928  1.4816
 7613TIP3   OH247033   1.039   1.856  11.087 -0.2017  0.2007  0.1367
 7613TIP3    H147034   0.982   1.793  11.042 -0.6886 -0.5414  1.7312
 7613TIP3    H247035   1.085   1.804  11.153  0.0877  1.3597  0.8803
 7614TIP3   OH247036   1.653   4.311  11.737 -0.1279 -0.2960 -0.4106
 7614TIP3    H147037   1.619   4.251  11.672 -0.8106 -1.1013  0.6588
 7614TIP3    H247038   1.648   4.263  11.820  1.4244  0.4162  0.1430
 7615TIP3   OH247039   5.835   1.545   9.498 -0.0855  0.4231  0.2086
 7615TIP3    H147040   5.815   1.454   9.516 -0.3756  0.5221  0.3961
 7615TIP3    H247041   5.776   1.570   9.427 -0.1468  0.5171  0.2907
 7616TIP3   OH247042   2.285   2.425  11.952 -0.2866  0.2874  0.3316
 7616TIP3    H147043   2.252   2.417  12.042 -0.3228  0.1817  0.3085
 7616TIP3    H247044   2.314   2.337  11.929 -0.3443  0.3001  0.2129
 7617TIP3   OH247045   1.012   2.916  10.733 -0.6558  0.1855  0.1481
 7617TIP3    H147046   1.068   2.886  10.805 -0.1422  0.4680 -0.1195
 7617TIP3    H247047   1.074   2.950  10.668 -1.0014 -1.5045 -1.1221
 7618TIP3   OH247048   2.358   5.895  10.047 -0.3188  0.1610 -0.1154
 7618TIP3    H147049   2.369   5.928  10.136 -0.2004  0.3151 -0.1854
 7618TIP3    H247050   2.417   5.949   9.994 -0.0524 -0.2299 -0.2207
 7619TIP3   OH247051   0.969   2.345   9.968 -0.1831  0.0308 -0.3842
 7619TIP3    H147052   0.894   2.404   9.978  0.2272  0.4097  0.5859
 7619TIP3    H247053   1.044   2.399   9.992  0.1588 -1.0047  1.0274
 7620TIP3   OH247054   5.431   3.393   9.420 -0.0540 -0.3257 -0.0571
 7620TIP3    H147055   5.490   3.466   9.440 -0.6583  0.0601  0.3554
 7620TIP3    H247056   5.452   3.327   9.486 -0.0046 -0.2346  0.0191
 7621TIP3   OH247057   3.427   5.197  10.968  0.0530  0.7822  0.1269
 7621TIP3    H147058   3.413   5.103  10.979  0.7403  0.4260 -1.7246
 7621TIP3    H247059   3.505   5.203  10.913 -0.0153  2.4379  0.1735
 7622TIP3   OH247060   2.056   5.401  11.130  0.2131  0.3603  0.0002
 7622TIP3    H147061   2.081   5.492  11.115  1.3268  0.6088  2.7892
 7622TIP3    H247062   1.972   5.407  11.175 -0.0683 -0.0579 -0.4538
 7623TIP3   OH247063   5.274   4.390   9.344  0.5530 -0.0867 -0.1566
 7623TIP3    H147064   5.196   4.414   9.293  0.9659 -0.4568 -0.9740
 7623TIP3    H247065   5.307   4.474   9.376 -1.6957 -0.0770  2.5466
 7624TIP3   OH247066   4.552   0.808  10.176 -0.2869  0.2443 -0.1602
 7624TIP3    H147067   4.535   0.878  10.239  1.0586  1.2329 -0.8586
 7624TIP3    H247068   4.646   0.796  10.178 -0.0273  1.1166 -2.7528
 7625TIP3   OH247069   0.500   3.918  11.366 -0.3757  0.2560 -0.1552
 7625TIP3    H147070   0.526   3.903  11.457  0.3267  2.9718  0.1758
 7625TIP3    H247071   0.582   3.926  11.318 -0.7422 -1.2072 -1.1090
 7626TIP3   OH247072   5.970   1.995  10.787  0.1779 -0.3799 -0.6288
 7626TIP3    H147073   5.982   1.915  10.736 -0.3142 -1.0516  0.2754
 7626TIP3    H247074   6.006   1.974  10.874 -0.1192  0.3183 -0.3258
 7627TIP3   OH247075   5.448   6.104   9.317  0.6353 -0.6999  0.1075
 7627TIP3    H147076   5.464   6.011   9.298 -0.4123 -1.0387  0.8003
 7627TIP3    H247077   5.481   6.116   9.406  0.3728 -0.5263  0.1840
 7628TIP3   OH247078   5.484   4.666   9.254  0.1607  0.6774  0.1215
 7628TIP3    H147079   5.493   4.726   9.328  0.5086 -1.3216  1.7825
 7628TIP3    H247080   5.552   4.600   9.268 -0.3058 -0.2100 -1.5286
 7629TIP3   OH247081   5.496   3.138  12.960 -0.0986  0.3000 -0.4469
 7629TIP3    H147082   5.419   3.184  12.927 -0.8070 -0.4129  0.1787
 7629TIP3    H247083   5.559   3.208  12.980 -0.8325  0.9444 -0.3310
 7630TIP3   OH247084   3.494   4.994  10.164 -0.0295  0.4274 -0.1191
 7630TIP3    H147085   3.519   5.058  10.097  0.0386  2.2398  1.5477
 7630TIP3    H247086   3.574   4.979  10.214 -1.0463  3.0447  2.6275
 7631TIP3   OH247087   6.376   3.743  11.836  0.6935 -0.6258 -0.9234
 7631TIP3    H147088   6.346   3.769  11.748  0.9392 -1.2639 -1.1997
 7631TIP3    H247089   6.303   3.767  11.893  1.2604  1.5399 -1.0133
 7632TIP3   OH247090   1.795   0.351  11.851  0.3692 -0.3891 -0.0327
 7632TIP3    H147091   1.791   0.431  11.798 -1.3654 -1.0078 -0.9105
 7632TIP3    H247092   1.713   0.350  11.899  1.1614 -0.7541  1.3650
 7633TIP3   OH247093   6.676   4.364  12.802  0.4564 -0.4615 -0.2665
 7633TIP3    H147094   6.655   4.453  12.776  0.3400 -0.6916 -0.9924
 7633TIP3    H247095   6.770   4.356  12.788  0.7828  0.0713  1.4503
 7634TIP3   OH247096   6.440   6.236  11.429 -0.3943  0.4538 -0.6933
 7634TIP3    H147097   6.450   6.330  11.413  0.4970  0.4730 -0.1121
 7634TIP3    H247098   6.432   6.198  11.342  0.5373  0.9371 -1.0069
 7635TIP3   OH247099   5.394   0.149   9.999  0.6312  0.1122  0.4074
 7635TIP3    H147100   5.398   0.102  10.083 -0.5901 -0.4283  0.1858
 7635TIP3    H247101   5.464   0.214  10.005  2.9219 -2.1951  0.4219
 7636TIP3   OH247102   2.122   2.117   9.627 -0.0110 -0.1272 -0.0777
 7636TIP3    H147103   2.044   2.096   9.576 -1.0489  0.5012  1.1924
 7636TIP3    H247104   2.157   2.032   9.654 -0.0328 -0.4260 -0.9402
 7637TIP3   OH247105   5.847   1.195  10.197 -0.0189  0.2367 -0.0104
 7637TIP3    H147106   5.851   1.141  10.276 -0.4394 -0.1768 -0.2670
 7637TIP3    H247107   5.934   1.235  10.191  0.1861 -0.1438  0.3737
 7638TIP3   OH247108   1.854   5.920   9.366 -0.3090 -0.2289  0.4738
 7638TIP3    H147109   1.882   6.011   9.371 -1.1127  0.1414 -1.0830
 7638TIP3    H247110   1.778   5.921   9.307  0.0048 -1.9788 -0.0237
 7639TIP3   OH247111   2.801   0.880  12.767 -0.4011 -0.5796  0.8721
 7639TIP3    H147112   2.730   0.820  12.745  0.7896 -1.3478 -1.2310
 7639TIP3    H247113   2.873   0.823  12.792  0.1226  0.0661  0.8544
 7640TIP3   OH247114   5.071   6.531  10.214 -0.2916  0.5947  0.2331
 7640TIP3    H147115   4.983   6.528  10.251  0.0928  1.0813  1.2334
 7640TIP3    H247116   5.078   6.619  10.176 -0.3498  0.4424 -0.1292
 7641TIP3   OH247117   5.354   3.040   9.508  0.3820 -0.0829 -0.2924
 7641TIP3    H147118   5.398   3.084   9.435  0.0962  2.5995  0.9954
 7641TIP3    H247119   5.265   3.027   9.478  0.3374  0.7618 -0.5732
 7642TIP3   OH247120   3.122   6.561  10.983  0.1774  0.0543  0.3986
 7642TIP3    H147121   3.199   6.513  10.952 -0.8341 -1.6510  0.3922
 7642TIP3    H247122   3.152   6.606  11.061  1.2222 -0.4556  0.3173
 7643TIP3   OH247123   4.261   6.479  12.501 -0.4173  0.2420  0.4074
 7643TIP3    H147124   4.322   6.521  12.562  1.2692  0.5343 -1.3852
 7643TIP3    H247125   4.233   6.549  12.443  0.7528 -0.5969 -1.2796
 7644TIP3   OH247126   1.741   2.082  10.352 -0.0520  0.1515 -0.6638
 7644TIP3    H147127   1.690   2.004  10.373 -0.0828  0.7358  1.6570
 7644TIP3    H247128   1.707   2.149  10.411  3.2753  0.6294  0.9239
 7645TIP3   OH247129   4.986   1.136  11.176  0.0433 -0.1896 -0.1203
 7645TIP3    H147130   5.052   1.200  11.205  0.1810  0.0245 -0.8880
 7645TIP3    H247131   4.904   1.169  11.211  0.1689  0.2099 -0.1901
 7646TIP3   OH247132   2.543   1.065  10.238 -0.1087 -0.4061 -0.5936
 7646TIP3    H147133   2.507   1.067  10.326 -1.1249 -0.0202 -0.9970
 7646TIP3    H247134   2.596   0.986  10.235 -2.8001 -2.3499 -0.6502
 7647TIP3   OH247135   5.091   6.357   9.276 -0.3070  0.2755 -0.1224
 7647TIP3    H147136   5.057   6.389   9.359 -0.0934  1.2300 -0.3867
 7647TIP3    H247137   5.023   6.379   9.212 -0.2721 -0.0362 -0.2677
 7648TIP3   OH247138   2.140   1.640   9.491  0.9417  0.7956 -0.1963
 7648TIP3    H147139   2.060   1.645   9.439  0.9242  0.4246 -0.2070
 7648TIP3    H247140   2.209   1.668   9.431  0.9594  0.1074 -0.5068
 7649TIP3   OH247141   5.289   0.425  11.062 -0.4073  0.0651  0.2365
 7649TIP3    H147142   5.270   0.340  11.101 -1.5232  0.8555  1.5315
 7649TIP3    H247143   5.380   0.443  11.086 -0.6320 -0.1179  1.2710
 7650TIP3   OH247144   6.559   5.889  11.020  0.1525  0.4897 -0.0698
 7650TIP3    H147145   6.641   5.911  10.976  0.8238 -0.2809  0.7727
 7650TIP3    H247146   6.495   5.883  10.949  0.2944  3.2452 -0.5630
 7651TIP3   OH247147   0.802   1.530  10.564 -0.2144  0.0603 -0.2845
 7651TIP3    H147148   0.871   1.548  10.627  0.9387 -1.3553 -1.0711
 7651TIP3    H247149   0.794   1.611  10.513 -1.1256  1.2030  1.5667
 7652TIP3   OH247150   1.945   6.654   9.049 -0.2328 -0.5239 -0.0493
 7652TIP3    H147151   1.987   6.588   8.993  0.5040  0.1426 -0.2964
 7652TIP3    H247152   1.988   6.643   9.134 -0.0788 -0.3289 -0.1029
 7653TIP3   OH247153   6.063   0.409  11.656  0.5421 -0.0706 -0.1968
 7653TIP3    H147154   5.983   0.459  11.642  0.2972  0.1910  1.8349
 7653TIP3    H247155   6.105   0.451  11.731  1.4265 -1.5778  0.2105
 7654TIP3   OH247156   4.612   5.761  10.675 -0.1656 -0.0115 -0.3894
 7654TIP3    H147157   4.676   5.832  10.674 -0.0468 -0.0901  0.6630
 7654TIP3    H247158   4.536   5.797  10.720 -1.0125  0.1846 -1.9135
 7655TIP3   OH247159   2.992   5.439  11.794  0.1280  0.9309  0.3074
 7655TIP3    H147160   2.924   5.455  11.729  1.7754  2.0044 -1.2472
 7655TIP3    H247161   2.954   5.471  11.876 -1.8274 -0.0339 -0.1453
 7656TIP3   OH247162   2.877   4.115  12.250 -0.4199 -0.0597  0.2578
 7656TIP3    H147163   2.960   4.158  12.229  0.1341 -1.2354 -0.0624
 7656TIP3    H247164   2.900   4.049  12.315 -0.9280 -0.9810 -0.4594
 7657TIP3   OH247165   1.553   4.954   9.682  0.7751  0.5118  0.2725
 7657TIP3    H147166   1.583   4.985   9.768  0.7866 -0.3016  0.5709
 7657TIP3    H247167   1.515   4.868   9.700 -1.2536  1.2602 -0.1879
 7658TIP3   OH247168   1.962   5.141  12.188 -0.1072 -0.3490  0.2976
 7658TIP3    H147169   1.937   5.135  12.280 -0.1432  0.0616  0.3170
 7658TIP3    H247170   2.044   5.191  12.189 -1.0928  1.3712 -0.0267
 7659TIP3   OH247171   2.629   1.770  10.855  0.4938 -0.1548 -0.4722
 7659TIP3    H147172   2.603   1.859  10.881  1.4428  0.1769 -0.6181
 7659TIP3    H247173   2.547   1.727  10.832  0.0897  0.9253 -1.1388
 7660TIP3   OH247174   2.887   1.854  11.969 -0.2688  0.0715  0.3910
 7660TIP3    H147175   2.932   1.837  12.052 -0.4966 -0.1733  0.4669
 7660TIP3    H247176   2.929   1.794  11.906  0.2121  0.5750  0.2185
 7661TIP3   OH247177   3.788   3.067  10.814 -0.0853 -0.3332 -0.1762
 7661TIP3    H147178   3.810   3.065  10.721  0.8124  1.7239 -0.0630
 7661TIP3    H247179   3.692   3.062  10.816 -0.1942  0.8807 -1.3001
 7662TIP3   OH247180   1.990   3.188  13.182 -0.3860 -0.3743  0.3413
 7662TIP3    H147181   2.044   3.133  13.125  0.7089 -1.7176  2.5338
 7662TIP3    H247182   1.905   3.190  13.139  1.2774  1.9779 -3.3550
 7663TIP3   OH247183   1.980   6.336  10.190 -0.0753 -0.3998  0.5605
 7663TIP3    H147184   2.065   6.309  10.225  1.5442  0.2892 -2.4617
 7663TIP3    H247185   2.002   6.401  10.123 -3.1236  0.8187  0.5992
 7664TIP3   OH247186   3.688   4.772   9.929  0.4798  0.1165  0.4307
 7664TIP3    H147187   3.746   4.833   9.975 -0.2327  0.5160  0.8119
 7664TIP3    H247188   3.607   4.773   9.980 -0.1989  0.3003 -0.6235
 7665TIP3   OH247189   5.798   3.824   9.903  0.4576 -0.2808  0.1847
 7665TIP3    H147190   5.782   3.737   9.867 -0.0532 -0.0950 -0.0452
 7665TIP3    H247191   5.794   3.812   9.998  1.5502 -0.7242  0.1844
 7666TIP3   OH247192   2.318   0.432  11.174  0.4132  0.0946  0.1497
 7666TIP3    H147193   2.309   0.464  11.263 -1.7057  0.0989 -0.0236
 7666TIP3    H247194   2.331   0.511  11.121 -1.2027  0.3957  0.1505
 7667TIP3   OH247195   4.645   4.575  10.434  0.4862  0.0887 -0.2278
 7667TIP3    H147196   4.604   4.636  10.373  0.4032  1.5353  1.2177
 7667TIP3    H247197   4.612   4.489  10.407 -2.6350  1.0390  0.1326
 7668TIP3   OH247198   1.057   1.655   9.703  0.2688 -0.0370 -0.6315
 7668TIP3    H147199   1.005   1.577   9.724  0.1822 -0.0443 -0.8672
 7668TIP3    H247200   1.036   1.717   9.772 -0.3515  0.0977 -0.9307
 7669TIP3   OH247201   6.296   2.845  11.208 -0.3888  0.2018 -0.1388
 7669TIP3    H147202   6.212   2.889  11.220  0.2090  1.1125  0.8823
 7669TIP3    H247203   6.311   2.800  11.291  1.6077  2.6833  0.9788
 7670TIP3   OH247204   1.381   2.101  10.790 -0.2720  0.0046 -0.1603
 7670TIP3    H147205   1.463   2.057  10.767  0.6126  1.5458 -0.0981
 7670TIP3    H247206   1.333   2.036  10.841  1.5417 -0.4543  1.0773
 7671TIP3   OH247207   2.529   0.014   9.396 -0.4950 -0.1032 -0.3302
 7671TIP3    H147208   2.597  -0.010   9.460 -1.2001 -0.5086  0.2942
 7671TIP3    H247209   2.568   0.083   9.343 -0.1119  0.7319  0.9887
 7672TIP3   OH247210   6.605   2.412  10.627  0.1153 -0.1809  0.0084
 7672TIP3    H147211   6.649   2.495  10.650 -0.3875 -0.5663  2.7070
 7672TIP3    H247212   6.512   2.435  10.625 -0.0046 -0.6278  0.5054
 7673TIP3   OH247213   5.689   6.524  11.586 -0.2906  0.0544 -0.6306
 7673TIP3    H147214   5.703   6.566  11.671 -1.4395 -0.5134 -0.1213
 7673TIP3    H247215   5.776   6.496  11.558  0.2102  0.9425 -0.0130
 7674TIP3   OH247216   4.789   1.364  11.280  0.5557 -0.0907  0.0566
 7674TIP3    H147217   4.711   1.349  11.228  0.4362  0.8962 -0.0680
 7674TIP3    H247218   4.769   1.326  11.365 -0.4499  1.0027  0.3346
 7675TIP3   OH247219   0.352   3.204   9.498  0.3618 -0.2460 -0.2378
 7675TIP3    H147220   0.312   3.158   9.572 -1.7884  1.3104 -0.3377
 7675TIP3    H247221   0.422   3.146   9.470 -0.8208 -2.4325  0.9795
 7676TIP3   OH247222   2.097   1.856  12.285 -0.1654 -0.1368  0.1952
 7676TIP3    H147223   2.162   1.912  12.327  0.4244 -1.5196  1.2102
 7676TIP3    H247224   2.059   1.804  12.357 -0.2699 -1.4356 -0.7484
 7677TIP3   OH247225   0.509   2.119   9.362  0.3254  0.1283  0.2939
 7677TIP3    H147226   0.483   2.211   9.354  0.1490  0.0012 -0.8252
 7677TIP3    H247227   0.596   2.116   9.321  0.0625 -0.3067 -0.2426
 7678TIP3   OH247228   5.492   2.514   9.592  0.1966 -0.4608  0.1432
 7678TIP3    H147229   5.413   2.509   9.539  0.5280  0.9300 -0.5107
 7678TIP3    H247230   5.465   2.562   9.670 -0.0217 -1.5698  0.7829
 7679TIP3   OH247231   6.153   3.754  11.267  0.4558 -0.0043 -0.5657
 7679TIP3    H147232   6.212   3.769  11.193  1.8760  0.5537  0.6257
 7679TIP3    H247233   6.131   3.841  11.298 -0.8518 -0.2112 -0.8288
 7680TIP3   OH247234   6.208   1.783  10.592 -0.3937 -0.6222 -0.2242
 7680TIP3    H147235   6.193   1.869  10.553  1.2773  0.7414  1.9216
 7680TIP3    H247236   6.293   1.755  10.558 -0.1395 -0.6164  0.3935
 7681TIP3   OH247237   3.206   4.298  11.727  0.0184  0.4258 -0.4704
 7681TIP3    H147238   3.256   4.246  11.664  2.2990 -1.6074  2.6867
 7681TIP3    H247239   3.231   4.388  11.708  0.8127 -0.1244 -2.2908
 7682TIP3   OH247240   0.098   0.180  10.509  0.4693  0.4903 -0.8178
 7682TIP3    H147241   0.141   0.094  10.509  0.0249  0.2162 -2.6024
 7682TIP3    H247242   0.022   0.169  10.452 -1.1080  1.4115  0.9845
 7683TIP3   OH247243   6.099   0.702  10.269  0.4743  0.2246  0.6772
 7683TIP3    H147244   6.014   0.746  10.264  0.5904  0.6288  1.8328
 7683TIP3    H247245   6.079   0.609  10.261 -0.0253  0.3453  0.4960
 7684TIP3   OH247246   2.165   3.474  11.074  0.0473  0.4172 -0.0832
 7684TIP3    H147247   2.159   3.484  10.979 -0.2864  0.3779 -0.0686
 7684TIP3    H247248   2.097   3.531  11.108  0.2328  0.5064  0.1377
 7685TIP3   OH247249   1.114   2.957  10.018  0.1680 -0.4591 -0.4200
 7685TIP3    H147250   1.205   2.928  10.023  0.1399 -0.7739 -1.4935
 7685TIP3    H247251   1.114   3.044  10.058  0.9893 -0.3543 -0.6323
 7686TIP3   OH247252   1.552   1.554  11.508 -0.2750 -0.1299  0.3229
 7686TIP3    H147253   1.468   1.583  11.544 -1.8717 -0.8628 -2.5231
 7686TIP3    H247254   1.616   1.614  11.547 -2.5037  2.5944  0.1632
 7687TIP3   OH247255   1.983   2.388  11.372 -0.4816  0.6483  0.1235
 7687TIP3    H147256   1.978   2.454  11.303  3.2095 -0.0038 -0.9674
 7687TIP3    H247257   1.990   2.439  11.453  0.7916  1.6395 -0.5574
 7688TIP3   OH247258   2.455   2.458  10.055  0.2307 -0.2091 -0.0950
 7688TIP3    H147259   2.444   2.553  10.067 -0.1952 -0.2338 -0.3079
 7688TIP3    H247260   2.368   2.426  10.033 -0.0223 -0.9214  1.7713
 7689TIP3   OH247261   5.836   5.545  11.497 -0.6747  0.0421  0.5898
 7689TIP3    H147262   5.810   5.528  11.407  0.7760  0.1870  0.1244
 7689TIP3    H247263   5.797   5.630  11.518 -0.5522  0.2642 -0.0819
 7690TIP3   OH247264   5.313   4.262  11.217  0.0890  0.0827  0.3253
 7690TIP3    H147265   5.256   4.193  11.183  0.4902 -0.4350  0.6877
 7690TIP3    H247266   5.384   4.215  11.261  2.0957  0.6300 -2.0951
 7691TIP3   OH247267   2.570   2.191   9.670 -0.7144  1.0095 -0.3201
 7691TIP3    H147268   2.579   2.256   9.740  0.1583 -0.3000  0.8183
 7691TIP3    H247269   2.643   2.210   9.610  0.2947  0.3483  0.6551
 7692TIP3   OH247270   0.919   4.099  10.131 -0.0370 -0.2515 -0.0929
 7692TIP3    H147271   0.839   4.090  10.079 -0.3628 -0.9975  0.5122
 7692TIP3    H247272   0.908   4.036  10.203  0.9711 -0.1632  0.1547
 7693TIP3   OH247273   5.175   0.794  17.522  0.4220  0.0617  0.0713
 7693TIP3    H147274   5.254   0.744  17.540  0.7362  1.0090  1.5165
 7693TIP3    H247275   5.188   0.826  17.432  1.8970  0.5516  0.4194
 7694TIP3   OH247276   5.219   0.432   9.527  1.1167 -1.0174  0.7563
 7694TIP3    H147277   5.180   0.423   9.613  0.4960 -1.8312  0.3933
 7694TIP3    H247278   5.145   0.449   9.468  1.6373  0.6807  0.5367
 7695TIP3   OH247279   4.005   0.222  10.324 -0.6347 -0.1921  0.7852
 7695TIP3    H147280   4.078   0.261  10.372 -0.5744 -1.2538  1.5984
 7695TIP3    H247281   4.042   0.200  10.238 -0.2598  0.1564  0.8568
 7696TIP3   OH247282   6.330   3.204  11.208 -0.0386 -0.1275  0.2006
 7696TIP3    H147283   6.286   3.282  11.242 -1.0180  0.3617 -2.0248
 7696TIP3    H247284   6.319   3.139  11.277 -0.7995  1.1604  1.3500
 7697TIP3   OH247285   3.472   0.008  10.756  0.1340 -0.3661 -0.7703
 7697TIP3    H147286   3.531  -0.022  10.826 -0.1636  2.2561  0.7218
 7697TIP3    H247287   3.387  -0.029  10.779  0.0113  0.5783  0.3573
 7698TIP3   OH247288   4.791   2.318   9.141  0.4595  0.0841  0.4739
 7698TIP3    H147289   4.789   2.285   9.231  0.3980 -0.4005  0.3003
 7698TIP3    H247290   4.811   2.411   9.150 -0.3642  0.2211  1.0285
 7699TIP3   OH247291   1.012   3.578  12.358 -0.6186 -0.0632 -0.0012
 7699TIP3    H147292   1.032   3.495  12.401 -0.7404 -0.2416 -0.2857
 7699TIP3    H247293   0.930   3.607  12.399  1.1844  1.6848  2.6295
 7700TIP3   OH247294   2.932   3.494  11.212 -0.3988 -0.8858 -0.0229
 7700TIP3    H147295   3.000   3.512  11.147  1.5133 -4.3110  0.7934
 7700TIP3    H247296   2.924   3.575  11.262  1.3154  0.3845 -1.6650
 7701TIP3   OH247297   4.481   4.846  12.837 -0.8506 -0.3861 -0.0884
 7701TIP3    H147298   4.433   4.763  12.838  1.3735 -1.8575 -2.5209
 7701TIP3    H247299   4.552   4.834  12.900  0.7608 -1.3064 -1.9625
 7702TIP3   OH247300   1.266   1.867  10.899  0.2707  0.4709 -0.0998
 7702TIP3    H147301   1.340   1.816  10.930 -0.5853 -0.8709 -0.1919
 7702TIP3    H247302   1.200   1.857  10.967 -0.8768 -0.8014 -1.3277
 7703TIP3   OH247303   4.321   2.036  10.008 -0.4611  0.3134  0.3440
 7703TIP3    H147304   4.291   1.946  10.017  1.2525 -0.6459 -2.3622
 7703TIP3    H247305   4.241   2.087   9.997 -1.3953 -1.0867  0.3505
 7704TIP3   OH247306   3.767   6.381  12.635 -0.2073  0.2634 -0.2388
 7704TIP3    H147307   3.716   6.300  12.626  2.7942 -1.6527 -1.7564
 7704TIP3    H247308   3.787   6.386  12.728  3.6787 -3.7711 -0.5354
 7705TIP3   OH247309   1.273   3.213   9.588 -0.3213  0.2798  0.7862
 7705TIP3    H147310   1.212   3.215   9.515 -0.2908  1.2283  0.7722
 7705TIP3    H247311   1.306   3.123   9.590 -0.7394  0.1029 -0.0136
 7706TIP3   OH247312   4.380   3.846  10.897 -0.1684  0.0764  0.0038
 7706TIP3    H147313   4.431   3.792  10.838  0.0481  0.7638 -0.4509
 7706TIP3    H247314   4.416   3.934  10.887 -0.6231  0.3406  0.5991
 7707TIP3   OH247315   2.540   4.471  12.634  0.6643 -0.3584 -0.3803
 7707TIP3    H147316   2.537   4.379  12.659 -0.7853 -0.3499 -0.4833
 7707TIP3    H247317   2.475   4.513  12.690  0.4408  0.3947 -1.1968
 7708TIP3   OH247318   5.975   2.606  11.051  0.0510 -0.1933 -0.3336
 7708TIP3    H147319   5.940   2.518  11.060 -1.6871  0.3161 -1.6726
 7708TIP3    H247320   5.971   2.643  11.139 -3.3302 -0.0057 -0.4555
 7709TIP3   OH247321   4.229   3.741  12.363 -0.0865 -0.2685  0.4160
 7709TIP3    H147322   4.271   3.807  12.418  1.8862 -2.0751  1.2459
 7709TIP3    H247323   4.261   3.758  12.274  1.4063 -0.8021  0.8295
 7710TIP3   OH247324   2.105   1.839  10.655 -0.1859  0.1169 -0.1911
 7710TIP3    H147325   2.132   1.905  10.592  0.2767 -0.7484 -0.9273
 7710TIP3    H247326   2.069   1.768  10.601  1.4723 -1.2292  0.4026
 7711TIP3   OH247327   3.550   4.964  13.207 -0.5160  0.1323  0.4133
 7711TIP3    H147328   3.595   4.922  13.280  0.4546 -1.1296 -0.8444
 7711TIP3    H247329   3.558   4.902  13.135 -0.9775  1.5546 -0.9272
 7712TIP3   OH247330   0.369   3.625  12.375  0.2938 -0.2684 -0.0317
 7712TIP3    H147331   0.287   3.579  12.391  0.0634 -0.6090 -1.8972
 7712TIP3    H247332   0.356   3.713  12.410 -1.6995  0.3723 -2.1700
 7713TIP3   OH247333   1.812   2.133  10.098  0.0585  0.7639  0.0962
 7713TIP3    H147334   1.791   2.121  10.191 -1.9330  0.8729 -0.3136
 7713TIP3    H247335   1.845   2.223  10.092 -1.3185  1.3147  0.4734
 7714TIP3   OH247336   5.372   2.368  11.978  0.0931 -0.2735  0.1309
 7714TIP3    H147337   5.456   2.402  11.945  1.0573 -2.3083  0.3614
 7714TIP3    H247338   5.334   2.322  11.904 -1.4225  1.5286 -0.3093
 7715TIP3   OH247339   3.658   2.471  12.026 -0.1316  0.5150 -0.2681
 7715TIP3    H147340   3.701   2.393  11.990  0.0523  0.1384  0.7188
 7715TIP3    H247341   3.699   2.482  12.112 -0.8561  1.1329  0.0029
 7716TIP3   OH247342   2.393   5.974  10.599  0.1660  0.2915  0.0173
 7716TIP3    H147343   2.317   6.021  10.635 -0.5483  0.3538 -1.4876
 7716TIP3    H247344   2.434   6.036  10.540 -0.1879 -0.6040 -1.2124
 7717TIP3   OH247345   5.316   1.540  11.080  0.7347 -0.9541  0.1712
 7717TIP3    H147346   5.336   1.519  10.988  1.2720  1.3212 -0.3012
 7717TIP3    H247347   5.224   1.566  11.079  0.2117 -2.6538  0.6618
 7718TIP3   OH247348   2.338   2.800  11.769  0.2859  0.6073  0.1704
 7718TIP3    H147349   2.339   2.790  11.865  1.6312  0.7767  0.1971
 7718TIP3    H247350   2.422   2.841  11.749 -0.4563  1.6378 -0.9857
 7719TIP3   OH247351   4.276   5.187  12.590 -0.3292  0.2374 -0.1022
 7719TIP3    H147352   4.302   5.142  12.670 -0.3660  0.4787  0.0454
 7719TIP3    H247353   4.314   5.135  12.519 -0.3888 -0.0375  0.0683
 7720TIP3   OH247354   6.362   5.241  10.659 -0.6683 -0.4505  0.1628
 7720TIP3    H147355   6.371   5.335  10.672 -2.0790 -0.2131 -0.3387
 7720TIP3    H247356   6.428   5.219  10.593 -1.3796  0.4899 -0.8908
 7721TIP3   OH247357   4.746   4.525  11.249 -0.9768 -0.3373 -0.5455
 7721TIP3    H147358   4.778   4.615  11.248 -0.2653 -0.5731 -2.2076
 7721TIP3    H247359   4.757   4.494  11.159  0.0935 -2.5448  0.2523
 7722TIP3   OH247360   3.611   4.766  12.996  0.5814 -0.3136  0.3110
 7722TIP3    H147361   3.549   4.760  12.924  1.0496 -1.2852 -0.0218
 7722TIP3    H247362   3.696   4.745  12.957  0.7713 -1.3159  1.2169
 7723TIP3   OH247363   4.447   3.925  10.533 -0.3563  0.1546  0.2975
 7723TIP3    H147364   4.439   3.864  10.460 -0.7256  0.6938 -0.1169
 7723TIP3    H247365   4.487   3.873  10.603  1.0853 -0.0661 -0.6467
 7724TIP3   OH247366   5.358   1.540  10.799 -0.3259 -0.5400  0.1841
 7724TIP3    H147367   5.293   1.565  10.733 -0.5809 -0.4322  0.4674
 7724TIP3    H247368   5.439   1.583  10.772 -1.0694  1.8519  1.4016
 7725TIP3   OH247369   6.058   4.601  12.074  0.0871  0.1065  0.3689
 7725TIP3    H147370   5.972   4.602  12.114  0.6811 -0.4166  1.7235
 7725TIP3    H247371   6.099   4.521  12.106 -0.1956 -1.6451 -3.1567
 7726TIP3   OH247372   2.445   3.920  10.915  0.1876 -0.1585 -0.1489
 7726TIP3    H147373   2.471   3.960  10.998 -0.5985  1.3770 -0.5977
 7726TIP3    H247374   2.396   3.842  10.940  0.2867  0.0787  0.8211
 7727TIP3   OH247375   0.798   4.733   9.274 -0.1453 -0.0516 -0.4343
 7727TIP3    H147376   0.718   4.782   9.257 -0.7290 -0.9280 -0.2828
 7727TIP3    H247377   0.780   4.686   9.356  1.2007  1.1546  0.6222
 7728TIP3   OH247378   0.455   3.394  10.891 -0.0668 -0.0193  0.7638
 7728TIP3    H147379   0.497   3.334  10.829  0.0903  0.4056  0.4537
 7728TIP3    H247380   0.361   3.381  10.878 -0.0325 -0.0285  0.5285
 7729TIP3   OH247381   1.855   1.629  11.160  0.1836 -0.2706 -0.1053
 7729TIP3    H147382   1.914   1.554  11.169  3.0001  1.7574 -0.5243
 7729TIP3    H247383   1.836   1.656  11.250  1.3794  0.0991  0.0530
 7730TIP3   OH247384   1.004   4.897   9.470  0.0218 -0.2383  0.3236
 7730TIP3    H147385   1.082   4.854   9.504  1.0945  1.3899  0.0435
 7730TIP3    H247386   1.035   4.948   9.396 -1.0114  1.5901  1.0793
 7731TIP3   OH247387   0.632   1.706  11.292 -0.0605  0.3406 -0.2213
 7731TIP3    H147388   0.707   1.677  11.241 -0.6896  1.2146 -1.7016
 7731TIP3    H247389   0.666   1.780  11.343 -0.0558  1.1623 -1.3872
 7732TIP3   OH247390   5.135   3.627   9.190 -0.7371  0.3133  0.3894
 7732TIP3    H147391   5.084   3.707   9.201 -1.0108 -0.0685  2.1776
 7732TIP3    H247392   5.225   3.657   9.176 -0.9993  0.9315 -0.0387
 7733TIP3   OH247393   5.882   3.491  11.428 -0.1540 -0.1084  0.1709
 7733TIP3    H147394   5.821   3.469  11.497  1.4149 -0.6889  1.4195
 7733TIP3    H247395   5.942   3.555  11.467  0.2498  0.2192 -0.9170
 7734TIP3   OH247396   6.491   3.709  10.823 -0.2424  0.3213 -0.4047
 7734TIP3    H147397   6.521   3.725  10.734  0.8811 -1.2325 -0.3477
 7734TIP3    H247398   6.534   3.775  10.876 -0.4254  0.8596 -0.9208
 7735TIP3   OH247399   5.727   1.007  11.221 -0.4419  0.0791  0.0602
 7735TIP3    H147400   5.709   1.090  11.265 -1.2100 -0.5446  0.9651
 7735TIP3    H247401   5.798   1.027  11.161 -1.2268  1.6171 -0.4238
 7736TIP3   OH247402   4.354   5.168  12.282 -0.1274  0.1480 -0.2214
 7736TIP3    H147403   4.408   5.227  12.228 -0.1519 -1.0182 -1.5648
 7736TIP3    H247404   4.287   5.135  12.222  0.6740 -2.2768  0.1074
 7737TIP3   OH247405   2.712   0.096  10.188  0.0603  0.3500 -0.2919
 7737TIP3    H147406   2.648   0.025  10.193  0.7548 -0.1918  2.3599
 7737TIP3    H247407   2.660   0.176  10.192 -0.6245  0.0225 -1.7913
 7738TIP3   OH247408   3.173   0.958  10.435 -0.6601 -0.2792 -0.2718
 7738TIP3    H147409   3.250   0.918  10.475  0.0037  0.7173 -0.5171
 7738TIP3    H247410   3.192   1.051  10.434 -2.9123  0.3125  1.9283
 7739TIP3   OH247411   3.653   6.523   9.820 -0.1468 -0.4060 -0.5849
 7739TIP3    H147412   3.632   6.548   9.729  0.6404  2.6964 -0.0372
 7739TIP3    H247413   3.739   6.482   9.814  0.7122  1.3550 -1.1390
 7740TIP3   OH247414   2.336   2.821  10.710 -0.4129  0.0346 -0.1202
 7740TIP3    H147415   2.352   2.914  10.695 -0.7435  0.3018  1.0663
 7740TIP3    H247416   2.335   2.782  10.623  0.5772  1.0007 -0.5812
 7741TIP3   OH247417   6.374   2.510   9.439  0.5516 -0.3228  0.1813
 7741TIP3    H147418   6.313   2.437   9.438 -0.3687  0.4229 -0.3758
 7741TIP3    H247419   6.372   2.543   9.529  1.1144 -1.0787  0.4817
 7742TIP3   OH247420   2.769   5.975   9.363  0.0136  0.1832  0.4602
 7742TIP3    H147421   2.840   5.918   9.334 -0.9525 -0.0772 -1.6209
 7742TIP3    H247422   2.808   6.063   9.362  0.7632 -0.1303  1.0359
 7743TIP3   OH247423   2.101   1.672   9.943 -0.0642 -0.0962 -0.0840
 7743TIP3    H147424   2.040   1.746   9.941 -0.1354 -0.1656 -0.5710
 7743TIP3    H247425   2.056   1.606   9.996  1.0929  1.1363  2.6347
 7744TIP3   OH247426   6.060   1.088   9.269  0.1107  0.0085  0.7935
 7744TIP3    H147427   6.026   1.096   9.358 -0.5834 -1.5172  0.7008
 7744TIP3    H247428   6.045   0.996   9.246  2.9115 -0.3931  0.1551
 7745TIP3   OH247429   1.342   1.898  11.743 -0.1209 -0.3058  0.2592
 7745TIP3    H147430   1.281   1.865  11.678 -0.1099  0.1216  0.0292
 7745TIP3    H247431   1.367   1.985  11.711  0.2601 -0.2947  0.5801
 7746TIP3   OH247432   4.793   4.452   9.602  0.5362 -0.3214 -0.5537
 7746TIP3    H147433   4.838   4.379   9.559 -1.4440 -0.9766 -1.6218
 7746TIP3    H247434   4.799   4.525   9.540  0.2825 -0.3605 -0.6258
 7747TIP3   OH247435   3.483   4.158  12.101 -0.7502 -0.7461 -0.0347
 7747TIP3    H147436   3.463   4.108  12.180 -3.1671  1.5662  0.9694
 7747TIP3    H247437   3.554   4.217  12.127 -0.9680 -0.5681  0.1581
 7748TIP3   OH247438   3.201   3.510  10.317  0.8992 -0.2010  0.4162
 7748TIP3    H147439   3.271   3.454  10.284  0.4446  0.3872 -1.7303
 7748TIP3    H247440   3.230   3.599  10.297 -0.3140  0.0610 -0.3104
 7749TIP3   OH247441   5.789   0.973  10.715 -0.1577  0.6511  0.3413
 7749TIP3    H147442   5.791   0.954  10.809 -0.9387  0.7329  0.3852
 7749TIP3    H247443   5.839   0.903  10.675  0.1725  0.6074  0.8211
 7750TIP3   OH247444   1.245   1.894   9.611 -0.0291 -0.0809  0.2798
 7750TIP3    H147445   1.190   1.924   9.539  1.0190  0.2463 -0.4195
 7750TIP3    H247446   1.225   1.801   9.620 -0.8767  0.0877  0.2251
 7751TIP3   OH247447   6.021   4.656  13.332  0.0668 -0.1087 -0.2247
 7751TIP3    H147448   6.059   4.570  13.313 -0.9679 -1.1043  1.8175
 7751TIP3    H247449   5.931   4.650  13.299 -0.0629  0.1306  0.0837
 7752TIP3   OH247450   5.298   1.529  10.350 -0.2913 -0.1537 -0.0518
 7752TIP3    H147451   5.285   1.619  10.380 -1.3527 -0.7014  1.2900
 7752TIP3    H247452   5.392   1.516  10.352 -0.1269  0.9357 -0.2901
 7753TIP3   OH247453   1.563   3.142  10.202  0.2230 -0.5138 -0.5588
 7753TIP3    H147454   1.547   3.048  10.204  1.3512 -0.7109  0.2547
 7753TIP3    H247455   1.532   3.173  10.288  1.1020 -0.3736 -0.2876
 7754TIP3   OH247456   4.538   1.916   9.453 -0.5513  0.3732 -0.4469
 7754TIP3    H147457   4.496   1.984   9.401  0.7700  1.0948 -0.6189
 7754TIP3    H247458   4.567   1.851   9.388 -0.4492  0.4044 -0.4318
 7755TIP3   OH247459   0.038   4.567   9.385 -0.2655  0.1769 -0.3272
 7755TIP3    H147460  -0.023   4.572   9.311 -1.3834  2.5499  0.6271
 7755TIP3    H247461   0.068   4.657   9.397  2.8393 -0.7735 -0.1943
 7756TIP3   OH247462   1.056   2.158  11.764 -0.4690 -0.7430  0.4109
 7756TIP3    H147463   1.073   2.094  11.696 -0.7559  1.7758 -2.2130
 7756TIP3    H247464   0.963   2.151  11.782 -1.0571  0.5986 -1.8024
 7757TIP3   OH247465   1.046   1.550  10.732 -0.4593 -0.0721 -0.1951
 7757TIP3    H147466   1.140   1.554  10.747 -0.7717 -1.2531  2.8821
 7757TIP3    H247467   1.017   1.641  10.733  0.5087  0.2405  0.0290
 7758TIP3   OH247468   1.512   5.936   9.718  0.5257  0.2383 -0.1744
 7758TIP3    H147469   1.524   6.030   9.707  0.3892  0.2460 -0.2491
 7758TIP3    H247470   1.564   5.896   9.648 -0.0604  0.2762 -0.6289
 7759TIP3   OH247471   3.152   0.576  11.369  0.2686  0.0973  0.5136
 7759TIP3    H147472   3.166   0.624  11.288  1.0394 -0.4295  0.3202
 7759TIP3    H247473   3.057   0.565  11.375  0.1241  1.1932  0.3097
 7760TIP3   OH247474   5.839   4.148  13.116  0.4491 -0.1150  0.1073
 7760TIP3    H147475   5.929   4.145  13.084 -0.1781 -0.3218 -1.7156
 7760TIP3    H247476   5.788   4.102  13.050 -1.5157  3.0413 -0.8100
 7761TIP3   OH247477   6.257   2.259   9.464  0.1851 -0.3121  0.4251
 7761TIP3    H147478   6.195   2.187   9.473  0.7322 -0.6489  1.6834
 7761TIP3    H247479   6.342   2.221   9.487  0.5107  0.6772  0.9232
 7762TIP3   OH247480   6.620   0.143  10.344 -0.1371  0.5740 -0.4612
 7762TIP3    H147481   6.590   0.109  10.260  0.8097 -1.0787 -0.1719
 7762TIP3    H247482   6.583   0.084  10.409 -1.5591  2.3216  0.3964
 7763TIP3   OH247483   3.068   3.605   9.574  0.5958 -0.2561 -0.3462
 7763TIP3    H147484   3.094   3.547   9.645  0.0347  2.3898  2.1962
 7763TIP3    H247485   2.990   3.650   9.606  1.6118  2.7010 -1.6391
 7764TIP3   OH247486   6.337   1.678  10.888  0.0617 -0.3023  0.1794
 7764TIP3    H147487   6.393   1.747  10.922  0.9717 -0.0967 -1.6106
 7764TIP3    H247488   6.248   1.714  10.893  0.0551 -0.4519  2.6091
 7765TIP3   OH247489   0.273   4.252  13.039  0.6581 -0.4207 -0.2097
 7765TIP3    H147490   0.214   4.176  13.035  0.8915 -0.5914 -0.4389
 7765TIP3    H247491   0.312   4.247  13.126 -0.1693  0.0767  0.2077
 7766TIP3   OH247492   4.837   5.623  13.093 -0.1333 -0.4051 -0.2729
 7766TIP3    H147493   4.921   5.666  13.113  0.4193 -0.9108 -1.4371
 7766TIP3    H247494   4.820   5.567  13.169  0.3128  0.1000  0.2076
 7767TIP3   OH247495   2.856   0.055  11.005  0.1663  0.4083  0.1690
 7767TIP3    H147496   2.934   0.000  11.006  0.3446  0.6249 -0.7823
 7767TIP3    H247497   2.887   0.142  10.978 -0.0634  1.0799  1.9193
 7768TIP3   OH247498   4.562   2.158  10.713  0.6402  0.5016 -0.0329
 7768TIP3    H147499   4.493   2.203  10.762  0.0347 -0.2087 -0.2206
 7768TIP3    H247500   4.516   2.105  10.649  1.2987 -0.9234  0.6276
 7769TIP3   OH247501   6.201   5.567   9.590 -0.2640  0.2725 -0.1089
 7769TIP3    H147502   6.161   5.581   9.676  2.0546 -2.7085  1.6271
 7769TIP3    H247503   6.277   5.625   9.588 -0.1153  0.0773 -0.0306
 7770TIP3   OH247504   0.264   2.287  11.173 -0.1789  0.1224 -0.7466
 7770TIP3    H147505   0.313   2.369  11.168  3.9622 -2.1491 -1.3711
 7770TIP3    H247506   0.210   2.286  11.094 -0.9217  2.4854 -0.3406
 7771TIP3   OH247507   4.256   2.764  11.435  0.4010 -0.4801  0.1668
 7771TIP3    H147508   4.191   2.693  11.435  0.5344 -0.6187 -1.3785
 7771TIP3    H247509   4.221   2.828  11.498 -1.0610 -0.7100 -0.3799
 7772TIP3   OH247510   0.870   6.226   9.294  0.7060  0.9189  0.1636
 7772TIP3    H147511   0.859   6.301   9.352  0.3066  0.1158  1.1523
 7772TIP3    H247512   0.961   6.231   9.265  0.5194  2.0982 -0.2379
 7773TIP3   OH247513   4.436   5.720   9.441 -0.5723  0.0942 -0.1871
 7773TIP3    H147514   4.501   5.769   9.490 -0.4186 -0.5960  0.3178
 7773TIP3    H247515   4.443   5.754   9.351 -0.0018  0.5062  0.0060
 7774TIP3   OH247516   2.111   5.392   9.475 -0.3220 -0.1723  0.4702
 7774TIP3    H147517   2.201   5.399   9.445  0.2998 -0.7846  2.1144
 7774TIP3    H247518   2.068   5.471   9.442  1.4814  1.4927  1.9243
 7775TIP3   OH247519   4.354   4.088  11.976 -0.3534  0.2929  0.4442
 7775TIP3    H147520   4.287   4.115  12.039 -0.5804 -0.4211  0.5132
 7775TIP3    H247521   4.305   4.051  11.903 -0.1663  2.2441 -0.7491
 7776TIP3   OH247522   4.083   3.842  10.650  0.3556 -0.2826 -0.1004
 7776TIP3    H147523   4.113   3.846  10.741  0.2410  0.8686 -0.0879
 7776TIP3    H247524   4.138   3.907  10.605 -1.1158  0.8316 -0.3635
 7777TIP3   OH247525   2.252   4.899  12.078  0.6689  0.1295  0.6023
 7777TIP3    H147526   2.292   4.980  12.047  0.3304  0.5502  1.2270
 7777TIP3    H247527   2.325   4.838  12.089  0.6791 -0.4411 -2.1330
 7778TIP3   OH247528   3.591   0.612  11.396 -0.0360  0.0037 -0.2505
 7778TIP3    H147529   3.557   0.700  11.410 -0.6562 -0.0624 -1.2698
 7778TIP3    H247530   3.527   0.554  11.438  0.7205  0.0343  1.0362
 7779TIP3   OH247531   2.032   0.487  11.981  0.2970 -0.0169  0.4508
 7779TIP3    H147532   2.074   0.418  12.031 -1.0697 -1.1542  0.0919
 7779TIP3    H247533   1.938   0.475  11.997  0.0510  2.6837  1.5697
 7780TIP3   OH247534   2.227   2.885  11.310 -0.1049  0.2296  0.3051
 7780TIP3    H147535   2.180   2.886  11.227  2.5071  2.1172 -1.3190
 7780TIP3    H247536   2.221   2.975  11.342 -0.9067 -0.4224  2.1509
 7781TIP3   OH247537   5.382   6.625  10.059  0.7451  0.6693  0.3245
 7781TIP3    H147538   5.368   6.536  10.027 -0.9527  1.0098  0.0333
 7781TIP3    H247539   5.381   6.679   9.980 -1.1666  1.2611  0.7206
 7782TIP3   OH247540   1.485   4.150  10.234 -0.1032 -0.1478  0.2729
 7782TIP3    H147541   1.470   4.217  10.166  1.9464  0.6458  0.5329
 7782TIP3    H247542   1.427   4.078  10.209 -0.9934  0.9692 -1.0952
 7783TIP3   OH247543   1.576   4.233   9.269 -0.3128  0.5035 -0.4259
 7783TIP3    H147544   1.591   4.236   9.363  1.1326  1.4190 -0.6632
 7783TIP3    H247545   1.581   4.140   9.247 -1.1763  0.2281  0.4502
 7784TIP3   OH247546   4.996   4.408  10.380 -0.0118  0.0164  0.6111
 7784TIP3    H147547   5.005   4.343  10.311 -0.2276  0.2532  0.3550
 7784TIP3    H247548   5.082   4.412  10.421  0.7390  1.3485 -0.9742
 7785TIP3   OH247549   6.088   3.000  12.345 -0.5743  0.3968  0.0485
 7785TIP3    H147550   6.066   3.032  12.433 -1.3559  1.5601 -0.5481
 7785TIP3    H247551   6.183   2.990  12.347 -0.6910 -0.8806  1.4284
 7786TIP3   OH247552   3.747   5.759  10.124  0.2883 -0.6833 -0.3375
 7786TIP3    H147553   3.665   5.752  10.173  0.4007 -1.4447 -0.2437
 7786TIP3    H247554   3.800   5.822  10.174 -0.7407  0.8933 -1.1416
 7787TIP3   OH247555   1.067   4.355   9.637 -0.0804  0.1075  0.9717
 7787TIP3    H147556   1.140   4.297   9.660 -0.1978 -0.2996  0.3510
 7787TIP3    H247557   0.989   4.300   9.648 -0.1155 -0.2134 -0.7219
 7788TIP3   OH247558   3.505   1.603  12.005  0.1598 -0.3190 -0.5118
 7788TIP3    H147559   3.479   1.534  12.066 -0.3388 -1.5709 -2.0598
 7788TIP3    H247560   3.487   1.566  11.919 -1.7956  2.3830 -1.3978
 7789TIP3   OH247561   3.461   2.970   9.691 -0.0716  0.2261 -0.4735
 7789TIP3    H147562   3.501   2.900   9.741  0.5698  0.7790 -0.1943
 7789TIP3    H247563   3.379   2.989   9.736 -0.6756 -0.9219 -1.0543
 7790TIP3   OH247564   4.004   0.748  11.567  0.2915 -0.1469  0.1053
 7790TIP3    H147565   3.939   0.685  11.536  0.5879 -0.8255  0.8337
 7790TIP3    H247566   4.048   0.704  11.640  0.5900  0.8576  0.5525
 7791TIP3   OH247567   6.334   1.545   9.439 -0.2467 -0.2801  0.0150
 7791TIP3    H147568   6.337   1.617   9.376  1.7824 -0.5846 -0.3029
 7791TIP3    H247569   6.261   1.490   9.411  0.5794 -0.3840 -2.0663
 7792TIP3   OH247570   6.522   6.716  10.107 -0.1074 -0.1703  0.6213
 7792TIP3    H147571   6.549   6.796  10.062 -0.9739  0.0401  0.4503
 7792TIP3    H247572   6.437   6.695  10.069  0.1360 -1.2105  0.6292
 7793TIP3   OH247573   0.837   2.591   9.926  0.0374  0.7693  0.0669
 7793TIP3    H147574   0.776   2.557   9.991 -1.3006 -1.4987 -2.2047
 7793TIP3    H247575   0.782   2.627   9.857  1.3706  1.3493 -0.7380
 7794TIP3   OH247576   4.013   3.548  11.562 -0.6450  0.4902  0.5661
 7794TIP3    H147577   4.068   3.481  11.520 -0.2102  1.6492 -0.7788
 7794TIP3    H247578   3.991   3.510  11.647  2.5098  0.0728  1.3376
 7795TIP3   OH247579   4.774   0.943  10.461 -0.4102 -0.1661 -0.0138
 7795TIP3    H147580   4.680   0.957  10.447 -0.7512 -1.3250  0.9259
 7795TIP3    H247581   4.795   0.866  10.408 -0.3266 -0.7789  0.8911
 7796TIP3   OH247582   0.263   4.553   9.108  0.0971 -0.4826 -0.1113
 7796TIP3    H147583   0.187   4.609   9.092  1.4317  1.8492  1.1537
 7796TIP3    H247584   0.337   4.603   9.073  1.5034 -0.8288  2.1456
 7797TIP3   OH247585   6.142   5.113  11.319 -0.5891  0.1067 -0.6161
 7797TIP3    H147586   6.106   5.077  11.237 -0.5158  0.4342 -0.7933
 7797TIP3    H247587   6.222   5.062  11.333 -1.2013 -0.7608 -0.1153
 7798TIP3   OH247588   2.594   0.542  11.920  0.0624 -0.1903 -0.4028
 7798TIP3    H147589   2.507   0.580  11.934 -0.4038 -1.3633  0.0426
 7798TIP3    H247590   2.655   0.609  11.952 -0.7329  0.0675  0.6219
 7799TIP3   OH247591   3.428   2.106  10.983  0.1290 -0.1893  0.1037
 7799TIP3    H147592   3.338   2.079  11.003 -0.0086  0.0833 -0.1411
 7799TIP3    H247593   3.482   2.044  11.030 -0.1715 -1.6807 -1.4000
 7800TIP3   OH247594   1.118   6.331  10.584 -0.3307  0.2540  0.7938
 7800TIP3    H147595   1.066   6.412  10.579 -0.9650 -0.0440  2.0498
 7800TIP3    H247596   1.054   6.261  10.576  0.2657 -0.1515 -0.7052
 7801TIP3   OH247597   4.400   2.304  10.145  0.3479  0.0158  0.1210
 7801TIP3    H147598   4.435   2.281  10.232 -0.0794  0.9998  0.5699
 7801TIP3    H247599   4.362   2.223  10.113  1.1135 -0.5320  0.5566
 7802TIP3   OH247600   5.102   2.763  10.544 -0.0188  0.1379 -0.2332
 7802TIP3    H147601   5.017   2.758  10.501  0.1902 -1.2495 -0.5163
 7802TIP3    H247602   5.124   2.673  10.567  0.9745  0.5703  0.6453
 7803TIP3   OH247603   0.832   0.149  10.447  0.2624 -0.0782  0.4629
 7803TIP3    H147604   0.767   0.190  10.390  0.2549 -0.7861 -0.0474
 7803TIP3    H247605   0.899   0.217  10.459 -1.2541  1.2233  2.2396
 7804TIP3   OH247606   6.570   6.310  12.305 -0.0607 -0.4490  0.2639
 7804TIP3    H147607   6.568   6.274  12.217  0.1100 -2.7810  1.1472
 7804TIP3    H247608   6.505   6.259  12.354 -0.6398  1.2376  1.3510
 7805TIP3   OH247609   3.721   5.745  12.032  0.8952  0.2128  0.2141
 7805TIP3    H147610   3.750   5.704  11.951 -0.4777 -2.2658  0.8654
 7805TIP3    H247611   3.643   5.795  12.007  1.6022  1.0699 -0.3055
 7806TIP3   OH247612   6.654   5.541  10.562  1.0576  0.4231 -0.3671
 7806TIP3    H147613   6.697   5.618  10.525  1.2342  1.0903  1.1439
 7806TIP3    H247614   6.663   5.552  10.657 -2.9900  0.9034  0.1002
 7807TIP3   OH247615   0.242   3.319  10.210 -0.0119 -0.8868 -0.5666
 7807TIP3    H147616   0.188   3.397  10.218 -0.5104 -1.0543 -2.0259
 7807TIP3    H247617   0.321   3.349  10.165 -0.4615 -1.3017 -1.6763
 7808TIP3   OH247618   4.437   5.720  11.550 -0.5505  0.5448 -0.3864
 7808TIP3    H147619   4.457   5.799  11.501  0.6875  2.4905  2.9483
 7808TIP3    H247620   4.379   5.749  11.621  0.5661 -1.3235  1.4112
 7809TIP3   OH247621   3.654   4.042  12.627  0.3307 -0.3964  0.2010
 7809TIP3    H147622   3.611   3.979  12.686  0.5908  0.1732  1.0211
 7809TIP3    H247623   3.610   4.125  12.645 -0.1267 -0.3670 -1.0010
 7810TIP3   OH247624   3.965   6.219  10.232  0.5740 -0.2200 -0.0524
 7810TIP3    H147625   3.993   6.307  10.205  2.7497 -0.4602  1.2413
 7810TIP3    H247626   3.893   6.235  10.293  0.5260  0.6275 -0.3065
 7811TIP3   OH247627   3.623   6.679  10.992 -0.5595  0.1676 -0.4683
 7811TIP3    H147628   3.667   6.744  11.047  0.9610 -0.7652 -0.5396
 7811TIP3    H247629   3.630   6.597  11.041 -1.9480 -0.0965 -0.6470
 7812TIP3   OH247630   4.932   3.389   9.973  0.5338  0.2651  0.0812
 7812TIP3    H147631   4.862   3.452   9.994  1.4640  1.0803  0.8655
 7812TIP3    H247632   5.002   3.444   9.936  0.8453 -0.5084 -0.4898
 7813TIP3   OH247633   2.849   2.012  10.212  0.2028 -0.4206 -0.3646
 7813TIP3    H147634   2.876   2.043  10.298  1.1533  1.1449 -1.1798
 7813TIP3    H247635   2.832   1.919  10.224 -2.6738  0.2993  2.1987
 7814TIP3   OH247636   1.190   5.051   9.816  0.1867  0.3926  0.0490
 7814TIP3    H147637   1.202   5.141   9.847  0.8089 -0.6397  3.1819
 7814TIP3    H247638   1.099   5.048   9.787  0.1680  2.0352 -0.1585
 7815TIP3   OH247639   4.211   2.911  12.563  0.7213  0.4599  0.5314
 7815TIP3    H147640   4.271   2.855  12.612  1.3358 -0.3901 -1.1511
 7815TIP3    H247641   4.189   2.981  12.625  1.1593 -0.7604  2.1525
 7816TIP3   OH247642   2.381   5.798  12.739 -0.1090 -0.4442 -0.1339
 7816TIP3    H147643   2.382   5.837  12.652 -0.8291  1.1719  0.5424
 7816TIP3    H247644   2.290   5.774  12.754 -0.1399  0.0296  0.4780
 7817TIP3   OH247645   5.441   2.673  10.468  0.7061 -0.0019  0.4414
 7817TIP3    H147646   5.438   2.690  10.374 -1.8624 -0.3079  0.3928
 7817TIP3    H247647   5.372   2.728  10.505  0.7491 -0.8893  1.9579
 7818TIP3   OH247648   2.909   2.029  11.765  0.0541 -0.1229 -0.1782
 7818TIP3    H147649   2.848   2.103  11.756 -1.5339 -1.4391 -0.7955
 7818TIP3    H247650   2.906   2.006  11.858  0.0195  0.1563 -0.1096
 7819TIP3   OH247651   6.167   1.859  11.253  0.6160 -0.0814 -0.2299
 7819TIP3    H147652   6.145   1.888  11.342 -2.9415  1.7290 -1.5143
 7819TIP3    H247653   6.153   1.764  11.254  0.7560 -0.1110  1.1153
 7820TIP3   OH247654   2.120   2.489  12.473  0.3775 -0.2124  0.2147
 7820TIP3    H147655   2.113   2.396  12.493  2.9169 -0.7491 -1.1005
 7820TIP3    H247656   2.047   2.529  12.521 -1.0341 -2.8878  0.4791
 7821TIP3   OH247657   3.953   4.458  11.195  0.2318  0.0068 -0.3537
 7821TIP3    H147658   3.874   4.472  11.247 -0.2669 -1.3524 -0.7031
 7821TIP3    H247659   4.002   4.392  11.245  1.8249  1.7783  0.5533
 7822TIP3   OH247660   3.507   1.917  11.140 -0.2084  0.4887  0.5232
 7822TIP3    H147661   3.542   1.949  11.223 -1.0056 -0.0062  1.0612
 7822TIP3    H247662   3.534   1.825  11.137  1.6339  1.0043 -0.7755
 7823TIP3   OH247663   4.593   2.830  12.466 -0.3622 -0.7356  0.1432
 7823TIP3    H147664   4.622   2.747  12.428 -1.2497 -1.1796  0.4025
 7823TIP3    H247665   4.662   2.853  12.528  0.2803 -0.8654 -0.5060
 7824TIP3   OH247666   6.394   4.302  11.914 -0.1604 -0.1385  0.1003
 7824TIP3    H147667   6.401   4.367  11.985  0.5685 -0.9616  0.8103
 7824TIP3    H247668   6.484   4.277  11.896 -0.4413 -1.1414  0.0234
 7825TIP3   OH247669   2.877   1.592   9.944  0.5221  0.5178  0.2949
 7825TIP3    H147670   2.849   1.572   9.855 -0.0019 -1.7544  0.9184
 7825TIP3    H247671   2.801   1.634   9.985 -0.5429 -1.6060  0.6525
 7826TIP3   OH247672   3.144   2.244  11.847 -0.2544 -0.7099 -0.4878
 7826TIP3    H147673   3.235   2.252  11.875 -0.1747  0.6681 -1.0415
 7826TIP3    H247674   3.094   2.291  11.913 -1.0907 -4.5483  1.9184
 7827TIP3   OH247675   0.192   3.477  11.193  0.1324 -0.7452  0.2530
 7827TIP3    H147676   0.195   3.466  11.288  0.7909 -1.1870  0.1866
 7827TIP3    H247677   0.258   3.544  11.174 -1.5689  1.0637  0.3144
 7828TIP3   OH247678   5.818   3.497  10.597  0.5495  0.0691  0.6522
 7828TIP3    H147679   5.843   3.449  10.676 -1.1813  0.9418  1.7893
 7828TIP3    H247680   5.755   3.562  10.627  1.5998  2.0078 -1.0850
 7829TIP3   OH247681   2.404   4.133  12.160 -0.1788 -0.1005  0.2308
 7829TIP3    H147682   2.351   4.113  12.237 -1.2639  0.0752 -0.4520
 7829TIP3    H247683   2.396   4.056  12.104 -0.3177  0.2131 -0.1946
 7830TIP3   OH247684   4.937   3.141  10.786  1.1409 -0.1101  0.7455
 7830TIP3    H147685   4.860   3.145  10.730  1.5322 -1.7022  0.0438
 7830TIP3    H247686   4.979   3.227  10.776 -0.4482  0.7447  1.0742
 7831TIP3   OH247687   2.800   0.924   9.724  0.4749 -0.4875  0.5766
 7831TIP3    H147688   2.818   1.017   9.737  0.3035 -0.3442 -0.1352
 7831TIP3    H247689   2.722   0.907   9.777 -0.6780  0.2594 -0.7962
 7832TIP3   OH247690   5.446   6.447  11.433  0.8286  0.3500  0.2136
 7832TIP3    H147691   5.460   6.382  11.501 -0.1967  0.8835  0.9592
 7832TIP3    H247692   5.477   6.529  11.471  0.1768  0.6686  0.0651
 7833TIP3   OH247693   1.017   3.743  10.157 -0.4769 -0.5929  0.0385
 7833TIP3    H147694   1.018   3.654  10.194 -2.5513 -0.5864  0.2677
 7833TIP3    H247695   1.002   3.800  10.232 -0.8336 -0.2096 -0.3199
 7834TIP3   OH247696   0.775   2.076  10.959  0.4085  0.4006  0.0956
 7834TIP3    H147697   0.697   2.026  10.937 -0.2994  1.0529  1.0542
 7834TIP3    H247698   0.758   2.164  10.925  0.3324  0.7800  1.0805
 7835TIP3   OH247699   0.411   2.542  11.218 -0.6187  0.4355 -0.6985
 7835TIP3    H147700   0.457   2.515  11.138  0.3379 -1.2620  0.3668
 7835TIP3    H247701   0.450   2.626  11.240 -1.1559  1.1161 -2.1901
 7836TIP3   OH247702   6.228   4.164  13.160 -0.1509 -0.1510 -0.2173
 7836TIP3    H147703   6.156   4.124  13.111  0.3593 -0.3726 -0.8059
 7836TIP3    H247704   6.264   4.229  13.100  0.3261 -0.2498 -0.0453
 7837TIP3   OH247705   5.549   6.233   9.994  0.5868 -0.0699  0.1571
 7837TIP3    H147706   5.599   6.162   9.952 -0.3663 -0.5897 -0.1389
 7837TIP3    H247707   5.569   6.225  10.087  0.4296 -0.7861  0.1349
 7838TIP3   OH247708   3.922   3.687  10.134  0.6054 -0.2858 -0.0369
 7838TIP3    H147709   3.844   3.729  10.169  1.3476 -0.6164  2.1502
 7838TIP3    H247710   3.890   3.632  10.062 -1.0098  0.3263  0.1795
 7839TIP3   OH247711   6.422   0.544  10.480 -0.5582 -0.0379  0.0613
 7839TIP3    H147712   6.505   0.525  10.434 -0.1387  1.0056  0.3626
 7839TIP3    H247713   6.355   0.536  10.412 -0.1435 -0.3310 -0.3207
 7840TIP3   OH247714   5.289   1.131  11.788 -0.3215 -0.4678 -0.6581
 7840TIP3    H147715   5.209   1.170  11.823 -0.0355  1.2231 -1.7832
 7840TIP3    H247716   5.262   1.043  11.760 -1.1234 -0.9475  1.4127
 7841TIP3   OH247717   2.081   3.556  10.154  0.1254  0.0412  0.7034
 7841TIP3    H147718   2.082   3.618  10.081 -0.5975  0.3061  0.9135
 7841TIP3    H247719   1.988   3.533  10.164  0.3960 -1.2015  0.5127
 7842TIP3   OH247720   2.585   2.882  10.949 -0.1887  0.5104 -0.3015
 7842TIP3    H147721   2.654   2.928  10.997  1.2822  0.3527 -2.1403
 7842TIP3    H247722   2.522   2.951  10.926 -0.1572  0.8308  0.5284
 7843TIP3   OH247723   1.598   4.142  11.500  0.1808 -0.4702  0.2772
 7843TIP3    H147724   1.676   4.113  11.452 -0.7708 -0.4674 -1.3437
 7843TIP3    H247725   1.525   4.102  11.453 -0.9629  1.6994  0.0975
 7844TIP3   OH247726   5.882   2.917   9.484  0.0831 -0.1315  0.1472
 7844TIP3    H147727   5.919   2.831   9.464  0.0961 -0.1987  0.4531
 7844TIP3    H247728   5.958   2.975   9.488  0.1691 -0.2873  0.8671
 7845TIP3   OH247729   2.794   1.174   9.918  0.8491  0.5984  0.0120
 7845TIP3    H147730   2.821   1.193   9.829  2.4467 -0.0317  0.3336
 7845TIP3    H247731   2.722   1.112   9.909 -0.6236  2.3220 -0.8671
 7846TIP3   OH247732   5.373   3.841  12.526  0.1735 -0.3981  0.3215
 7846TIP3    H147733   5.294   3.788  12.512 -0.4192  0.8412 -1.4484
 7846TIP3    H247734   5.340   3.923  12.565  0.7166 -0.2671  0.5172
 7847TIP3   OH247735   2.260   6.236  10.619  0.1495 -0.2454  0.3344
 7847TIP3    H147736   2.218   6.265  10.700 -1.1043  0.8035 -0.6505
 7847TIP3    H247737   2.353   6.231  10.641  0.3690  3.6225  0.9289
 7848TIP3   OH247738   4.400   4.207   9.463  0.2699 -0.1902  0.4632
 7848TIP3    H147739   4.421   4.138   9.399 -1.5000 -0.9454  0.6419
 7848TIP3    H247740   4.416   4.289   9.416 -1.1519 -0.7256 -1.0590
 7849TIP3   OH247741   2.986   1.268  12.115  0.0936  0.3198 -0.1432
 7849TIP3    H147742   3.041   1.295  12.189 -0.0130 -2.3973  1.0926
 7849TIP3    H247743   3.045   1.270  12.039  1.4553 -0.7613  0.8109
 7850TIP3   OH247744   0.050   0.484  11.409 -0.5928 -0.8491 -0.0475
 7850TIP3    H147745   0.048   0.453  11.319 -2.0163 -0.9083 -0.0056
 7850TIP3    H247746   0.032   0.578  11.402  0.7932 -0.5552  0.0669
 7851TIP3   OH247747   4.845   3.574   9.185  0.3583  0.0083  0.5541
 7851TIP3    H147748   4.839   3.539   9.274  1.0659  1.1199  1.0602
 7851TIP3    H247749   4.933   3.549   9.156  0.2170 -0.1413  0.2533
 7852TIP3   OH247750   4.015   3.023  11.372  0.3346  0.1110 -0.5999
 7852TIP3    H147751   4.033   3.064  11.288 -0.3647  0.6984 -0.4728
 7852TIP3    H247752   3.960   2.948  11.351 -1.8714  1.6113 -0.4960
 7853TIP3   OH247753   1.041   6.111  11.258 -0.5076  0.2871 -0.3557
 7853TIP3    H147754   1.015   6.097  11.167  1.4184 -2.1952 -0.6078
 7853TIP3    H247755   0.976   6.061  11.309  0.3836 -1.2199 -0.6359
 7854TIP3   OH247756   0.368   6.118  11.331 -0.1197 -0.0826  0.1166
 7854TIP3    H147757   0.446   6.160  11.366  0.2919 -1.9417  1.5888
 7854TIP3    H247758   0.295   6.163  11.373  0.1716  0.9237 -0.4195
 7855TIP3   OH247759   2.540   5.434  12.348  0.0463  0.3495 -0.3248
 7855TIP3    H147760   2.537   5.530  12.345 -2.6517  0.3199 -0.4437
 7855TIP3    H247761   2.463   5.409  12.398  0.1847 -1.7955 -1.0956
 7856TIP3   OH247762   5.780   4.645  13.173 -0.3236  0.0874 -0.1355
 7856TIP3    H147763   5.763   4.559  13.211 -0.2817  0.2866  0.3465
 7856TIP3    H247764   5.702   4.666  13.123 -0.5320 -0.0173  0.1463
 7857TIP3   OH247765   3.502   3.150  11.664  0.3303 -0.8260 -0.3521
 7857TIP3    H147766   3.595   3.167  11.649 -0.1435  1.3579 -1.1261
 7857TIP3    H247767   3.472   3.107  11.584  0.8604 -2.5562  0.3337
 7858TIP3   OH247768   3.840   4.346  10.066 -0.2036 -0.2115  0.3507
 7858TIP3    H147769   3.835   4.322  10.158  0.5740 -1.0676  0.1884
 7858TIP3    H247770   3.901   4.283  10.028  1.3257  1.5363 -0.2736
 7859TIP3   OH247771   2.729   3.989  10.290 -0.8605 -0.1219  0.0397
 7859TIP3    H147772   2.749   3.966  10.199  2.5335  0.0863  0.5919
 7859TIP3    H247773   2.741   4.084  10.294 -0.8006 -0.1494  0.7208
 7860TIP3   OH247774   1.889   1.515  11.472  0.1156 -0.4122  0.1485
 7860TIP3    H147775   1.837   1.574  11.526 -0.9960  0.2973 -1.6011
 7860TIP3    H247776   1.943   1.573  11.418  1.5597 -1.1152  0.7732
 7861TIP3   OH247777   5.744   3.058  11.322 -0.3594 -0.3863 -0.8423
 7861TIP3    H147778   5.737   3.070  11.417 -0.0039 -0.9281 -0.7409
 7861TIP3    H247779   5.742   2.963  11.310 -0.9006 -0.3054 -1.4236
 7862TIP3   OH247780   4.735   4.400  10.116  0.3770  0.0280 -0.7368
 7862TIP3    H147781   4.759   4.492  10.125 -0.4803  0.2448 -0.5835
 7862TIP3    H247782   4.644   4.402  10.087  0.1277 -0.7858 -0.0362
 7863TIP3   OH247783   2.936   6.275  12.552 -0.0481  0.5535  0.0463
 7863TIP3    H147784   2.874   6.203  12.557 -0.3910  0.6884 -1.7658
 7863TIP3    H247785   2.894   6.346  12.600  0.0206 -0.2358  1.3165
 7864TIP3   OH247786   1.216   6.467  11.018  0.3827 -0.1747  0.1213
 7864TIP3    H147787   1.121   6.477  11.024  0.4934  1.4934 -0.3498
 7864TIP3    H247788   1.240   6.410  11.092 -1.0945 -1.6762 -0.4971
 7865TIP3   OH247789   2.432   1.488  11.027 -0.0080  0.2542 -0.4210
 7865TIP3    H147790   2.527   1.474  11.031  0.1153  1.2076  0.2387
 7865TIP3    H247791   2.414   1.496  10.933  0.4860 -0.3939 -0.5823
 7866TIP3   OH247792   4.574   1.089  11.684  0.5301  0.2200  0.5730
 7866TIP3    H147793   4.495   1.108  11.632  0.5564 -0.7273  0.1647
 7866TIP3    H247794   4.552   1.119  11.772 -0.1413  0.3391  0.3751
 7867TIP3   OH247795   1.572   2.955  10.579  0.0159 -0.0277  0.1790
 7867TIP3    H147796   1.566   2.916  10.666  3.0820 -0.2255  0.4226
 7867TIP3    H247797   1.503   2.913  10.529 -3.4638  1.7698  3.0045
 7868TIP3   OH247798   4.998   4.643   9.531  0.1360 -0.3930  0.3422
 7868TIP3    H147799   5.080   4.610   9.567 -0.8238 -1.6629  1.4438
 7868TIP3    H247800   4.982   4.724   9.579 -0.5228 -1.4540  1.9694
 7869TIP3   OH247801   2.677   3.529  10.853  0.4821 -0.0724  0.3884
 7869TIP3    H147802   2.587   3.560  10.841  0.6964 -0.4891 -4.0614
 7869TIP3    H247803   2.670   3.434  10.856  0.7123 -0.0673  1.3300
 7870TIP3   OH247804   4.661   1.796  10.268  0.4533 -0.1562 -0.0216
 7870TIP3    H147805   4.656   1.827  10.358 -0.7292  0.4865 -0.2904
 7870TIP3    H247806   4.581   1.744  10.256 -0.9910  2.1965 -1.5386
 7871TIP3   OH247807   6.139   5.347   9.441  0.2016 -0.1569 -0.1296
 7871TIP3    H147808   6.138   5.426   9.495  0.6373 -0.7364  0.7339
 7871TIP3    H247809   6.096   5.280   9.495  0.8351 -0.8010 -0.4147
 7872TIP3   OH247810   6.019   5.342  10.574  0.5635  0.1545 -0.1974
 7872TIP3    H147811   6.079   5.345  10.499 -0.1367 -1.1321 -0.8536
 7872TIP3    H247812   5.980   5.255  10.569  0.4331  0.0824  1.6346
 7873TIP3   OH247813   1.819   2.900  10.345  0.1050  0.3344 -0.1060
 7873TIP3    H147814   1.795   2.977  10.396 -1.5814 -1.8721  2.6806
 7873TIP3    H247815   1.893   2.861  10.393  0.6216 -0.0949 -1.1982
 7874TIP3   OH247816   5.131   4.599  10.183  0.1945 -0.5382 -0.2271
 7874TIP3    H147817   5.097   4.538  10.249 -0.0709  2.4168  2.5902
 7874TIP3    H247818   5.056   4.651  10.157  0.8083 -0.0134 -0.9917
 7875TIP3   OH247819   5.877   0.225  11.358  0.3248  0.1564  0.3802
 7875TIP3    H147820   5.942   0.207  11.425  3.4105 -0.8850 -2.5868
 7875TIP3    H247821   5.832   0.141  11.346 -0.1816  0.3252  1.0292
 7876TIP3   OH247822   1.370   4.198  12.245 -0.1045  0.0671  0.8659
 7876TIP3    H147823   1.322   4.117  12.226 -0.2126 -0.4956  3.1781
 7876TIP3    H247824   1.308   4.268  12.224 -0.7290 -0.5310  0.6818
 7877TIP3   OH247825   4.386   0.917  10.621  0.0880  0.1626  0.3370
 7877TIP3    H147826   4.362   0.940  10.711  0.0076  1.0953  0.0809
 7877TIP3    H247827   4.302   0.904  10.577  0.1176 -1.4996  0.6690
 7878TIP3   OH247828   5.633   4.316  10.979  0.1110  0.0431 -0.0729
 7878TIP3    H147829   5.583   4.392  11.010 -0.3769  0.4655 -1.8214
 7878TIP3    H247830   5.605   4.245  11.037  0.5303  1.1442  1.5702
 7879TIP3   OH247831   3.389   2.669   9.851  0.2028  0.5027  0.1788
 7879TIP3    H147832   3.387   2.614   9.929 -0.1535 -0.8113 -0.7323
 7879TIP3    H247833   3.334   2.744   9.874 -0.9179 -0.4618  0.7934
 7880TIP3   OH247834   6.674   3.248   9.436  0.3672  0.1463 -0.6616
 7880TIP3    H147835   6.596   3.286   9.477  0.0257 -1.0236 -0.1735
 7880TIP3    H247836   6.660   3.260   9.342  0.5761  1.7586 -0.5128
 7881TIP3   OH247837   3.273   3.852  11.379 -0.2703  0.5748  0.2630
 7881TIP3    H147838   3.306   3.771  11.417 -1.2534 -1.2554 -2.5274
 7881TIP3    H247839   3.352   3.905  11.364  0.6126 -0.6877  0.3034
 7882TIP3   OH247840   1.287   1.516  12.053 -0.0589 -0.2281  0.4112
 7882TIP3    H147841   1.195   1.490  12.053 -0.3037  0.6120  0.3436
 7882TIP3    H247842   1.291   1.592  12.111  0.8330 -1.0200  1.4525
 7883TIP3   OH247843   4.478   2.710  10.348  0.1177 -0.0794  0.0105
 7883TIP3    H147844   4.474   2.648  10.275 -1.9365 -0.7112  0.5943
 7883TIP3    H247845   4.541   2.776  10.320  0.7004 -1.2395 -1.5735
 7884TIP3   OH247846   4.980   5.586   9.317 -0.0577 -0.2574  0.0006
 7884TIP3    H147847   4.958   5.493   9.318  1.7325 -0.7352 -0.4733
 7884TIP3    H247848   5.070   5.589   9.284 -1.0136  1.8261 -2.8757
 7885TIP3   OH247849   2.533   3.839  10.031  0.2203 -0.2015 -0.3347
 7885TIP3    H147850   2.536   3.775   9.961 -2.5120 -1.4904  0.5960
 7885TIP3    H247851   2.577   3.797  10.105 -1.7052 -1.1642  0.3227
 7886TIP3   OH247852   4.464   4.990  12.461  0.2379  0.3815  0.6882
 7886TIP3    H147853   4.552   5.013  12.430 -0.3553  0.9250 -0.6634
 7886TIP3    H247854   4.405   5.029  12.397 -0.9867 -0.3036  1.3637
 7887TIP3   OH247855   4.994   1.149  10.301  0.3212  0.2514 -0.2910
 7887TIP3    H147856   4.925   1.107  10.352 -0.8219 -0.8146 -2.5834
 7887TIP3    H247857   4.976   1.243  10.308  0.0024  0.1150  0.9353
 7888TIP3   OH247858   5.860   2.530  10.618 -0.3393 -0.1307 -0.4188
 7888TIP3    H147859   5.811   2.613  10.622 -0.0106  0.0351  0.3500
 7888TIP3    H247860   5.800   2.465  10.652 -0.2336 -0.0201 -0.0076
 7889TIP3   OH247861   0.931   6.529  10.603 -0.2786 -0.0018  0.0438
 7889TIP3    H147862   0.980   6.594  10.652  0.6006  0.2151 -1.0738
 7889TIP3    H247863   0.867   6.580  10.553  0.9196  0.1171 -1.4234
 7890TIP3   OH247864   3.741   6.277  11.608 -0.2520  0.1757 -0.8566
 7890TIP3    H147865   3.719   6.329  11.686  3.8550  0.9046  0.0198
 7890TIP3    H247866   3.756   6.189  11.641 -1.2424 -0.1998 -1.3567
 7891TIP3   OH247867   1.602   0.644  10.900 -0.5630 -0.3865 -0.2254
 7891TIP3    H147868   1.611   0.671  10.991  1.3579 -3.0501  0.5074
 7891TIP3    H247869   1.691   0.645  10.865 -0.8687 -2.0025 -1.1780
 7892TIP3   OH247870   3.624   1.495  10.800 -0.5268  0.6283 -0.2772
 7892TIP3    H147871   3.570   1.421  10.828 -0.6534  0.3988 -1.0807
 7892TIP3    H247872   3.712   1.460  10.792 -0.7242  0.3352 -1.4309
 7893TIP3   OH247873   1.809   0.690   9.188 -0.2572  0.7155  0.3612
 7893TIP3    H147874   1.787   0.613   9.240  0.7615  0.9210  1.1187
 7893TIP3    H247875   1.734   0.748   9.198 -0.9864 -0.1110 -0.1273
 7894TIP3   OH247876   3.127   5.900  10.107 -0.5663  0.1035 -0.5394
 7894TIP3    H147877   3.044   5.852  10.102  0.8777 -2.5499 -1.3551
 7894TIP3    H247878   3.155   5.909  10.016  0.3968  0.2539 -0.2433
 7895TIP3   OH247879   4.640   3.893  11.111 -0.0916  0.1849 -0.5461
 7895TIP3    H147880   4.563   3.837  11.102 -1.0287  1.0619  1.4458
 7895TIP3    H247881   4.675   3.873  11.198  1.1627  0.7543 -0.8906
 7896TIP3   OH247882   1.108   3.656  12.070  0.0970 -0.7406  0.3898
 7896TIP3    H147883   1.052   3.634  12.144  2.2115 -0.3537  2.2211
 7896TIP3    H247884   1.160   3.578  12.055  1.2368 -0.0948  0.8392
 7897TIP3   OH247885   5.177   0.867  11.409  0.5559  0.3664 -0.3176
 7897TIP3    H147886   5.085   0.860  11.435  1.0524  0.2819  1.5739
 7897TIP3    H247887   5.196   0.783  11.368  0.2966 -0.4679  1.1684
 7898TIP3   OH247888   3.331   6.391  10.442  0.3439 -0.1850  0.8233
 7898TIP3    H147889   3.296   6.397  10.353 -0.1212  0.6101  1.0447
 7898TIP3    H247890   3.381   6.310  10.443  0.8641  0.0989 -0.3468
 7899TIP3   OH247891   5.602   5.971  10.680 -0.4517 -0.7576  0.3595
 7899TIP3    H147892   5.514   5.969  10.719 -0.9452  0.4675 -0.6489
 7899TIP3    H247893   5.643   6.049  10.716 -0.0882 -0.8424  0.1369
 7900TIP3   OH247894   0.169   5.447   9.994  0.4840 -0.0986 -0.1503
 7900TIP3    H147895   0.230   5.521   9.992 -0.0291  0.3252 -1.3193
 7900TIP3    H247896   0.110   5.466  10.066  1.5825 -0.4047  0.8546
 7901TIP3   OH247897   5.545   0.670  10.313  0.0012 -0.6070 -0.6069
 7901TIP3    H147898   5.548   0.760  10.344 -0.2384 -0.3216 -1.3849
 7901TIP3    H247899   5.632   0.635  10.334 -0.6130 -0.9192  1.7254
 7902TIP3   OH247900   0.075   0.252  11.243 -0.4126 -0.2851 -0.0310
 7902TIP3    H147901  -0.015   0.282  11.231 -0.1547  0.6022  0.1224
 7902TIP3    H247902   0.091   0.260  11.337  0.3545  1.2238 -0.2533
 7903TIP3   OH247903   6.188   6.320   9.414 -0.7116 -0.0182 -0.0160
 7903TIP3    H147904   6.137   6.396   9.440 -1.1088  0.0409 -0.9319
 7903TIP3    H247905   6.146   6.289   9.333 -0.4965 -1.1447  0.2847
 7904TIP3   OH247906   5.412   2.599  11.475 -0.3254 -0.1201  0.0375
 7904TIP3    H147907   5.330   2.568  11.438 -0.7663  0.2291  0.7110
 7904TIP3    H247908   5.405   2.580  11.568  0.5626 -0.5286  0.0372
 7905TIP3   OH247909   5.475   6.705   9.417 -0.5019 -0.1265  0.3593
 7905TIP3    H147910   5.462   6.792   9.454 -0.3006  0.5219 -1.0507
 7905TIP3    H247911   5.417   6.648   9.469 -1.7018  1.0806  0.3945
 7906TIP3   OH247912   3.831   3.642  12.098  0.3607  0.5691 -0.3365
 7906TIP3    H147913   3.879   3.648  12.180  1.1880  0.9734 -0.8316
 7906TIP3    H247914   3.753   3.592  12.119  0.0430  1.5583  0.9234
 7907TIP3   OH247915   0.265   5.357  20.130  0.6412  0.0853 -0.4849
 7907TIP3    H147916   0.358   5.352  20.109  0.7694 -1.0211  0.2519
 7907TIP3    H247917   0.260   5.405  20.212  0.6941 -0.9264  0.1320
 7908TIP3   OH247918   5.949   2.356  10.429  0.0170  0.1834  0.3548
 7908TIP3    H147919   5.938   2.433  10.486  0.2778  0.1746  0.4213
 7908TIP3    H247920   5.999   2.294  10.482 -0.3040 -0.0848  0.3446
 7909TIP3   OH247921   2.641   6.596  12.085  0.1267 -0.0826 -0.0633
 7909TIP3    H147922   2.600   6.539  12.150  1.0789 -1.5220 -0.6666
 7909TIP3    H247923   2.595   6.577  12.003  0.6784 -0.2687 -0.3411
 7910TIP3   OH247924   4.146   0.857  10.477 -0.0660  0.0922  0.1362
 7910TIP3    H147925   4.092   0.886  10.403  2.3555  0.8581 -1.4325
 7910TIP3    H247926   4.093   0.789  10.519 -1.8498  0.1231 -1.8602
 7911TIP3   OH247927   1.426   2.821  11.757 -0.4204 -0.2329 -0.0200
 7911TIP3    H147928   1.398   2.909  11.783  0.1947 -0.0370 -0.0007
 7911TIP3    H247929   1.520   2.830  11.741 -0.0634 -1.1966  1.3825
 7912TIP3   OH247930   3.317   0.708  10.494  0.3255  0.5833  0.0807
 7912TIP3    H147931   3.404   0.668  10.499  0.8925  1.5609 -1.4325
 7912TIP3    H247932   3.315   0.769  10.568 -0.2507 -1.5544  1.9394
 7913TIP3   OH247933   1.311   4.886  11.545 -0.3267 -0.2098 -0.6281
 7913TIP3    H147934   1.380   4.833  11.588 -1.1810  0.3279  1.5511
 7913TIP3    H247935   1.348   4.909  11.460  2.6659  0.9437  0.8505
 7914TIP3   OH247936   3.371   5.123  12.291  0.3666  0.5996 -0.3811
 7914TIP3    H147937   3.277   5.144  12.291  0.3133  0.3979  0.8741
 7914TIP3    H247938   3.373   5.028  12.279  0.2678  0.1788  2.4205
 7915TIP3   OH247939   2.569   1.083  11.214 -0.3504 -0.5295 -0.8184
 7915TIP3    H147940   2.571   1.050  11.124  0.0396 -1.3956 -0.5068
 7915TIP3    H247941   2.476   1.090  11.235 -0.4733 -2.2945 -0.6151
 7916TIP3   OH247942   1.055   2.641  10.552  0.0320 -0.3580  0.3973
 7916TIP3    H147943   1.009   2.565  10.587 -0.0874  0.3993  1.9961
 7916TIP3    H247944   1.093   2.683  10.629  2.6357 -0.4373 -0.7462
 7917TIP3   OH247945   5.917   4.556  11.293 -0.4024 -0.0418 -0.3972
 7917TIP3    H147946   5.898   4.640  11.334 -0.1263  0.1060 -0.5673
 7917TIP3    H247947   5.939   4.578  11.203  2.1100  0.0014  0.1487
 7918TIP3   OH247948   5.524   4.036  11.101 -0.1749  0.0369  0.5705
 7918TIP3    H147949   5.469   4.014  11.177 -1.4917  0.6201 -0.1942
 7918TIP3    H247950   5.463   4.044  11.028  1.0762 -0.5362 -0.5818
 7919TIP3   OH247951   0.818   6.628   9.583 -0.1451  0.3987  0.2396
 7919TIP3    H147952   0.730   6.600   9.557 -0.3742  1.0642  0.2895
 7919TIP3    H247953   0.860   6.655   9.502  0.2461 -0.5357  0.1221
 7920TIP3   OH247954   5.853   0.557  10.416  0.6667 -0.5832  0.9524
 7920TIP3    H147955   5.790   0.492  10.448 -0.3982 -0.1776 -0.2525
 7920TIP3    H247956   5.926   0.505  10.382 -1.1484 -1.3851 -2.1221
 7921TIP3   OH247957   6.317   0.390  10.010 -0.6229  0.2892 -0.0957
 7921TIP3    H147958   6.313   0.322   9.943 -0.0522 -0.6455  0.7900
 7921TIP3    H247959   6.270   0.464   9.972  0.4323  0.1037 -1.8885
 7922TIP3   OH247960   6.207   1.087  10.603 -0.3034  0.2213  0.2645
 7922TIP3    H147961   6.263   1.104  10.679  0.7908 -1.8782 -0.0119
 7922TIP3    H247962   6.217   0.994  10.586 -1.2644  0.4563 -1.8857
 7923TIP3   OH247963   3.651   5.649  10.907 -0.5094 -0.3317  0.0702
 7923TIP3    H147964   3.674   5.556  10.901 -0.6994 -0.3181 -1.2381
 7923TIP3    H247965   3.590   5.654  10.980  0.2008 -1.0791  0.7364
 7924TIP3   OH247966   1.326   5.191   9.307 -0.2567 -0.2065  1.0288
 7924TIP3    H147967   1.400   5.167   9.363  0.8572  0.0724 -0.2630
 7924TIP3    H247968   1.342   5.283   9.284  0.8272 -0.9834 -1.8438
 7925TIP3   OH247969   6.470   5.139  11.089 -0.4400  0.1612 -0.4808
 7925TIP3    H147970   6.418   5.194  11.147 -0.3069 -1.1781  0.9571
 7925TIP3    H247971   6.482   5.192  11.010 -1.6783  1.5352  0.2179
 7926TIP3   OH247972   1.647   2.409  12.651 -0.4508 -0.4922 -0.1478
 7926TIP3    H147973   1.601   2.481  12.694 -3.4308 -1.8214 -0.8658
 7926TIP3    H247974   1.595   2.390  12.573  0.6958 -2.8898 -0.4242
 7927TIP3   OH247975   1.019   5.773  11.443  0.3345 -0.5307 -0.0888
 7927TIP3    H147976   1.115   5.771  11.440  0.3670  0.5164 -0.1667
 7927TIP3    H247977   0.997   5.750  11.533  0.6508 -0.8855 -0.0987
 7928TIP3   OH247978   5.834   2.941  12.221 -0.0230  0.3903  0.5378
 7928TIP3    H147979   5.922   2.961  12.251 -0.2961  0.3017  1.4143
 7928TIP3    H247980   5.814   3.009  12.157  1.1923 -0.3731 -0.7221
 7929TIP3   OH247981   5.331   4.765  10.283 -0.2863  0.6134  0.3053
 7929TIP3    H147982   5.395   4.720  10.228  0.9175  1.4366  0.9819
 7929TIP3    H247983   5.248   4.722  10.264  0.3835 -0.1882 -0.9378
 7930TIP3   OH247984   4.210   1.827  12.072  0.0570  0.3365  0.3481
 7930TIP3    H147985   4.202   1.846  12.165 -1.0099  1.0633  0.1391
 7930TIP3    H247986   4.240   1.737  12.067  2.0836  0.9027  1.3940
 7931TIP3   OH247987   2.017   0.408   9.499 -0.1299  0.2720  0.1418
 7931TIP3    H147988   2.065   0.475   9.450 -0.1391 -0.2600 -0.6117
 7931TIP3    H247989   1.975   0.455   9.570  0.3840  0.9652 -0.0044
 7932TIP3   OH247990   4.749   6.181  10.087 -0.5330 -0.5173 -0.4417
 7932TIP3    H147991   4.834   6.224  10.075 -0.0095 -0.6804  2.0343
 7932TIP3    H247992   4.755   6.102  10.032  2.3295 -2.2520  2.0243
 7933TIP3   OH247993   5.328   4.410  11.931 -0.7783  0.0365 -0.1043
 7933TIP3    H147994   5.344   4.499  11.963 -2.0628  0.1766  0.2056
 7933TIP3    H247995   5.250   4.381  11.978 -0.9336 -0.8984 -0.8953
 7934TIP3   OH247996   4.268   2.894  10.412  0.1132  0.2154  0.1386
 7934TIP3    H147997   4.221   2.889  10.329  0.6272  1.0765 -0.2215
 7934TIP3    H247998   4.336   2.826  10.405  1.6733  1.8078 -1.1668
 7935TIP3   OH247999   3.656   2.814   9.863 -0.4534  0.1748  0.0407
 7935TIP3    H148000   3.649   2.834   9.956 -1.0243 -2.4076  0.6105
 7935TIP3    H248001   3.588   2.749   9.847 -0.3207  0.5097 -2.1846
 7936TIP3   OH248002   0.939   5.864  10.972  0.5358  0.5476  0.1305
 7936TIP3    H148003   1.007   5.931  10.970 -0.1930  1.2948 -0.2080
 7936TIP3    H248004   0.862   5.906  10.933 -0.3240 -0.0530  1.1053
 7937TIP3   OH248005   6.304   6.477  10.055 -0.5831 -0.2199  0.5595
 7937TIP3    H148006   6.232   6.414  10.051 -0.4857 -0.4504  1.7892
 7937TIP3    H248007   6.264   6.557  10.089 -0.0628 -0.7750  2.6859
 7938TIP3   OH248008   3.065   4.582  10.572 -1.3856  0.3187 -0.0372
 7938TIP3    H148009   2.983   4.624  10.598 -1.2497  0.9743 -0.6406
 7938TIP3    H248010   3.050   4.556  10.481 -2.1165 -2.5913  0.8029
 7939TIP3   OH248011   4.969   6.378  11.663  0.3373  0.2544 -0.3620
 7939TIP3    H148012   4.877   6.375  11.691  0.7929 -0.8904  1.1472
 7939TIP3    H248013   4.984   6.469  11.637 -0.7612  0.8607  1.0163
 7940TIP3   OH248014   2.251   0.743  10.582  0.0864 -0.4709 -0.3898
 7940TIP3    H148015   2.199   0.752  10.502  2.5391 -0.2566 -2.0920
 7940TIP3    H248016   2.338   0.777  10.557  1.3509 -1.7935  1.9304
 7941TIP3   OH248017   1.534   2.715   9.539 -0.3766 -0.6273 -0.4051
 7941TIP3    H148018   1.530   2.634   9.590  3.3491 -0.6799  0.0680
 7941TIP3    H248019   1.555   2.686   9.450  2.4763 -0.2613  0.0595
 7942TIP3   OH248020   4.846   0.337  10.466  0.2276 -0.2153 -0.6000
 7942TIP3    H148021   4.793   0.402  10.512 -1.1727 -0.6270 -1.5692
 7942TIP3    H248022   4.905   0.388  10.412  1.0293  0.2559  0.6736
 7943TIP3   OH248023   1.240   4.810  12.061  0.6114 -0.6424 -0.7880
 7943TIP3    H148024   1.324   4.793  12.020 -0.1322 -2.1945 -1.7256
 7943TIP3    H248025   1.176   4.763  12.008 -0.6890 -0.6746  0.7215
 7944TIP3   OH248026   3.171   2.371  10.790  0.3127  0.5034  0.5698
 7944TIP3    H148027   3.089   2.399  10.749  0.3721 -1.3639 -0.9692
 7944TIP3    H248028   3.223   2.451  10.796 -0.2944  1.1620 -1.7040
 7945TIP3   OH248029   1.939   0.434  10.895 -0.3592 -0.4668 -0.0568
 7945TIP3    H148030   2.005   0.392  10.951 -0.5447 -0.6172  0.0531
 7945TIP3    H248031   1.937   0.525  10.924  1.4232  0.1144 -1.5744
 7946TIP3   OH248032   3.838   2.072  11.806 -0.2982  0.1937 -0.5768
 7946TIP3    H148033   3.908   2.101  11.748  0.0283 -0.3664 -0.4710
 7946TIP3    H248034   3.882   2.027  11.878 -0.7823 -0.8442 -0.9000
 7947TIP3   OH248035   5.548   2.448  10.585  0.0309 -0.7278  0.2968
 7947TIP3    H148036   5.582   2.418  10.501  0.4236 -0.9353  0.5289
 7947TIP3    H248037   5.494   2.524  10.563  0.3763 -0.5960 -0.1093
 7948TIP3   OH248038   0.334   4.569  10.478 -0.5921 -0.4752 -0.0255
 7948TIP3    H148039   0.258   4.550  10.532 -0.5053 -0.9072 -0.0494
 7948TIP3    H248040   0.409   4.546  10.533 -0.4132  1.3557  0.5532
 7949TIP3   OH248041   2.147   5.965  12.315  0.4345  0.3133 -0.1516
 7949TIP3    H148042   2.078   5.898  12.317  1.2848 -0.5815  2.1521
 7949TIP3    H248043   2.125   6.024  12.387  1.9954  0.0687  0.5598
 7950TIP3   OH248044   5.156   6.056  10.809  0.1216  0.6160 -0.4119
 7950TIP3    H148045   5.153   6.151  10.798 -0.9988  0.5856 -0.5162
 7950TIP3    H248046   5.064   6.030  10.811  0.3612 -0.2487  1.4612
 7951TIP3   OH248047   2.674   5.984   9.622  0.1474 -0.2913  0.5703
 7951TIP3    H148048   2.692   5.982   9.528  0.7024  0.7843  0.6446
 7951TIP3    H248049   2.706   5.900   9.654  2.0752  0.2264  0.1523
 7952TIP3   OH248050   3.883   4.999  12.136  0.4599  0.3002  0.3055
 7952TIP3    H148051   3.881   5.086  12.097  0.0524 -0.4723 -1.4577
 7952TIP3    H248052   3.817   4.949  12.089  2.3608 -1.6749 -0.4448
 7953TIP3   OH248053   2.938   0.390   9.623 -0.1911 -0.7322 -0.3222
 7953TIP3    H148054   2.986   0.433   9.551  0.4641 -3.2140 -1.4872
 7953TIP3    H248055   3.001   0.388   9.695 -0.1890  0.1234 -0.2902
 7954TIP3   OH248056   5.760   1.861   9.375  0.3074 -0.1541  0.5582
 7954TIP3    H148057   5.675   1.826   9.403  0.6909 -3.0341 -1.4042
 7954TIP3    H248058   5.823   1.820   9.434  0.4584  1.1173  1.3106
 7955TIP3   OH248059   2.663   3.229  10.892 -0.8895 -0.0112  0.1727
 7955TIP3    H148060   2.577   3.189  10.885  0.8773 -4.0765 -1.9230
 7955TIP3    H248061   2.708   3.177  10.959  0.7835  0.0375 -0.8609
 7956TIP3   OH248062   6.456   0.551  11.478 -0.3955  0.3577 -0.7572
 7956TIP3    H148063   6.379   0.598  11.511 -1.1821 -0.2445 -1.6619
 7956TIP3    H248064   6.530   0.597  11.516 -1.1955  1.0245  0.0628
 7957TIP3   OH248065   1.559   3.427  11.420  0.4167  1.2523  0.6887
 7957TIP3    H148066   1.606   3.486  11.479 -0.3527  0.2449  2.3842
 7957TIP3    H248067   1.578   3.340  11.454 -1.4455  0.7433  0.5096
 7958TIP3   OH248068   1.052   0.710  11.760 -0.5492  0.1524 -1.3428
 7958TIP3    H148069   1.015   0.778  11.816  2.0223  0.2317  0.4563
 7958TIP3    H248070   1.050   0.631  11.814  2.2213  0.2803 -0.9272
 7959TIP3   OH248071   2.029   4.160  10.657  0.4886 -0.4697  0.0469
 7959TIP3    H148072   2.029   4.199  10.569  0.9287 -1.3833 -0.3727
 7959TIP3    H248073   2.121   4.141  10.674  0.1839 -2.5121 -0.3226
 7960TIP3   OH248074   0.246   3.254  11.390  0.1289  0.0717  0.3907
 7960TIP3    H148075   0.325   3.307  11.404  0.1216 -0.1014  1.1002
 7960TIP3    H248076   0.207   3.245  11.477 -1.2779  1.0788 -0.0978
 7961TIP3   OH248077   1.475   5.775  10.198  0.0788 -0.3256  0.0918
 7961TIP3    H148078   1.507   5.831  10.128  2.8636 -1.1185  0.5834
 7961TIP3    H248079   1.381   5.791  10.202  0.0993  0.9670 -2.6743
 7962TIP3   OH248080   6.151   3.475  11.063 -0.1705  0.1162  0.4420
 7962TIP3    H148081   6.175   3.480  11.155  3.7182  1.4280 -0.4333
 7962TIP3    H248082   6.232   3.493  11.016 -2.3611  1.6167 -3.2631
 7963TIP3   OH248083   2.084   3.442   9.785 -0.1899 -0.2673  0.0728
 7963TIP3    H148084   2.024   3.392   9.840 -0.5885  1.2043  1.0305
 7963TIP3    H248085   2.036   3.457   9.704 -0.2961 -0.8973  0.0158
 7964TIP3   OH248086   4.260   5.716  10.535  0.1470 -0.0028  0.2212
 7964TIP3    H148087   4.276   5.679  10.448 -1.0617 -0.1316  0.0283
 7964TIP3    H248088   4.320   5.790  10.541 -1.2137  1.3647 -1.6088
 7965TIP3   OH248089   1.231   3.586   9.534 -0.2845  0.4576 -0.3467
 7965TIP3    H148090   1.253   3.545   9.618 -1.7442 -1.5580 -0.8907
 7965TIP3    H248091   1.316   3.612   9.497  0.4424  0.6082  1.3342
 7966TIP3   OH248092   2.265   4.032  10.689 -0.4446 -0.0646  0.0279
 7966TIP3    H148093   2.324   4.032  10.765 -0.1309  1.9319 -0.1845
 7966TIP3    H248094   2.323   4.022  10.614 -0.7559 -2.0221 -0.0130
 7967TIP3   OH248095   0.942   3.516  11.547  0.2443  0.2416  0.5007
 7967TIP3    H148096   0.984   3.525  11.462 -2.6393  0.8396 -1.0081
 7967TIP3    H248097   0.901   3.430  11.545  2.3648 -0.9202  2.4762
 7968TIP3   OH248098   3.392   0.639   9.568  0.2484 -0.2954  0.3992
 7968TIP3    H148099   3.484   0.647   9.544 -0.0776 -0.1462 -0.8633
 7968TIP3    H248100   3.355   0.726   9.552 -0.4001 -0.7139 -0.4331
 7969TIP3   OH248101   1.402   5.383  10.905 -0.5682 -0.1389  0.1516
 7969TIP3    H148102   1.379   5.291  10.903 -0.2208 -0.2231 -1.4040
 7969TIP3    H248103   1.351   5.422  10.834 -0.0916  0.7057  0.2612
 7970TIP3   OH248104   5.968   0.724  11.668 -0.6862 -0.4008 -0.0153
 7970TIP3    H148105   5.911   0.799  11.681 -1.7716 -0.9852 -1.1783
 7970TIP3    H248106   6.029   0.726  11.742  0.1590  2.3484 -0.6869
 7971TIP3   OH248107   6.423   6.159   9.601  0.0899 -0.2660 -0.1162
 7971TIP3    H148108   6.466   6.237   9.635  0.3182 -1.2072  1.9023
 7971TIP3    H248109   6.483   6.088   9.622 -1.1849 -1.2714  0.2440
 7972TIP3   OH248110   1.682   1.521   9.733 -0.3159 -0.2844 -0.4425
 7972TIP3    H148111   1.591   1.510   9.761 -0.4735  0.2904 -0.7006
 7972TIP3    H248112   1.717   1.586   9.793  0.3629 -1.5364  0.5682
 7973TIP3   OH248113   6.696   4.186  10.595  0.3217 -0.1778 -0.8864
 7973TIP3    H148114   6.735   4.098  10.588  1.5349  0.0038  2.0831
 7973TIP3    H248115   6.755   4.242  10.544  0.4244 -0.8299 -1.5064
 7974TIP3   OH248116   4.247   6.570  11.382  0.1796  0.0156  0.4768
 7974TIP3    H148117   4.193   6.643  11.413 -0.9693  0.3651 -2.0962
 7974TIP3    H248118   4.260   6.515  11.459 -0.5200  1.9529  2.0634
 7975TIP3   OH248119   6.166   4.090  11.009 -0.2168  0.3780  0.4103
 7975TIP3    H148120   6.102   4.146  10.966 -0.6469 -0.1628  0.3311
 7975TIP3    H248121   6.173   4.013  10.952 -2.9533 -1.7400  2.6430
 7976TIP3   OH248122   0.100   6.441   9.682  0.1072 -0.0480 -0.3094
 7976TIP3    H148123   0.073   6.484   9.602  1.4315  0.1681 -0.6593
 7976TIP3    H248124   0.191   6.414   9.666  0.1221 -0.7344  0.8052
 7977TIP3   OH248125   4.511   3.590  12.013 -0.4775  0.1465 -0.1003
 7977TIP3    H148126   4.420   3.578  11.987 -0.9075  0.5322  1.1517
 7977TIP3    H248127   4.519   3.684  12.031  0.3834  0.2483 -0.9410
 7978TIP3   OH248128   3.074   4.348  10.691 -0.1541  0.1940  0.0414
 7978TIP3    H148129   3.061   4.440  10.667 -0.6103  0.4882  1.3372
 7978TIP3    H248130   2.986   4.314  10.705 -0.0484 -0.6972 -1.2166
 7979TIP3   OH248131   1.826   4.826   9.708  0.3468  0.0770 -0.3567
 7979TIP3    H148132   1.808   4.850   9.617  1.4781  1.9295 -0.1352
 7979TIP3    H248133   1.872   4.901   9.744  1.1810 -1.1929  1.3569
 7980TIP3   OH248134   6.655   4.616  11.985 -0.4305 -0.0602 -0.1621
 7980TIP3    H148135   6.561   4.605  11.997  0.0368 -1.8769  2.5642
 7980TIP3    H248136   6.677   4.693  12.039 -0.1308 -0.6842  0.6237
 7981TIP3   OH248137   4.664   4.517  12.124 -0.1121 -0.3307  0.5637
 7981TIP3    H148138   4.671   4.514  12.029  1.2649 -0.1588  0.6328
 7981TIP3    H248139   4.633   4.606  12.144  1.8469  0.4581  0.3386
 7982TIP3   OH248140   5.607   6.585  10.207  0.5660 -0.1653 -0.1709
 7982TIP3    H148141   5.527   6.621  10.169  0.5003 -0.7948 -0.6425
 7982TIP3    H248142   5.663   6.661  10.220 -0.5962  0.4759  1.4351
 7983TIP3   OH248143   4.829   0.402  11.194 -0.6676 -0.1058 -0.1418
 7983TIP3    H148144   4.817   0.389  11.100 -0.7861 -0.6035 -0.0602
 7983TIP3    H248145   4.906   0.349  11.215 -0.8836 -0.3195  0.1146
 7984TIP3   OH248146   5.308   4.750   9.843  0.1855 -0.0606 -0.0400
 7984TIP3    H148147   5.298   4.687   9.915  1.5294 -0.7951 -0.4700
 7984TIP3    H248148   5.286   4.835   9.883  0.4650 -0.5138  1.1154
 7985TIP3   OH248149   1.319   3.535  10.262 -0.5595 -0.3501  0.5918
 7985TIP3    H148150   1.334   3.537  10.356  1.3568  1.0519  0.3297
 7985TIP3    H248151   1.400   3.498  10.226 -0.8931 -0.0163 -0.5436
 7986TIP3   OH248152   5.040   2.659   9.393 -0.3746  0.4373  0.2480
 7986TIP3    H148153   5.122   2.615   9.413 -0.3623  1.3189  2.3459
 7986TIP3    H248154   4.974   2.589   9.390  0.3611 -0.2371 -1.1839
 7987TIP3   OH248155   2.639   3.285  12.235 -0.2602  0.0584  0.0166
 7987TIP3    H148156   2.548   3.308  12.247 -0.3492 -0.3871  0.2186
 7987TIP3    H248157   2.688   3.350  12.285 -0.5429 -0.6535  1.2813
 7988TIP3   OH248158   0.412   3.724  10.899 -0.2044  0.2531 -0.3691
 7988TIP3    H148159   0.382   3.645  10.944 -1.7632  0.2101 -1.4194
 7988TIP3    H248160   0.384   3.796  10.956  0.5739  0.0992  0.2270
 7989TIP3   OH248161   1.811   3.534  10.911 -0.3692  0.0583 -0.0071
 7989TIP3    H148162   1.840   3.444  10.901  0.7411  0.4657 -0.5845
 7989TIP3    H248163   1.789   3.542  11.004  0.1577 -0.6128  0.1795
 7990TIP3   OH248164   4.995   2.417   9.715  0.4287  0.0779 -0.0327
 7990TIP3    H148165   4.997   2.330   9.754  0.6599  0.5216  0.9915
 7990TIP3    H248166   4.903   2.430   9.692  0.4503 -0.5622 -0.5143
 7991TIP3   OH248167   2.084   4.894  12.318  0.1001  0.1109  0.1210
 7991TIP3    H148168   2.156   4.911  12.379  0.0610  0.6520  0.0245
 7991TIP3    H248169   2.126   4.881  12.233  0.1313 -0.3000  0.1980
 7992TIP3   OH248170   6.173   4.963  11.795 -0.1303 -0.5404 -0.6240
 7992TIP3    H148171   6.224   4.930  11.721  1.1019  1.1233 -0.5748
 7992TIP3    H248172   6.218   4.929  11.873 -0.6106 -1.1480 -0.6025
 7993TIP3   OH248173   2.610   6.727   9.852  0.3562  0.1161  0.1028
 7993TIP3    H148174   2.556   6.704   9.927 -0.1402  1.1382  0.0745
 7993TIP3    H248175   2.700   6.716   9.882  0.1523 -0.4091  0.5361
 7994TIP3   OH248176   1.821   3.149  11.676  0.1726 -0.5386  0.3490
 7994TIP3    H148177   1.882   3.087  11.637 -1.9442 -0.9042 -2.6864
 7994TIP3    H248178   1.874   3.228  11.691  1.6439 -1.1915 -1.0861
 7995TIP3   OH248179   2.692   4.909  10.520  0.4276  0.1099 -0.3533
 7995TIP3    H148180   2.773   4.960  10.525 -0.4148  1.4040  1.1648
 7995TIP3    H248181   2.654   4.934  10.436  1.3441 -0.1577 -0.8715
 7996TIP3   OH248182   0.623   5.598  10.287  0.3514 -0.4090  0.5548
 7996TIP3    H148183   0.716   5.604  10.266 -0.2185  0.6673 -1.9360
 7996TIP3    H248184   0.590   5.688  10.281 -0.9522 -0.8231  0.9845
 7997TIP3   OH248185   5.933   2.716   9.205 -0.1676 -0.2213 -0.0454
 7997TIP3    H148186   5.971   2.688   9.122 -2.1097  0.4723 -1.2474
 7997TIP3    H248187   5.961   2.807   9.214  0.2710 -0.3791  0.2163
 7998TIP3   OH248188   6.207   4.353  12.503 -0.3527  0.5044 -0.5391
 7998TIP3    H148189   6.297   4.382  12.513 -0.1258  0.4716 -2.1693
 7998TIP3    H248190   6.169   4.360  12.591  1.2658  0.3596  0.2073
 7999TIP3   OH248191   5.091   5.609  10.682 -0.2827  0.4080  0.1127
 7999TIP3    H148192   5.048   5.664  10.748 -2.0927 -0.8170  0.0049
 7999TIP3    H248193   5.162   5.664  10.649 -1.6266  2.4649  0.4405
 8000TIP3   OH248194   5.690   2.542  10.887  0.1279 -0.1169 -0.2115
 8000TIP3    H148195   5.652   2.488  10.818  0.2223  0.2585 -0.5649
 8000TIP3    H248196   5.735   2.480  10.944 -1.5254 -0.6538  0.5792
 8001TIP3   OH248197   3.710   3.809  10.240  0.4717 -0.0553  0.5165
 8001TIP3    H148198   3.716   3.850  10.326  1.0376 -0.4210  0.6594
 8001TIP3    H248199   3.629   3.757  10.245  0.6112 -0.2436  0.9051
 8002TIP3   OH248200   2.935   3.930   9.783 -0.4949  0.0116  0.3958
 8002TIP3    H148201   3.024   3.897   9.799  0.6892  2.5969 -0.1797
 8002TIP3    H248202   2.903   3.879   9.709  1.7606  0.9323 -1.3373
 8003TIP3   OH248203   1.323   2.541  10.259  1.1626  0.7025  0.4953
 8003TIP3    H148204   1.406   2.500  10.236  0.9745  0.8200 -0.4144
 8003TIP3    H248205   1.263   2.468  10.273  1.2541  0.6304  0.5102
 8004TIP3   OH248206   3.631   1.531  12.459 -0.1717  0.3899  0.7477
 8004TIP3    H148207   3.701   1.583  12.421 -0.4560 -0.4787 -1.0697
 8004TIP3    H248208   3.676   1.464  12.511  0.2863  0.6851  0.7363
 8005TIP3   OH248209   3.575   4.661  10.815  0.0908 -0.2565  0.0603
 8005TIP3    H148210   3.515   4.626  10.881  1.0611 -0.8865  0.6535
 8005TIP3    H248211   3.588   4.753  10.841 -1.6850  0.3018 -0.9092
 8006TIP3   OH248212   3.236   4.158  10.812  0.2334  0.0755  0.1807
 8006TIP3    H148213   3.188   4.092  10.863  1.3842 -0.5931  0.4461
 8006TIP3    H248214   3.168   4.207  10.766 -0.6836 -1.0735  0.2527
 8007TIP3   OH248215   0.565   6.675  10.269  0.6579 -0.2413  0.4405
 8007TIP3    H148216   0.485   6.625  10.254 -0.5781  1.5169  0.8736
 8007TIP3    H248217   0.586   6.713  10.184  0.5653 -0.0491  0.5031
 8008TIP3   OH248218   4.174   1.715  11.148  0.2468 -0.1142 -0.3593
 8008TIP3    H148219   4.252   1.724  11.093  0.9854  0.2199  0.7153
 8008TIP3    H248220   4.200   1.749  11.233 -0.6623 -1.2642  0.4171
 8009TIP3   OH248221   1.449   2.163  11.746  0.2733 -0.0742 -0.2831
 8009TIP3    H148222   1.513   2.211  11.693 -1.5909  0.5602 -2.0998
 8009TIP3    H248223   1.398   2.231  11.789 -0.4599 -0.4942 -0.4702
 8010TIP3   OH248224   1.749   3.653   9.416 -0.7963 -0.1658 -0.0284
 8010TIP3    H148225   1.746   3.700   9.499 -1.1276 -2.1708  1.1714
 8010TIP3    H248226   1.753   3.560   9.441 -2.7766 -0.9532 -2.2316
 8011TIP3   OH248227   0.849   6.312  10.451 -0.1607  0.2892  0.8653
 8011TIP3    H148228   0.772   6.345  10.405  0.0476  0.2822  0.5078
 8011TIP3    H248229   0.866   6.377  10.519 -1.1093 -0.2316  1.6432
 8012TIP3   OH248230   1.070   6.685  10.246  0.2798  0.7855 -0.3825
 8012TIP3    H148231   1.132   6.712  10.314 -0.3573 -0.9251  0.9637
 8012TIP3    H248232   0.987   6.727  10.271 -0.9978 -2.7609  2.3289
 8013TIP3   OH248233   2.721   4.084  11.401  0.0779 -0.0479  0.1515
 8013TIP3    H148234   2.668   4.125  11.470 -1.8079 -1.0900 -0.6102
 8013TIP3    H248235   2.657   4.053  11.336  1.4195 -3.2643  0.1717
 8014TIP3   OH248236   0.281   1.695  10.684 -0.3416 -0.7316 -0.4483
 8014TIP3    H148237   0.292   1.667  10.775 -0.6067 -0.6891 -0.4037
 8014TIP3    H248238   0.365   1.736  10.663 -0.4739 -0.2423 -0.0439
 8015TIP3   OH248239   6.231   4.964  12.864 -0.4838  0.4759  0.0205
 8015TIP3    H148240   6.271   5.045  12.830  1.7694  0.2391  1.8308
 8015TIP3    H248241   6.280   4.894  12.821 -1.2191  0.0946 -0.1988
 8016TIP3   OH248242   5.659   2.490  11.572  0.2079 -0.4129  0.1452
 8016TIP3    H148243   5.688   2.438  11.497  2.1390  0.0977  0.4749
 8016TIP3    H248244   5.594   2.551  11.535 -0.8168 -1.8721 -0.5605
 8017TIP3   OH248245   3.669   5.358   9.155 -0.0115  0.0140  0.4331
 8017TIP3    H148246   3.599   5.325   9.099 -0.4693  1.3923  0.1684
 8017TIP3    H248247   3.648   5.450   9.169  1.6931  0.4422  0.4188
 8018TIP3   OH248248   3.920   2.254  12.066 -0.4394 -0.4330 -0.6349
 8018TIP3    H148249   3.905   2.336  12.113  3.5519  0.6035 -0.7426
 8018TIP3    H248250   3.938   2.190  12.134 -0.3836 -0.4053 -0.6237
 8019TIP3   OH248251   3.744   0.003   9.511 -0.3113  0.2436  0.4593
 8019TIP3    H148252   3.658  -0.036   9.525 -1.1494  1.8451 -0.0869
 8019TIP3    H248253   3.798  -0.070   9.480 -1.3239 -0.8916  1.2914
 8020TIP3   OH248254   0.106   3.753  12.160 -0.2130  0.5956 -0.1537
 8020TIP3    H148255   0.137   3.790  12.243 -1.1654 -0.2379  0.6097
 8020TIP3    H248256   0.170   3.685  12.139 -1.0816 -0.6648  1.0641
 8021TIP3   OH248257   3.440   1.614  11.408  0.0403  0.1372 -0.0020
 8021TIP3    H148258   3.530   1.584  11.424 -0.5482 -2.2971 -0.8464
 8021TIP3    H248259   3.401   1.544  11.356 -2.5481  0.8240  0.8960
 8022TIP3   OH248260   5.293   0.272  11.298  0.3120  0.1498 -0.0728
 8022TIP3    H148261   5.373   0.255  11.347 -0.1802 -0.9842  0.3897
 8022TIP3    H248262   5.253   0.347  11.341  1.0767  0.6778 -0.2618
 8023TIP3   OH248263   5.442   2.360   9.902 -0.3240 -0.5176 -0.2916
 8023TIP3    H148264   5.422   2.343   9.810 -0.9497 -0.7516 -0.1179
 8023TIP3    H248265   5.378   2.426   9.929  0.9634  0.8782 -0.4822
 8024TIP3   OH248266   5.192   2.332  12.613 -0.2231  0.3106 -0.2615
 8024TIP3    H148267   5.129   2.260  12.607 -0.1452  0.2643 -0.5828
 8024TIP3    H248268   5.146   2.407  12.574 -0.0240  0.2369 -0.6396
 8025TIP3   OH248269   6.284   0.093  10.428 -0.5585  0.4371 -0.4432
 8025TIP3    H148270   6.223   0.164  10.442  0.2683  1.0309  0.2572
 8025TIP3    H248271   6.290   0.049  10.513  0.5666  0.8649 -0.2903
 8026TIP3   OH248272   2.194   4.420  11.310 -0.1870 -0.2369  0.6199
 8026TIP3    H148273   2.099   4.431  11.298  0.1019  0.3772 -1.5762
 8026TIP3    H248274   2.226   4.508  11.330 -0.1598 -0.6189  2.4427
 8027TIP3   OH248275   6.520   6.126  12.071  0.0476  0.4529 -0.2469
 8027TIP3    H148276   6.456   6.132  12.000  0.0520  0.9778 -0.2090
 8027TIP3    H248277   6.597   6.086  12.031 -0.6671 -1.2309 -0.0384
 8028TIP3   OH248278   3.396   4.832  12.209  0.0857 -0.0343  0.0118
 8028TIP3    H148279   3.403   4.776  12.286 -0.4796  0.2662  0.2922
 8028TIP3    H248280   3.384   4.772  12.136 -0.3582 -0.2922  0.2918
 8029TIP3   OH248281   2.811   6.487  12.686  0.0253 -0.2624 -0.1320
 8029TIP3    H148282   2.792   6.557  12.748 -1.4584 -0.4024 -0.3967
 8029TIP3    H248283   2.793   6.525  12.600  1.7939 -0.1554 -0.4811
 8030TIP3   OH248284   2.324   5.495   9.360 -0.0004  0.4966  0.2553
 8030TIP3    H148285   2.388   5.486   9.431 -1.0026  3.1250  1.6038
 8030TIP3    H248286   2.349   5.575   9.314 -0.9963  0.3331 -0.6201
 8031TIP3   OH248287   1.985   3.664  11.187 -0.0241  0.3601 -0.5733
 8031TIP3    H148288   1.951   3.754  11.190  1.0994  0.8066 -0.7301
 8031TIP3    H248289   1.907   3.609  11.193 -0.7202  1.3436 -0.3142
 8032TIP3   OH248290   3.075   5.800  10.441 -0.4097 -0.0771  0.9958
 8032TIP3    H148291   2.991   5.814  10.397  1.0249 -1.4012 -2.5042
 8032TIP3    H248292   3.073   5.708  10.468 -0.6751  0.3318  2.4640
 8033TIP3   OH248293   1.190   2.307  10.290  0.3611 -0.4346 -0.1251
 8033TIP3    H148294   1.204   2.221  10.251  1.4155 -0.5625  0.4814
 8033TIP3    H248295   1.194   2.292  10.385  0.7132  0.2946 -0.0102
 8034TIP3   OH248296   4.943   1.086  12.419  0.2768 -0.5628 -0.4083
 8034TIP3    H148297   4.861   1.088  12.370 -0.2299  1.1625  0.4263
 8034TIP3    H248298   5.011   1.097  12.351 -0.3178  0.2270 -0.8934
 8035TIP3   OH248299   2.215   5.586  11.809  0.2823 -0.0201 -0.2235
 8035TIP3    H148300   2.246   5.520  11.871 -0.4161  0.4572  0.6670
 8035TIP3    H248301   2.279   5.658  11.816 -0.3560  0.4817  0.7629
 8036TIP3   OH248302   1.311   3.341  10.996  0.0648 -0.0612 -0.0665
 8036TIP3    H148303   1.217   3.353  11.009 -0.1639 -2.3192  0.7546
 8036TIP3    H248304   1.318   3.261  10.944  1.4874  1.6212 -2.6638
 8037TIP3   OH248305   4.446   4.894  11.598 -0.3870 -0.3893  0.1545
 8037TIP3    H148306   4.528   4.939  11.576 -1.1158  1.6897  1.4031
 8037TIP3    H248307   4.396   4.894  11.517  0.4008 -0.7111 -0.3470
 8038TIP3   OH248308   1.254   5.654  11.193  0.2975  0.4003  0.3377
 8038TIP3    H148309   1.170   5.630  11.153  1.0471 -0.5630 -0.6978
 8038TIP3    H248310   1.230   5.716  11.263 -1.1361  1.3085 -0.8963
 8039TIP3   OH248311   4.159   3.646  10.498  0.3509 -0.0397  0.5764
 8039TIP3    H148312   4.224   3.616  10.560  1.6768 -0.0956 -0.7798
 8039TIP3    H248313   4.097   3.697  10.550 -0.7308 -3.1187  2.5826
 8040TIP3   OH248314   1.379   3.882  12.118  0.1432 -0.2663  0.4802
 8040TIP3    H148315   1.287   3.903  12.136 -0.2435 -0.6542 -0.9549
 8040TIP3    H248316   1.381   3.788  12.105  0.7686 -0.2789  0.6116
 8041TIP3   OH248317   2.243   6.546   9.894 -0.2783  0.3398  0.0661
 8041TIP3    H148318   2.297   6.487   9.842 -2.8134 -0.8971 -1.3559
 8041TIP3    H248319   2.292   6.628   9.896  0.8300 -0.1415 -2.7256
 8042TIP3   OH248320   5.886   4.361  12.470 -0.0428 -0.7946  0.0223
 8042TIP3    H148321   5.941   4.440  12.469  0.1654 -0.9188  0.9654
 8042TIP3    H248322   5.903   4.319  12.385 -1.0572  0.7672 -1.0087
 8043TIP3   OH248323   1.881   4.567   9.627  0.0099  0.6562 -0.1839
 8043TIP3    H148324   1.974   4.547   9.628  0.1605  1.2571 -1.0727
 8043TIP3    H248325   1.875   4.655   9.663 -0.2320  0.5710 -0.0123
 8044TIP3   OH248326   1.755   3.819  12.418  0.0631 -0.1832 -0.3421
 8044TIP3    H148327   1.729   3.855  12.334 -2.4004 -0.4852  0.1993
 8044TIP3    H248328   1.750   3.724  12.406  0.7007 -0.2466 -0.1323
 8045TIP3   OH248329   3.531   5.086  11.803  0.0922  0.1231  0.8963
 8045TIP3    H148330   3.608   5.087  11.861  0.9452  1.2205 -0.2201
 8045TIP3    H248331   3.510   4.993  11.793  1.1388 -0.1768  1.3860
 8046TIP3   OH248332   5.438   1.087   9.498 -0.3366  0.4296  0.2561
 8046TIP3    H148333   5.419   1.057   9.586  0.4673 -1.8583 -0.2795
 8046TIP3    H248334   5.507   1.153   9.509 -1.2511  1.2188  1.4038
 8047TIP3   OH248335   1.886   2.393  10.021  0.5237  0.4680  0.5608
 8047TIP3    H148336   1.839   2.451  10.081  2.6852  1.5148  1.3276
 8047TIP3    H248337   1.861   2.424   9.934  0.7064  1.7976  0.9586
 8048TIP3   OH248338   5.984   3.937  10.569 -0.0243  0.0519 -0.6297
 8048TIP3    H148339   5.931   3.920  10.648 -0.7338 -0.1061 -1.1316
 8048TIP3    H248340   6.000   4.031  10.571  1.2863 -0.1522  0.5163
 8049TIP3   OH248341   6.130   1.614   9.727 -0.7078  0.4169 -0.1959
 8049TIP3    H148342   6.220   1.647   9.723  0.0949 -1.5279  0.4223
 8049TIP3    H248343   6.135   1.539   9.787 -3.3511  1.9839  2.1729
 8050TIP3   OH248344   5.125   6.080   9.418 -0.1204  0.7974  0.0683
 8050TIP3    H148345   5.210   6.036   9.425 -0.6212 -0.3349 -0.6336
 8050TIP3    H248346   5.141   6.153   9.358 -0.2725 -1.2624 -2.6676
 8051TIP3   OH248347   0.124   3.187  10.555  0.1706  0.0145 -0.7131
 8051TIP3    H148348   0.117   3.174  10.649  0.0340 -0.7464 -0.8271
 8051TIP3    H248349   0.160   3.276  10.546  0.7720 -0.1424  0.0617
 8052TIP3   OH248350   2.600   6.501  11.255  0.3500  0.9430  0.0786
 8052TIP3    H148351   2.676   6.528  11.203  0.5895 -2.4083 -1.5868
 8052TIP3    H248352   2.526   6.506  11.195  0.0208  0.1962  0.4065
 8053TIP3   OH248353   5.670   3.326   9.650  0.5082  0.4491 -0.0655
 8053TIP3    H148354   5.746   3.268   9.642  0.8949  1.0854 -1.5672
 8053TIP3    H248355   5.604   3.275   9.696  1.0440 -0.9545 -0.8097
 8054TIP3   OH248356   3.275   2.222  11.314  0.1067 -0.5555  0.0980
 8054TIP3    H148357   3.253   2.308  11.350  1.9355  0.0869 -0.1882
 8054TIP3    H248358   3.298   2.240  11.223 -0.6746 -1.5617 -0.3104
 8055TIP3   OH248359   3.406   4.590  11.310  0.1241  0.1819  0.6470
 8055TIP3    H148360   3.405   4.621  11.220 -0.0183 -1.4548  0.0463
 8055TIP3    H248361   3.486   4.625  11.348  0.7760 -0.0607 -0.4808
 8056TIP3   OH248362   6.101   2.266  10.668 -0.3666 -0.2350  0.6651
 8056TIP3    H148363   6.034   2.249  10.735 -1.7701  1.3590 -0.2535
 8056TIP3    H248364   6.155   2.336  10.706 -1.0775  0.5704  0.2389
 8057TIP3   OH248365   5.579   4.967   9.958  1.0060 -0.2991  0.0938
 8057TIP3    H148366   5.604   5.003  10.043  2.5507 -1.8021  0.3293
 8057TIP3    H248367   5.557   4.876   9.976 -2.0688  0.1929 -0.6057
 8058TIP3   OH248368   4.506   0.821  11.823 -0.6259  0.4389  0.2089
 8058TIP3    H148369   4.415   0.839  11.800 -0.8756  0.5230  1.2227
 8058TIP3    H248370   4.504   0.802  11.916 -0.0859 -2.9733 -0.3485
 8059TIP3   OH248371   3.729   2.564  10.333 -0.7545  0.3880 -0.6465
 8059TIP3    H148372   3.650   2.511  10.341 -0.3214 -0.5339 -2.0802
 8059TIP3    H248373   3.786   2.532  10.402 -0.6443 -0.7952 -1.2537
 8060TIP3   OH248374   0.590   4.624  11.484  0.2398  0.3330 -0.1193
 8060TIP3    H148375   0.623   4.690  11.423  0.3109  0.3972 -0.0121
 8060TIP3    H248376   0.663   4.563  11.494  0.1740  0.2389 -0.2184
 8061TIP3   OH248377   1.776   3.621  11.928 -0.6056 -0.6159  0.2133
 8061TIP3    H148378   1.824   3.540  11.910 -1.9279 -1.3933  0.0615
 8061TIP3    H248379   1.824   3.688  11.879  0.6353 -1.2582  0.5174
 8062TIP3   OH248380   4.575   6.399  10.409  0.3174 -0.3301  0.2564
 8062TIP3    H148381   4.498   6.456  10.403 -1.0788 -1.9034  1.7598
 8062TIP3    H248382   4.551   6.321  10.358  0.1634 -1.5165  2.0303
 8063TIP3   OH248383   6.166   5.872  11.564 -0.4783 -0.1377 -0.0249
 8063TIP3    H148384   6.242   5.880  11.505  1.6623 -0.0552  2.5695
 8063TIP3    H248385   6.165   5.780  11.590 -0.4071  0.1373  0.9974
 8064TIP3   OH248386   5.893   0.353  10.928  0.0028  0.0995 -0.6290
 8064TIP3    H148387   5.889   0.374  11.021  1.0889 -0.1232 -0.5149
 8064TIP3    H248388   5.901   0.437  10.884 -0.4357  0.2005 -0.5174
 8065TIP3   OH248389   6.584   6.103  10.063  0.0880 -0.4057 -0.3494
 8065TIP3    H148390   6.585   6.189  10.019  1.9325 -0.0414  0.2878
 8065TIP3    H248391   6.519   6.112  10.132  0.2860  0.5190 -0.2645
 8066TIP3   OH248392   3.783   2.856  11.291  0.2483 -0.1450 -0.1269
 8066TIP3    H148393   3.785   2.761  11.299  0.3865 -0.0960  0.4711
 8066TIP3    H248394   3.786   2.888  11.381  2.3761  0.4662 -0.3496
 8067TIP3   OH248395   1.262   0.231  11.039 -0.0850 -0.5927 -0.0977
 8067TIP3    H148396   1.311   0.307  11.070  1.3970 -1.4677 -0.1707
 8067TIP3    H248397   1.244   0.181  11.118  0.2226 -0.8714 -0.2009
 8068TIP3   OH248398   3.781   2.597   9.289  0.5312 -0.1437 -0.0674
 8068TIP3    H148399   3.862   2.546   9.281  0.1752 -1.2217  2.4426
 8068TIP3    H248400   3.712   2.532   9.284 -0.0306  0.3476  1.1349
 8069TIP3   OH248401   3.674   4.641  11.348  0.3432 -0.2314 -0.5484
 8069TIP3    H148402   3.716   4.598  11.422 -3.0419 -0.8944  1.1687
 8069TIP3    H248403   3.678   4.734  11.368 -0.1510 -0.3784  0.2758
 8070TIP3   OH248404   2.241   5.371  11.956 -0.6001  0.1413  0.1640
 8070TIP3    H148405   2.180   5.417  12.013 -0.2702  1.0002 -0.1514
 8070TIP3    H248406   2.191   5.297  11.920 -1.9348  1.6531 -1.2420
 8071TIP3   OH248407   0.612   5.649  10.630 -0.1949 -0.0061  0.3035
 8071TIP3    H148408   0.705   5.650  10.606 -0.0293  2.0972  0.8728
 8071TIP3    H248409   0.590   5.556  10.637  2.0929 -0.5488  1.0422
 8072TIP3   OH248410   6.089   6.122  10.264 -0.4438  0.1438  0.4050
 8072TIP3    H148411   6.145   6.111  10.187 -0.7968 -0.9658  0.2936
 8072TIP3    H248412   6.011   6.070  10.245 -0.5256 -0.1660  1.5219
 8073TIP3   OH248413   5.143   4.509   9.887 -0.1492  0.1282  0.1164
 8073TIP3    H148414   5.166   4.516   9.979  0.1485  1.9812 -0.0546
 8073TIP3    H248415   5.059   4.554   9.880 -2.0449 -3.1104  0.0417
 8074TIP3   OH248416   3.152   3.777   9.856 -0.0828  0.1991 -0.8236
 8074TIP3    H148417   3.142   3.703   9.916 -1.7599  0.5621 -0.6068
 8074TIP3    H248418   3.246   3.783   9.840  0.2586 -0.7926  0.6515
 8075TIP3   OH248419   1.976   6.244  10.573  0.0097 -0.3933 -0.1596
 8075TIP3    H148420   2.023   6.285  10.500 -1.9633  2.2327 -0.1115
 8075TIP3    H248421   2.015   6.282  10.651 -0.7964  0.2691 -0.0594
 8076TIP3   OH248422   2.113   0.313  11.779 -0.0177  0.1384  0.7109
 8076TIP3    H148423   2.110   0.393  11.831 -2.4708  0.4208  0.2463
 8076TIP3    H248424   2.022   0.292  11.761  0.6633 -0.6629 -2.4018
 8077TIP3   OH248425   5.788   5.199  10.526  0.1342 -0.4500 -0.2192
 8077TIP3    H148426   5.722   5.196  10.596 -0.2488  0.2272 -0.5426
 8077TIP3    H248427   5.766   5.278  10.476  0.8678 -0.5126 -0.6513
 8078TIP3   OH248428   4.595   0.251  11.493 -0.5249  0.0283  0.1564
 8078TIP3    H148429   4.533   0.203  11.547  1.6729  0.2993  3.1486
 8078TIP3    H248430   4.671   0.192  11.485 -0.0462  0.7585 -1.0872
 8079TIP3   OH248431   3.525   1.758  12.277  0.3086 -0.1500 -0.2472
 8079TIP3    H148432   3.493   1.756  12.187 -0.1740 -0.0572 -0.0825
 8079TIP3    H248433   3.451   1.729  12.329  0.5618 -0.1300  0.1275
 8080TIP3   OH248434   1.425   4.542  12.400 -0.0605 -0.0543 -0.6260
 8080TIP3    H148435   1.482   4.518  12.328  0.8302 -0.4707  0.1939
 8080TIP3    H248436   1.465   4.500  12.477 -1.0431  0.2833  0.0853
 8081TIP3   OH248437   0.229   5.311  11.722 -0.1546 -0.2794  0.1214
 8081TIP3    H148438   0.301   5.369  11.744  0.8582 -1.6173  0.5034
 8081TIP3    H248439   0.160   5.331  11.786 -0.2610  1.1918 -0.4112
 8082TIP3   OH248440   4.180   6.294  10.536  0.3118  0.0737  0.3872
 8082TIP3    H148441   4.109   6.314  10.597 -0.1393  2.3819 -0.7848
 8082TIP3    H248442   4.259   6.315  10.586 -0.0041  0.9198  0.5611
 8083TIP3   OH248443   4.026   0.294  10.963  0.2025 -0.8879 -0.0398
 8083TIP3    H148444   3.978   0.275  11.044 -0.6540 -2.1640 -0.8159
 8083TIP3    H248445   4.109   0.245  10.973 -0.7232 -2.6981 -0.7273
 8084TIP3   OH248446   5.161   2.361   9.972 -0.4666  0.3546  0.2045
 8084TIP3    H148447   5.087   2.414   9.944 -2.0832 -1.6281  0.4695
 8084TIP3    H248448   5.174   2.298   9.901  1.1093  0.7504  0.0943
 8085TIP3   OH248449   5.507   3.015  11.129  0.4542  0.2049 -0.2764
 8085TIP3    H148450   5.437   3.059  11.082  0.5556 -0.3269 -0.9415
 8085TIP3    H248451   5.467   2.936  11.164  0.7343 -0.1400 -0.7245
 8086TIP3   OH248452   4.746   1.149   9.651 -0.4900  0.1605  0.2225
 8086TIP3    H148453   4.719   1.065   9.614  0.1223  0.6271 -1.3757
 8086TIP3    H248454   4.710   1.149   9.740 -1.2710 -1.3922 -0.0594
 8087TIP3   OH248455   4.813   2.531   9.986  0.1013 -0.3074  0.4541
 8087TIP3    H148456   4.734   2.476   9.988  0.4663 -1.0211 -1.8230
 8087TIP3    H248457   4.795   2.597   9.920  1.3952 -0.4642 -0.0844
 8088TIP3   OH248458   1.065   2.418  12.552 -0.4954 -0.3121 -0.1166
 8088TIP3    H148459   1.050   2.328  12.581 -1.8272 -0.2799 -0.6132
 8088TIP3    H248460   1.110   2.460  12.625 -0.7570 -1.1213  0.5285
 8089TIP3   OH248461   2.426   3.447  11.687 -0.4749  0.5990  0.0966
 8089TIP3    H148462   2.440   3.477  11.776  3.0542  1.8571 -0.7248
 8089TIP3    H248463   2.460   3.517  11.632  0.9923 -1.6480 -2.1103
 8090TIP3   OH248464   5.095   0.066  10.854  0.1753 -0.1200  0.1323
 8090TIP3    H148465   5.019   0.038  10.905 -1.6972  0.8271 -1.9760
 8090TIP3    H248466   5.163   0.082  10.920 -1.8738  0.3887  2.2678
 8091TIP3   OH248467   6.278   4.423   9.807 -0.2933  0.0620  0.0589
 8091TIP3    H148468   6.236   4.414   9.722  0.9690  1.3829 -0.7507
 8091TIP3    H248469   6.250   4.509   9.839 -0.7691 -0.4255  1.0145
 8092TIP3   OH248470   2.214   5.104  10.784 -0.0458  0.2902  0.0258
 8092TIP3    H148471   2.196   5.012  10.765 -0.6385  0.3483  0.2802
 8092TIP3    H248472   2.211   5.147  10.698  3.0444 -0.3444 -0.5072
 8093TIP3   OH248473   6.017   5.835  11.008 -0.1404 -0.1775  0.1353
 8093TIP3    H148474   6.044   5.904  10.947  3.1514 -0.4348  1.0783
 8093TIP3    H248475   5.948   5.875  11.060 -0.8819  1.0888 -1.7111
 8094TIP3   OH248476   4.845   4.565   9.847 -0.0530 -0.0631  0.1239
 8094TIP3    H148477   4.843   4.509   9.770 -1.7317 -1.0100  0.7802
 8094TIP3    H248478   4.783   4.635   9.828  0.5508  0.4633  0.0821
 8095TIP3   OH248479   2.142   2.423  10.383  0.1466 -0.2120  0.1805
 8095TIP3    H148480   2.212   2.429  10.448  0.0016 -0.5640  0.3719
 8095TIP3    H248481   2.153   2.337  10.343 -0.2642 -0.3328  0.3179
 8096TIP3   OH248482   2.722   5.330  11.350 -0.2864  0.1418  0.4103
 8096TIP3    H148483   2.759   5.334  11.261 -2.4186  0.1359 -0.5243
 8096TIP3    H248484   2.779   5.269  11.397  0.4258 -0.4715 -1.1769
 8097TIP3   OH248485   4.411   0.213  10.397  0.3100 -0.0653  0.7621
 8097TIP3    H148486   4.337   0.271  10.380  1.7137  1.5095 -0.2590
 8097TIP3    H248487   4.444   0.190  10.310  1.3436 -0.2968  1.1975
 8098TIP3   OH248488   6.116   6.210   9.172  0.3723  0.7530 -0.2299
 8098TIP3    H148489   6.076   6.211   9.086 -0.1500  0.1672 -0.0034
 8098TIP3    H248490   6.070   6.140   9.219 -0.7577  2.3323  1.1799
 8099TIP3   OH248491   2.605   1.859  11.980 -0.1413 -0.6601 -0.7101
 8099TIP3    H148492   2.578   1.838  11.891 -0.9523 -1.2817 -0.3417
 8099TIP3    H248493   2.699   1.876  11.974 -0.2635 -0.2788 -1.7431
 8100TIP3   OH248494   5.184   0.239  10.346 -0.1819  0.1515  0.2741
 8100TIP3    H148495   5.111   0.178  10.332  0.1471  0.0236 -1.0228
 8100TIP3    H248496   5.184   0.255  10.440 -1.6368 -0.1611  0.3592
 8101TIP3   OH248497   1.001   5.597  11.095  0.2573 -0.0538  0.5755
 8101TIP3    H148498   1.010   5.683  11.052  2.6514 -0.2501  0.5159
 8101TIP3    H248499   0.911   5.595  11.126 -0.4218  1.7106 -1.0441
 8102TIP3   OH248500   6.487   3.987  12.050  0.0383 -0.4953 -0.6556
 8102TIP3    H148501   6.428   4.000  12.125 -0.5120  0.3973 -1.2257
 8102TIP3    H248502   6.548   4.061  12.055  2.6130 -2.5360  1.2239
 8103TIP3   OH248503   3.434   1.413  10.321  0.3817  0.3887 -0.2875
 8103TIP3    H148504   3.469   1.474  10.256 -1.7999  0.0298 -1.9009
 8103TIP3    H248505   3.432   1.329  10.275 -1.1854  0.1213  0.2070
 8104TIP3   OH248506   3.078   4.698  11.069  0.1304  0.9061  0.5580
 8104TIP3    H148507   3.089   4.691  11.164 -0.8449  0.8103  0.6672
 8104TIP3    H248508   3.024   4.623  11.045 -0.1886  1.3005  0.0178
 8105TIP3   OH248509   2.201   5.519  11.502 -0.2044 -0.1075  0.1365
 8105TIP3    H148510   2.203   5.534  11.596 -0.3545  0.9424 -0.0152
 8105TIP3    H248511   2.240   5.432  11.490 -3.4339 -1.9289  1.4799
 8106TIP3   OH248512   2.761   1.652  10.578 -0.3719  0.1103  0.4605
 8106TIP3    H148513   2.824   1.696  10.635 -0.4083 -1.3494  1.6978
 8106TIP3    H248514   2.714   1.723  10.535  2.6194  1.2712 -1.1667
 8107TIP3   OH248515   3.044   5.881  13.032 -0.3937 -0.6168  0.2498
 8107TIP3    H148516   3.050   5.975  13.017  0.0688 -0.8523 -1.1854
 8107TIP3    H248517   2.970   5.852  12.979 -0.9711 -0.9662  1.2291
 8108TIP3   OH248518   6.500   3.514  10.570 -0.1144  0.0542 -0.0344
 8108TIP3    H148519   6.516   3.498  10.477  1.4190  0.0316  0.2092
 8108TIP3    H248520   6.411   3.484  10.585 -0.9850  1.5477 -1.8352
 8109TIP3   OH248521   5.350   0.681  11.516 -0.2772 -0.0481 -0.1256
 8109TIP3    H148522   5.316   0.713  11.433  0.1881  1.3099  0.1823
 8109TIP3    H248523   5.431   0.729  11.529 -1.1960  1.1062  1.9281
 8110TIP3   OH248524   5.085   6.653  11.257  0.9993 -0.5525  0.4641
 8110TIP3    H148525   5.031   6.575  11.268  0.7299 -0.5905 -0.8971
 8110TIP3    H248526   5.172   6.618  11.237  0.4216 -0.6351 -2.4598
 8111TIP3   OH248527   0.350   5.258  11.482 -0.1725  0.2968  0.1152
 8111TIP3    H148528   0.279   5.208  11.442 -0.5043  1.3643 -0.6535
 8111TIP3    H248529   0.319   5.276  11.571 -0.5573  0.1704  0.0075
 8112TIP3   OH248530   6.739   3.813  11.690  0.3364  0.0543 -0.3125
 8112TIP3    H148531   6.830   3.829  11.664  0.5335  0.3724  0.5558
 8112TIP3    H248532   6.717   3.730  11.648  1.0871 -0.1115 -0.3918
 8113TIP3   OH248533   5.724   1.098   9.652 -0.1640 -0.0351 -0.5570
 8113TIP3    H148534   5.671   1.174   9.627  1.1884  1.0142 -0.2982
 8113TIP3    H248535   5.752   1.117   9.742  1.0397 -0.3364 -0.8533
 8114TIP3   OH248536   1.001   3.728   9.457 -0.0999 -0.1939  0.1726
 8114TIP3    H148537   1.091   3.697   9.467  0.9410  1.8980 -1.7746
 8114TIP3    H248538   1.001   3.814   9.498 -0.9883  0.1524 -0.5277
 8115TIP3   OH248539   1.759   1.773  11.540  0.1305 -0.4737  0.1785
 8115TIP3    H148540   1.846   1.784  11.580  0.4834 -1.6362 -0.2342
 8115TIP3    H248541   1.746   1.852  11.488  1.3582 -0.6921 -0.4974
 8116TIP3   OH248542   4.636   4.169  11.069  0.2296  0.1360  0.0129
 8116TIP3    H148543   4.542   4.179  11.085 -0.1573 -2.1167 -0.4722
 8116TIP3    H248544   4.649   4.075  11.060  2.3404  0.4640 -1.1488
 8117TIP3   OH248545   3.746   5.196  11.530 -0.0130  0.3289  0.1327
 8117TIP3    H148546   3.677   5.262  11.533  0.6911  1.0827  0.0223
 8117TIP3    H248547   3.756   5.176  11.436 -0.6720 -0.4254  0.2128
 8118TIP3   OH248548   0.069   4.865   9.395  0.1680  0.2960  0.1938
 8118TIP3    H148549   0.144   4.921   9.374 -0.9557  2.2439  1.0814
 8118TIP3    H248550   0.023   4.912   9.464 -1.6844 -1.0120 -0.0733
 8119TIP3   OH248551   4.684   1.402  10.419 -0.1440 -0.0091  1.0102
 8119TIP3    H148552   4.722   1.338  10.479  1.8028 -0.6476 -0.7536
 8119TIP3    H248553   4.741   1.479  10.426  0.4442 -0.2858 -0.3231
 8120TIP3   OH248554   1.478   0.729  10.257 -0.2364  0.4669 -0.0098
 8120TIP3    H148555   1.465   0.714  10.351 -1.5000  1.9498  0.1058
 8120TIP3    H248556   1.538   0.660  10.229  1.2482  0.8025  2.1514
 8121TIP3   OH248557   3.969   3.638  12.361  0.0087  0.5050  0.2518
 8121TIP3    H148558   4.053   3.677  12.386  1.0901 -1.7008  0.3036
 8121TIP3    H248559   3.982   3.544  12.373 -2.7660  0.1377  1.0892
 8122TIP3   OH248560   2.750   1.564  17.750 -0.2286  0.3580  0.2051
 8122TIP3    H148561   2.843   1.563  17.726 -0.0341  1.8056  0.8167
 8122TIP3    H248562   2.727   1.472  17.762  1.7364  0.0652  2.3587
 8123TIP3   OH248563   6.059   6.274   9.926 -0.0638 -0.0863 -0.0254
 8123TIP3    H148564   6.073   6.290   9.832 -0.4912 -2.0519 -0.4691
 8123TIP3    H248565   6.047   6.361   9.963 -0.3553  0.7232 -1.8820
 8124TIP3   OH248566   2.884   6.109  10.241 -0.2284 -0.3232 -0.3592
 8124TIP3    H148567   2.865   6.049  10.313  0.3081 -0.6497 -0.4922
 8124TIP3    H248568   2.979   6.110  10.234 -0.2155  0.6968 -0.2276
 8125TIP3   OH248569   1.397   1.147  11.122  0.3761 -0.1297 -0.7167
 8125TIP3    H148570   1.443   1.202  11.059  1.3663 -0.6007 -0.4323
 8125TIP3    H248571   1.467   1.107  11.174 -0.4059  0.1426  0.5915
 8126TIP3   OH248572   5.317   6.632  10.352 -0.2743 -0.1693 -0.8610
 8126TIP3    H148573   5.349   6.721  10.368 -1.6769  0.3987 -1.0770
 8126TIP3    H248574   5.328   6.620  10.258  3.4296 -1.6975 -0.4135
 8127TIP3   OH248575   6.021   2.673  11.588  0.3324  0.7785  0.1135
 8127TIP3    H148576   5.972   2.626  11.519 -0.2561  1.1184  0.2945
 8127TIP3    H248577   5.957   2.686  11.658  0.5612  1.6430  0.1661
 8128TIP3   OH248578   2.582   6.449  10.484  0.4250 -0.4653 -0.1044
 8128TIP3    H148579   2.651   6.421  10.424  0.8411  0.6165 -0.1569
 8128TIP3    H248580   2.624   6.515  10.539 -0.1248 -0.9758  0.9667
 8129TIP3   OH248581   5.739   5.435   9.459 -0.0180 -0.2776 -0.0169
 8129TIP3    H148582   5.649   5.404   9.454 -0.1812  0.1856  0.0154
 8129TIP3    H248583   5.790   5.357   9.484 -0.2914 -0.7240 -0.8208
 8130TIP3   OH248584   6.592   5.002  12.658 -0.2678  0.0985  0.8793
 8130TIP3    H148585   6.687   5.003  12.654 -0.3020 -0.9891 -1.2246
 8130TIP3    H248586   6.571   4.940  12.728  0.5912 -0.8963  0.2818
 8131TIP3   OH248587   2.344   0.444   9.247  0.0274 -0.2419  0.3549
 8131TIP3    H148588   2.358   0.516   9.185  2.2255 -1.3198 -0.5091
 8131TIP3    H248589   2.357   0.484   9.333  2.4262  0.2369 -0.1507
 8132TIP3   OH248590   2.811   1.693   9.620 -0.7216 -0.1104  0.7040
 8132TIP3    H148591   2.891   1.726   9.660 -0.1555 -1.3278  0.6206
 8132TIP3    H248592   2.746   1.762   9.636 -0.2547 -0.0927  2.7802
 8133TIP3   OH248593   3.458   0.974  12.417  0.5083 -0.3718  1.0521
 8133TIP3    H148594   3.381   1.023  12.445  1.0997  0.0384  2.0334
 8133TIP3    H248595   3.532   1.023  12.455  1.1298 -1.8567  1.8182
 8134TIP3   OH248596   3.341   1.390  17.704  0.2942  0.3785  0.2618
 8134TIP3    H148597   3.281   1.362  17.635 -0.7434 -0.5708  1.4957
 8134TIP3    H248598   3.367   1.478  17.679 -1.1704  0.5920 -0.6149
 8135TIP3   OH248599   2.849   0.059  11.296 -0.1418 -0.0370  0.3807
 8135TIP3    H148600   2.881   0.029  11.211  0.4672  1.7689 -0.0626
 8135TIP3    H248601   2.799   0.138  11.277 -0.6610 -0.0307  1.6274
 8136TIP3   OH248602   1.438   6.123   9.477  0.1012  0.1342 -0.0057
 8136TIP3    H148603   1.469   6.160   9.394 -0.8131  0.7631 -0.0705
 8136TIP3    H248604   1.504   6.151   9.541  0.2239  0.5782 -0.3205
 8137TIP3   OH248605   5.675   1.333  10.862  0.5149 -0.9259  0.0377
 8137TIP3    H148606   5.683   1.427  10.846 -0.6724 -0.1854  3.0975
 8137TIP3    H248607   5.590   1.309  10.824 -0.3441 -0.1524  1.3857
 8138TIP3   OH248608   5.802   2.698  12.105 -0.2248 -0.1883 -0.2522
 8138TIP3    H148609   5.762   2.646  12.174 -1.1452  0.0967 -0.5546
 8138TIP3    H248610   5.838   2.775  12.149  0.4711 -0.6965  0.0915
 8139TIP3   OH248611   0.968   2.492  10.242 -0.1370  0.2127 -0.4937
 8139TIP3    H148612   1.048   2.440  10.248 -0.1734 -0.2919 -3.1595
 8139TIP3    H248613   0.996   2.576  10.207 -0.7060  0.1805 -1.0411
 8140TIP3   OH248614   5.002   6.321  10.040  0.0271  0.1683  0.1214
 8140TIP3    H148615   5.047   6.236  10.043 -1.1909 -0.4635  1.2590
 8140TIP3    H248616   5.055   6.378  10.097  0.8833  0.2172 -0.6973
 8141TIP3   OH248617   1.698   4.445  10.397  0.4876 -0.0036 -0.3854
 8141TIP3    H148618   1.665   4.533  10.378 -0.4138 -0.4474 -0.9296
 8141TIP3    H248619   1.748   4.420  10.320 -2.9704 -1.7078 -2.2876
 8142TIP3   OH248620   2.192   1.174  12.071 -0.6008  0.0377  0.8165
 8142TIP3    H148621   2.131   1.148  12.140 -0.4015 -1.0605  0.5956
 8142TIP3    H248622   2.143   1.165  11.990 -0.1635 -0.8197  0.6404
 8143TIP3   OH248623   2.482   4.462  10.987  0.5129 -0.0321  0.4516
 8143TIP3    H148624   2.425   4.534  11.016 -0.4627  0.3170 -2.0650
 8143TIP3    H248625   2.565   4.504  10.966  0.5927  0.0089  0.8287
 8144TIP3   OH248626   1.187   5.213   9.557 -0.0131  0.5362  0.1274
 8144TIP3    H148627   1.190   5.224   9.462 -1.4217 -0.3000 -0.0505
 8144TIP3    H248628   1.272   5.176   9.580 -0.2970 -0.9519 -1.0724
 8145TIP3   OH248629   0.348   6.524  10.142 -0.2642 -0.6580 -0.1649
 8145TIP3    H148630   0.361   6.544  10.049 -1.4075 -1.8114 -0.5981
 8145TIP3    H248631   0.268   6.570  10.166 -0.3111 -0.8622  0.0799
 8146TIP3   OH248632   1.922   6.544  10.378 -0.2575 -0.2504  0.5772
 8146TIP3    H148633   2.005   6.580  10.347 -0.8589 -0.1459 -1.0349
 8146TIP3    H248634   1.923   6.453  10.349 -0.8628 -0.1429  0.1992
 8147TIP3   OH248635   2.477   6.407   9.799 -0.0288 -0.0059 -0.2663
 8147TIP3    H148636   2.517   6.403   9.886  0.2303 -2.3277 -0.4317
 8147TIP3    H248637   2.542   6.365   9.741 -0.3368  1.1916 -1.5450
 8148TIP3   OH248638   1.253   5.900   9.859 -0.4444  0.1835  0.2816
 8148TIP3    H148639   1.219   5.871   9.774 -0.0328 -0.2514  0.2632
 8148TIP3    H248640   1.347   5.884   9.855 -0.3982  0.2970  0.7665
 8149TIP3   OH248641   0.552   5.234  11.789  0.4006 -0.2551  0.0214
 8149TIP3    H148642   0.510   5.190  11.863  2.7507  0.1800  1.7413
 8149TIP3    H248643   0.519   5.324  11.793  1.4021  0.0757  1.3217
 8150TIP3   OH248644   1.742   3.880   9.245 -0.2992  0.5351 -0.1696
 8150TIP3    H148645   1.650   3.872   9.271 -1.1947  1.2077 -2.8050
 8150TIP3    H248646   1.774   3.789   9.245 -0.3444  0.4597  2.5973
 8151TIP3   OH248647   1.996   4.740   9.322 -0.2022 -0.2461  0.4468
 8151TIP3    H148648   2.020   4.766   9.233 -1.0677 -1.2926 -0.1144
 8151TIP3    H248649   1.960   4.820   9.360 -0.4103  0.0650 -0.3667
 8152TIP3   OH248650   4.962   5.488  11.880 -0.4469 -0.0809 -0.3160
 8152TIP3    H148651   5.019   5.565  11.884  0.1365 -0.5476  0.9763
 8152TIP3    H248652   4.874   5.524  11.869 -0.1711  0.7648  0.1538
 8153TIP3   OH248653   5.122   1.082  12.207  0.5886  0.1538  0.3411
 8153TIP3    H148654   5.055   1.084  12.138  0.4059 -0.2860  0.4994
 8153TIP3    H248655   5.182   1.153  12.184 -1.1033  2.0401  1.3682
 8154TIP3   OH248656   0.352   2.318   9.601  0.3004  0.0496  0.5815
 8154TIP3    H148657   0.447   2.313   9.603  0.3191 -0.4957 -0.7256
 8154TIP3    H248658   0.331   2.391   9.660  1.5648  0.6686  0.3183
 8155TIP3   OH248659   2.861   2.614  10.919  0.0216 -0.3983  0.1540
 8155TIP3    H148660   2.857   2.521  10.900 -1.8293 -0.6649  1.5845
 8155TIP3    H248661   2.802   2.626  10.994 -0.3998  2.0179 -0.4689
 8156TIP3   OH248662   4.518   6.145  12.358  0.2979  0.2140 -0.5299
 8156TIP3    H148663   4.551   6.230  12.328 -0.4133  0.8899  0.5510
 8156TIP3    H248664   4.588   6.084  12.335  0.5361  0.9567 -1.9506
 8157TIP3   OH248665   0.472   2.747  10.329  0.1560 -0.1862  0.0678
 8157TIP3    H148666   0.380   2.753  10.354 -0.0437  0.3614 -0.7570
 8157TIP3    H248667   0.480   2.804  10.253  1.3479  0.3667  0.5804
 8158TIP3   OH248668   6.270   3.763  11.025  0.1397  0.0451  0.2579
 8158TIP3    H148669   6.253   3.808  10.942 -1.1198 -1.3230 -0.2878
 8158TIP3    H248670   6.325   3.688  11.001  0.4140  0.0789  0.7800
 8159TIP3   OH248671   2.981   3.434   9.787 -0.0586 -0.5106 -0.4985
 8159TIP3    H148672   2.909   3.370   9.793 -0.8494  0.4376  0.6688
 8159TIP3    H248673   2.955   3.504   9.847  2.0897 -0.3707  0.3550
 8160TIP3   OH248674   0.841   0.058  10.079  0.0919 -0.3015  0.1431
 8160TIP3    H148675   0.835  -0.026  10.034  4.1288 -0.1406 -1.0658
 8160TIP3    H248676   0.806   0.121  10.016 -1.0733 -0.7858  0.2631
 8161TIP3   OH248677   4.400   4.453  11.384  0.0339 -0.2403 -0.1067
 8161TIP3    H148678   4.388   4.426  11.293  0.3862 -1.8834  0.2906
 8161TIP3    H248679   4.326   4.414  11.430  0.1263  0.1585  0.3806
 8162TIP3   OH248680   3.120   0.171  11.911 -0.1162 -0.2424  0.0380
 8162TIP3    H148681   3.047   0.197  11.968  0.6886 -0.6690  1.3046
 8162TIP3    H248682   3.196   0.217  11.948  0.6836 -1.6418  0.1996
 8163TIP3   OH248683   3.027   6.290  10.668 -0.2351 -0.3409  0.4899
 8163TIP3    H148684   3.090   6.262  10.602 -0.1198  2.4083 -0.6826
 8163TIP3    H248685   3.075   6.284  10.751  0.7067 -0.7136 -0.0755
 8164TIP3   OH248686   3.142   6.682   9.644  0.0765 -0.6100  0.2909
 8164TIP3    H148687   3.067   6.733   9.673  0.4859 -0.2579  0.7357
 8164TIP3    H248688   3.198   6.674   9.721  0.2419 -1.3325  0.1066
 8165TIP3   OH248689   6.168   0.131   9.961  0.6663  0.3511  0.5265
 8165TIP3    H148690   6.186   0.158   9.871  0.7448  1.5155  0.8653
 8165TIP3    H248691   6.073   0.137   9.969  0.7014  0.7572  0.6651
 8166TIP3   OH248692   6.619   3.167  10.416 -0.2567  0.7312 -0.2423
 8166TIP3    H148693   6.704   3.172  10.461 -0.3880  1.3695 -0.0688
 8166TIP3    H248694   6.627   3.089  10.360 -0.3785 -0.5643  1.4666
 8167TIP3   OH248695   6.295   3.169  10.324 -0.6938 -0.2609  0.4876
 8167TIP3    H148696   6.292   3.238  10.258  1.2742 -2.2982 -1.9233
 8167TIP3    H248697   6.211   3.124  10.315 -0.2115 -0.8925 -1.1339
 8168TIP3   OH248698   5.018   3.948  12.931 -0.9087 -0.0451 -0.2734
 8168TIP3    H148699   4.934   3.970  12.970 -1.4409 -0.0096 -1.4015
 8168TIP3    H248700   5.051   4.031  12.896  0.2529  0.2143  1.3255
 8169TIP3   OH248701   6.206   0.003  12.262 -0.3400 -0.6663 -0.3635
 8169TIP3    H148702   6.274  -0.029  12.322  0.4986 -0.7899 -1.3578
 8169TIP3    H248703   6.146   0.053  12.318  0.9000 -0.0288  0.4321
 8170TIP3   OH248704   6.133   0.096   9.435 -0.4061  0.4744 -0.2510
 8170TIP3    H148705   6.053   0.116   9.386  0.4871  0.5488 -1.7344
 8170TIP3    H248706   6.103   0.081   9.525 -2.0013  1.1124 -0.6453
 8171TIP3   OH248707   1.103   4.412  10.486 -0.0130  0.2141  0.1845
 8171TIP3    H148708   1.191   4.440  10.511  0.4794  0.4632 -1.6874
 8171TIP3    H248709   1.114   4.375  10.398 -2.0474  1.8803 -0.8527
 8172TIP3   OH248710   6.426   1.218   9.654  0.1752  0.3503 -0.5690
 8172TIP3    H148711   6.519   1.238   9.648  0.9547 -2.6978 -0.3725
 8172TIP3    H248712   6.397   1.208   9.564  0.2341  0.4320 -0.5971
 8173TIP3   OH248713   1.442   3.597   9.358  0.2460 -0.0827 -0.2238
 8173TIP3    H148714   1.405   3.585   9.270 -0.6227 -2.4927  0.3981
 8173TIP3    H248715   1.536   3.589   9.345  0.0304 -2.9817 -0.6853
 8174TIP3   OH248716   3.109   4.153  10.500  0.4673  0.3798  0.0915
 8174TIP3    H148717   3.112   4.223  10.566 -0.6884  1.5822 -1.0770
 8174TIP3    H248718   3.159   4.188  10.426  1.2206 -0.7080  0.0544
 8175TIP3   OH248719   1.144   4.649  11.322 -0.4117 -0.0054  0.7381
 8175TIP3    H148720   1.194   4.730  11.315 -0.5952  0.0340 -0.1441
 8175TIP3    H248721   1.110   4.633  11.234  0.1031 -1.3418  0.7543
 8176TIP3   OH248722   2.140   4.704  11.884 -0.8882  0.4710  0.4461
 8176TIP3    H148723   2.092   4.746  11.956 -2.3601 -0.0187 -0.2052
 8176TIP3    H248724   2.121   4.610  11.894 -0.9806  0.3829 -0.4712
 8177TIP3   OH248725   3.021   2.337   9.327  0.8104 -0.1940  0.2710
 8177TIP3    H148726   3.018   2.406   9.260  1.2091 -0.8485 -0.4453
 8177TIP3    H248727   3.114   2.318   9.337  0.7912  0.2934  1.4429
 8178TIP3   OH248728   1.837   4.123  12.477  0.1121  0.0288 -0.1778
 8178TIP3    H148729   1.744   4.122  12.452  0.1282  2.6769 -0.5695
 8178TIP3    H248730   1.882   4.079  12.404 -0.7682 -0.8023 -0.2371
 8179TIP3   OH248731   1.784   3.960  13.415 -0.3449  0.2967 -0.2948
 8179TIP3    H148732   1.866   3.923  13.383 -1.1475 -1.8660 -0.0357
 8179TIP3    H248733   1.775   3.925  13.504 -1.1699  1.1368 -0.0278
 8180TIP3   OH248734   6.094   1.999  11.919 -0.5151 -0.1111 -0.4332
 8180TIP3    H148735   6.029   1.997  11.989  0.5487  0.4109  0.6183
 8180TIP3    H248736   6.151   1.923  11.937  0.5473  0.7801  0.0805
 8181TIP3   OH248737   3.738   4.060  11.428 -0.0063  0.2291 -0.3020
 8181TIP3    H148738   3.796   4.010  11.370  0.4799  0.1342  0.2558
 8181TIP3    H248739   3.770   4.041  11.516 -0.2972  0.9228 -0.0393
 8182TIP3   OH248740   2.771   2.649   9.250  0.2623 -0.1494 -0.0856
 8182TIP3    H148741   2.712   2.696   9.192  0.3164 -0.0491 -0.0613
 8182TIP3    H248742   2.756   2.689   9.336 -0.5211 -0.9601  0.1599
 8183TIP3   OH248743   1.764   5.366  12.600  0.6207  0.0643  0.2394
 8183TIP3    H148744   1.749   5.457  12.573  0.9516 -0.1537 -0.6896
 8183TIP3    H248745   1.680   5.323  12.588  0.5091  0.1980  0.5176
 8184TIP3   OH248746   0.413   4.837   9.974  0.1346  0.2883  0.5066
 8184TIP3    H148747   0.370   4.866   9.895 -0.3453  2.0131  1.3505
 8184TIP3    H248748   0.493   4.889   9.979  0.3818 -0.1129  0.9375
 8185TIP3   OH248749   1.668   6.416  10.443  0.0746  0.8051  0.3202
 8185TIP3    H148750   1.637   6.400  10.532  0.2462 -0.6521  0.1445
 8185TIP3    H248751   1.738   6.480  10.453  0.0898  0.6553  1.2275
 8186TIP3   OH248752   1.770   0.771  10.398 -0.5176  0.1808  0.7962
 8186TIP3    H148753   1.744   0.743  10.485 -0.0044  0.1892  0.9565
 8186TIP3    H248754   1.786   0.690  10.350  1.1648  0.1579  1.3201
 8187TIP3   OH248755   3.702   0.897  10.663  0.0957  0.0091  0.3967
 8187TIP3    H148756   3.708   0.851  10.747 -0.4414  2.6222  2.0018
 8187TIP3    H248757   3.782   0.949  10.658  0.3178 -0.4451 -0.9359
 8188TIP3   OH248758   3.138   4.044  10.051  0.1666  0.6735 -0.3732
 8188TIP3    H148759   3.120   3.963  10.098 -0.8303  1.0148 -0.1391
 8188TIP3    H248760   3.167   4.016   9.964  0.8419  0.0614  0.0372
 8189TIP3   OH248761   3.830   5.950  11.367 -0.0550  0.0365 -0.4946
 8189TIP3    H148762   3.809   5.925  11.457  1.6296  2.3653  0.6343
 8189TIP3    H248763   3.745   5.952  11.322 -0.7164 -3.6767  0.2182
 8190TIP3   OH248764   2.003   4.530  10.850 -0.0954 -0.3930  0.4578
 8190TIP3    H148765   2.073   4.586  10.818 -0.3954  0.1654  0.7660
 8190TIP3    H248766   1.928   4.589  10.860 -0.4002 -0.8405  0.8357
 8191TIP3   OH248767   6.524   1.770  11.499 -0.1815  0.1649  0.3910
 8191TIP3    H148768   6.472   1.835  11.547  1.9737  2.7830 -0.5644
 8191TIP3    H248769   6.491   1.776  11.409  0.9181  0.9655  0.0271
 8192TIP3   OH248770   1.843   3.159  12.553 -0.0509 -0.3049 -1.1803
 8192TIP3    H148771   1.847   3.168  12.649  0.3505  1.1730 -1.2988
 8192TIP3    H248772   1.853   3.066  12.537 -1.3249 -0.7387  0.2725
 8193TIP3   OH248773   1.234   1.011  10.683  0.5058  0.6507 -0.1805
 8193TIP3    H148774   1.280   0.999  10.600 -0.8414 -1.0517 -0.7416
 8193TIP3    H248775   1.264   0.939  10.738 -0.8552 -0.0594 -0.3066
 8194TIP3   OH248776   0.165   4.096  11.030 -0.1639  0.2211  0.1571
 8194TIP3    H148777   0.225   4.046  11.086 -0.4729  0.9859  1.2080
 8194TIP3    H248778   0.137   4.034  10.963  0.4605 -0.6382  0.6722
 8195TIP3   OH248779   2.402   3.262   9.009  0.2018  0.3085 -0.1348
 8195TIP3    H148780   2.332   3.291   8.950 -0.3849 -0.8183 -0.0214
 8195TIP3    H248781   2.446   3.343   9.036  0.6534  0.8467 -2.2902
 8196TIP3   OH248782   3.703   6.152   9.857 -0.0886  0.3516  0.1707
 8196TIP3    H148783   3.698   6.231   9.910 -1.6053  0.8290 -0.6314
 8196TIP3    H248784   3.655   6.172   9.778 -1.5027 -1.7213  0.4117
 8197TIP3   OH248785   6.064   6.466  11.801 -0.2399  0.4016 -0.2855
 8197TIP3    H148786   6.040   6.559  11.800 -1.1097  0.2105  0.7719
 8197TIP3    H248787   6.006   6.426  11.737  1.1650  0.7833 -1.8730
 8198TIP3   OH248788   4.562   1.762  10.839 -0.2983 -0.5570  0.4735
 8198TIP3    H148789   4.581   1.850  10.873  0.8381 -0.3134 -0.7292
 8198TIP3    H248790   4.633   1.707  10.871  0.1269 -0.5805 -0.4750
 8199TIP3   OH248791   5.818   3.396   9.972 -0.4986 -0.4021 -0.1187
 8199TIP3    H148792   5.723   3.398   9.960 -0.7050  0.0448  1.3659
 8199TIP3    H248793   5.835   3.316  10.022  0.1985 -1.6802 -2.2865
 8200TIP3   OH248794   4.909   0.931  11.477  0.6140 -0.0863  0.4957
 8200TIP3    H148795   4.953   1.005  11.435  0.2777  0.2085  0.6550
 8200TIP3    H248796   4.891   0.870  11.405 -2.0140  1.3982 -0.2857
 8201TIP3   OH248797   2.663   0.985  11.639  0.1438 -0.3306 -0.3403
 8201TIP3    H148798   2.704   0.914  11.690  1.4413  0.1561 -0.6617
 8201TIP3    H248799   2.733   1.049  11.627 -0.3689 -0.0350 -2.0009
 8202TIP3   OH248800   6.112   4.657   9.583 -0.0034  0.1985  0.0778
 8202TIP3    H148801   6.055   4.580   9.570  0.0985  0.2486 -0.7329
 8202TIP3    H248802   6.112   4.671   9.677 -0.4779 -0.4596  0.1852
 8203TIP3   OH248803   3.479   5.205   9.742  0.0106  0.3215 -0.4657
 8203TIP3    H148804   3.466   5.123   9.788 -0.9354  1.1304  0.7709
 8203TIP3    H248805   3.428   5.269   9.792  0.1926  1.5351 -1.7657
 8204TIP3   OH248806   1.512   5.635  10.816  0.0672 -0.0877  0.0127
 8204TIP3    H148807   1.485   5.681  10.895 -1.6872  0.3543 -0.7868
 8204TIP3    H248808   1.476   5.547  10.826 -0.9800  0.2445 -0.6774
 8205TIP3   OH248809   3.923   0.221   9.911 -0.3662 -0.3688 -0.2203
 8205TIP3    H148810   3.903   0.267   9.829  0.1283  1.0556  0.4144
 8205TIP3    H248811   3.839   0.213   9.956 -0.4391  0.1064 -0.2632
 8206TIP3   OH248812   1.170   4.294  10.781 -0.4622  0.0789 -0.3704
 8206TIP3    H148813   1.247   4.350  10.771 -1.6554  1.7250 -0.8788
 8206TIP3    H248814   1.157   4.256  10.694 -0.9191  0.8162 -0.6425
 8207TIP3   OH248815   0.657   4.578   9.487  0.4360 -0.4823  0.2946
 8207TIP3    H148816   0.660   4.484   9.503 -1.1744 -0.7704 -0.7586
 8207TIP3    H248817   0.566   4.594   9.460  0.9880  1.1680 -0.7253
 8208TIP3   OH248818   2.632   2.146  10.470  0.7075 -0.3932  0.4330
 8208TIP3    H148819   2.549   2.148  10.518  1.2045  0.3505  1.2793
 8208TIP3    H248820   2.613   2.193  10.389 -0.9718 -4.0992 -1.6196
 8209TIP3   OH248821   3.955   5.430  11.626  0.1024 -0.5525 -0.6097
 8209TIP3    H148822   4.017   5.500  11.605  0.9649 -0.9572  0.4757
 8209TIP3    H248823   3.909   5.413  11.544  2.9512 -1.7309 -2.0908
 8210TIP3   OH248824   1.996   1.421  11.091  0.1615  0.0618  0.1862
 8210TIP3    H148825   1.996   1.380  11.004  0.2801  0.6239 -0.0829
 8210TIP3    H248826   2.050   1.363  11.145  0.7189  0.1110 -0.3090
 8211TIP3   OH248827   6.395   2.578  10.922  0.1855 -0.2812  0.5081
 8211TIP3    H148828   6.427   2.495  10.956 -0.1288  0.0430  1.6295
 8211TIP3    H248829   6.469   2.615  10.875  0.0265 -1.6557 -0.9387
 8212TIP3   OH248830   5.705   3.926  12.655  0.3343 -0.0158  0.1501
 8212TIP3    H148831   5.638   3.981  12.695  0.5501  0.0967  0.3595
 8212TIP3    H248832   5.758   3.895  12.728  1.9489  1.7947 -0.1580
 8213TIP3   OH248833   4.280   3.333  12.606 -0.2157 -0.2136 -0.2379
 8213TIP3    H148834   4.303   3.241  12.592 -0.2743 -0.0608 -1.4107
 8213TIP3    H248835   4.328   3.358  12.685  2.0717 -0.4727 -1.4825
 8214TIP3   OH248836   6.583   5.683  11.216 -0.2469 -0.1895 -0.3756
 8214TIP3    H148837   6.557   5.754  11.157 -0.2976  0.1920  0.1011
 8214TIP3    H248838   6.522   5.612  11.198  0.3520 -0.4452 -1.4929
 8215TIP3   OH248839   1.944   4.932  12.006 -0.0646  0.0504 -0.3481
 8215TIP3    H148840   1.971   4.992  12.076  0.9413 -1.6975  0.8198
 8215TIP3    H248841   1.961   4.845  12.041 -2.4327 -0.9875 -1.6150
 8216TIP3   OH248842   1.155   4.133  10.557  0.3248  0.2187  0.5091
 8216TIP3    H148843   1.211   4.056  10.544 -1.6906 -1.0876 -1.0402
 8216TIP3    H248844   1.176   4.189  10.482 -0.1240 -0.0784  0.1577
 8217TIP3   OH248845   4.345   2.715  11.865 -0.3971  0.2753  0.3035
 8217TIP3    H148846   4.341   2.678  11.953 -1.5472  2.5068  1.2796
 8217TIP3    H248847   4.296   2.652  11.810  0.5390 -1.2547  1.1673
 8218TIP3   OH248848   0.306   5.049   9.778 -0.0016 -0.4218  0.6141
 8218TIP3    H148849   0.216   5.065   9.807 -1.3630 -0.0727 -3.2147
 8218TIP3    H248850   0.359   5.107   9.831 -2.1250  0.0750  2.3677
 8219TIP3   OH248851   0.906   1.620  11.332 -0.7925  0.4870  0.0601
 8219TIP3    H148852   0.992   1.609  11.290 -0.6951 -0.5725  0.4856
 8219TIP3    H248853   0.910   1.705  11.375  0.4249  0.0335  0.8983
 8220TIP3   OH248854   4.169   4.627  11.211 -0.1208  0.0908  0.5026
 8220TIP3    H148855   4.239   4.565  11.190 -0.1694  0.8371 -2.2327
 8220TIP3    H248856   4.092   4.572  11.227  0.2559 -0.6271 -0.0896
 8221TIP3   OH248857   1.832   5.457  10.338  0.8197 -0.9254 -0.1259
 8221TIP3    H148858   1.880   5.418  10.264  0.3114  0.0090 -0.9650
 8221TIP3    H248859   1.839   5.551  10.324  0.9734 -0.7189  1.2052
 8222TIP3   OH248860   3.175   5.430   9.920 -0.0746  0.2230  0.2799
 8222TIP3    H148861   3.181   5.515   9.876  1.7406 -0.3989 -0.7713
 8222TIP3    H248862   3.263   5.413   9.952 -0.4826 -1.1302  0.7521
 8223TIP3   OH248863   1.397   1.203   9.587  0.6062  0.2278 -0.3803
 8223TIP3    H148864   1.423   1.276   9.643  1.6940  0.0025 -0.5572
 8223TIP3    H248865   1.305   1.187   9.609  0.6641  0.9396  0.4439
 8224TIP3   OH248866   2.777   0.335   9.855 -0.7003  0.0886  0.1988
 8224TIP3    H148867   2.782   0.407   9.917 -1.0231  0.1878  0.1127
 8224TIP3    H248868   2.816   0.369   9.774 -0.1593 -0.0837  0.3829
 8225TIP3   OH248869   1.536   2.804  10.791  1.2023 -0.9864 -0.6307
 8225TIP3    H148870   1.570   2.837  10.874  0.4047 -0.2199 -0.5983
 8225TIP3    H248871   1.515   2.712  10.809 -0.3805 -0.4543  0.4859
 8226TIP3   OH248872   1.824   4.057  11.372  0.4863  0.0521 -0.0280
 8226TIP3    H148873   1.820   4.119  11.299  0.3854 -0.7643 -0.7332
 8226TIP3    H248874   1.868   3.980  11.336 -0.3658 -0.7089  0.5200
 8227TIP3   OH248875   2.733   2.211  10.055 -0.1227 -0.2247 -0.2927
 8227TIP3    H148876   2.776   2.271  10.116 -0.6320 -1.4229  1.3214
 8227TIP3    H248877   2.784   2.131  10.060 -1.0215 -0.8158 -0.3157
 8228TIP3   OH248878   4.737   2.142  11.121 -0.2257 -0.1424  0.4356
 8228TIP3    H148879   4.750   2.055  11.083 -1.3698 -0.1678  0.0716
 8228TIP3    H248880   4.789   2.200  11.066 -1.4420 -0.2533 -0.8734
 8229TIP3   OH248881   1.503   5.695  11.095  0.3963  0.0719  0.0954
 8229TIP3    H148882   1.414   5.676  11.124  0.4935 -0.2621  0.1738
 8229TIP3    H248883   1.535   5.760  11.157 -0.5399  1.8139 -1.1705
 8230TIP3   OH248884   0.236   5.548  10.689 -0.2699  0.5663 -0.5139
 8230TIP3    H148885   0.257   5.456  10.703  2.2942  1.2732  1.0944
 8230TIP3    H248886   0.225   5.557  10.595  1.2758 -1.0594 -0.8909
 8231TIP3   OH248887   2.410   5.382  10.770  0.6494 -0.5300 -0.8952
 8231TIP3    H148888   2.401   5.321  10.696  1.0054  1.1248 -2.3717
 8231TIP3    H248889   2.496   5.364  10.807  0.7785 -0.8935 -1.3655
 8232TIP3   OH248890   4.694   1.662  11.825 -0.2203  0.4373  0.4816
 8232TIP3    H148891   4.725   1.716  11.897  0.7485  1.0203 -0.3535
 8232TIP3    H248892   4.599   1.677  11.823 -0.4426 -0.4800  2.3319
 8233TIP3   OH248893   5.375   4.581  11.431  0.4663 -0.4708 -0.9294
 8233TIP3    H148894   5.390   4.672  11.454  1.0563 -0.7838 -0.0158
 8233TIP3    H248895   5.461   4.546  11.411  0.6113 -1.4283  1.1051
 8234TIP3   OH248896   5.869   4.517   9.172  0.7195 -0.7207  0.4145
 8234TIP3    H148897   5.910   4.589   9.219  0.4545 -0.6275  0.5078
 8234TIP3    H248898   5.938   4.480   9.118  0.4851  0.5675 -0.8011
 8235TIP3   OH248899   1.423   0.173  10.782  0.1353  0.5430  0.2509
 8235TIP3    H148900   1.349   0.182  10.842  0.1077  0.1086  0.2846
 8235TIP3    H248901   1.413   0.085  10.744  0.4748  0.5914  0.0454
 8236TIP3   OH248902   0.445   4.700  11.056 -0.2225 -0.0218  0.3700
 8236TIP3    H148903   0.407   4.733  10.974  2.4926  2.7374 -0.0024
 8236TIP3    H248904   0.450   4.778  11.112  0.2778 -1.3231  2.2001
 8237TIP3   OH248905   6.416   4.511  12.130  0.1530  0.2159 -0.1015
 8237TIP3    H148906   6.490   4.487  12.186 -0.3309 -1.3939 -0.1011
 8237TIP3    H248907   6.357   4.560  12.188  0.0420 -0.7145  0.5836
 8238TIP3   OH248908   5.723   3.251  10.406  0.8717 -0.1824  0.1967
 8238TIP3    H148909   5.723   3.337  10.448  1.6055  0.0118 -0.1794
 8238TIP3    H248910   5.696   3.190  10.475 -1.3979  0.5495  0.0111
 8239TIP3   OH248911   4.825   3.445  10.627 -0.1487  0.2671  0.2727
 8239TIP3    H148912   4.914   3.411  10.618 -1.0501 -2.2946 -0.0366
 8239TIP3    H248913   4.769   3.375  10.591 -2.2013  2.7348 -1.7905
 8240TIP3   OH248914   0.137   5.996   9.488  0.1023  0.2499  0.0486
 8240TIP3    H148915   0.228   5.979   9.513  0.6086  1.0561 -1.1816
 8240TIP3    H248916   0.101   6.044   9.563  1.0616  1.0234  0.0407
 8241TIP3   OH248917   0.126   3.082  10.257 -0.7759 -0.4076  0.2183
 8241TIP3    H148918   0.172   3.144  10.201  0.9110 -0.7814  1.1230
 8241TIP3    H248919   0.122   3.125  10.343 -2.7922 -0.0954  0.0270
 8242TIP3   OH248920   3.927   0.501   9.695 -0.0504  0.1216 -0.0662
 8242TIP3    H148921   3.992   0.479   9.628  0.9377  0.4870  0.7511
 8242TIP3    H248922   3.863   0.430   9.691  1.5043 -1.3737  0.5133
 8243TIP3   OH248923   0.710   4.772  10.253 -0.0618 -0.3110  0.3658
 8243TIP3    H148924   0.753   4.759  10.338  1.6025 -0.6512 -0.4950
 8243TIP3    H248925   0.780   4.765  10.189 -1.5254 -1.6407 -1.1832
 8244TIP3   OH248926   5.441   2.567   9.124  0.4123 -0.4810  0.0395
 8244TIP3    H148927   5.450   2.567   9.029  1.0730 -2.1206  0.0585
 8244TIP3    H248928   5.458   2.657   9.151 -0.7435  0.2273 -1.4517
 8245TIP3   OH248929   3.295   2.828  10.965 -0.4985  0.1189  0.0760
 8245TIP3    H148930   3.203   2.848  10.951 -0.8870 -1.8150 -0.3847
 8245TIP3    H248931   3.296   2.759  11.031  0.6381  0.2020  0.1819
 8246TIP3   OH248932   1.531   4.021  12.710 -0.4626 -1.0967 -0.4570
 8246TIP3    H148933   1.550   4.106  12.749 -1.1094 -1.2454  0.2087
 8246TIP3    H248934   1.544   4.034  12.616 -2.2517  0.2374 -0.5726
 8247TIP3   OH248935   2.857   4.868  11.207 -0.3250 -0.5193 -0.0281
 8247TIP3    H148936   2.945   4.859  11.244 -0.5457 -3.4247  0.0295
 8247TIP3    H248937   2.872   4.868  11.112 -0.0544  3.0478 -0.0995
 8248TIP3   OH248938   2.141   2.426   9.612 -0.2483 -0.5162 -0.0679
 8248TIP3    H148939   2.115   2.334   9.604 -0.4191 -0.5870  1.1219
 8248TIP3    H248940   2.198   2.428   9.689 -0.8241  0.4830  0.3523
 8249TIP3   OH248941   4.685   4.076  10.490  0.0922  0.1077  0.2915
 8249TIP3    H148942   4.598   4.037  10.497  0.2467 -0.2737  0.0957
 8249TIP3    H248943   4.745   4.007  10.518  0.3523  0.2769  0.1547
 8250TIP3   OH248944   1.810   1.110  12.706 -0.1357 -0.5225  0.7123
 8250TIP3    H148945   1.729   1.108  12.655 -0.2763 -0.8242  0.9453
 8250TIP3    H248946   1.870   1.052  12.659  0.0860  0.0089  0.3184
 8251TIP3   OH248947   0.489   1.866  10.878 -0.4365  0.6855  0.2007
 8251TIP3    H148948   0.523   1.844  10.792  0.2675  2.0505  0.0959
 8251TIP3    H248949   0.495   1.785  10.928  0.9991  0.3511 -0.4621
 8252TIP3   OH248950   4.230   0.660  12.126  0.2957 -0.1749  0.2968
 8252TIP3    H148951   4.164   0.591  12.127 -1.9961  1.8736  1.4580
 8252TIP3    H248952   4.208   0.715  12.202  1.6485  2.1259 -0.8700
 8253TIP3   OH248953   5.608   2.466  11.861  0.1086  0.4881 -0.2182
 8253TIP3    H148954   5.696   2.465  11.899  0.4651 -1.3545 -1.0044
 8253TIP3    H248955   5.623   2.472  11.767 -0.6704  1.2215 -0.3084
 8254TIP3   OH248956   3.239   0.508  10.950  0.2599  0.6168  0.6954
 8254TIP3    H148957   3.294   0.460  10.889  0.5002  0.9580  0.6453
 8254TIP3    H248958   3.223   0.446  11.022  0.0330  0.2414  0.3219
 8255TIP3   OH248959   6.568   0.518   9.754  0.7957  0.0465  0.2062
 8255TIP3    H148960   6.630   0.447   9.735  0.4503 -0.0797 -0.5061
 8255TIP3    H248961   6.533   0.542   9.668 -0.8151 -0.5061  0.6578
 8256TIP3   OH248962   2.996   4.803  10.765 -0.2530  0.4590  0.4129
 8256TIP3    H148963   3.062   4.795  10.833  2.5306 -0.3243 -2.1758
 8256TIP3    H248964   2.930   4.737  10.787  1.8040 -1.4816  1.0855
 8257TIP3   OH248965   2.741   2.523  11.483  0.1245 -0.4326 -0.4039
 8257TIP3    H148966   2.809   2.542  11.419 -0.3746  0.7973 -0.5972
 8257TIP3    H248967   2.783   2.533  11.568  0.0237  1.0966 -0.5071
 8258TIP3   OH248968   5.316   6.516  11.194 -0.1210  0.1128 -0.1137
 8258TIP3    H148969   5.382   6.476  11.251 -0.5684 -0.7860 -0.1944
 8258TIP3    H248970   5.343   6.492  11.105 -0.1959  0.3028 -0.1885
 8259TIP3   OH248971   3.293   1.018  12.115 -0.1068 -0.1837  0.0403
 8259TIP3    H148972   3.310   1.060  12.199  0.7529  0.9596 -0.6821
 8259TIP3    H248973   3.362   0.951  12.107  0.7068  0.6830 -0.3825
 8260TIP3   OH248974   3.945   4.638   9.458  0.2749  0.3471 -0.0117
 8260TIP3    H148975   3.965   4.625   9.365 -2.8731 -0.1552 -0.7530
 8260TIP3    H248976   3.950   4.551   9.497  0.3427  0.3513 -0.0111
 8261TIP3   OH248977   3.147   4.922  11.252  1.1600 -0.5364 -0.0386
 8261TIP3    H148978   3.120   5.008  11.219 -0.7142 -1.3658 -0.8050
 8261TIP3    H248979   3.210   4.942  11.322  0.1132  1.4743  0.4026
 8262TIP3   OH248980   0.673   3.612  10.850  0.3869 -0.3411  0.1400
 8262TIP3    H148981   0.704   3.582  10.936  0.0274  1.5083  0.9697
 8262TIP3    H248982   0.580   3.631  10.864 -0.0657 -1.4912 -1.1080
 8263TIP3   OH248983   5.021   0.181  11.190 -0.2426  0.3261  0.1503
 8263TIP3    H148984   5.025   0.088  11.215 -1.3735  0.1597 -0.1993
 8263TIP3    H248985   5.112   0.210  11.191  0.1910 -0.9288 -0.2683
 8264TIP3   OH248986   1.710   2.800  11.735 -0.1437 -0.1361 -0.4187
 8264TIP3    H148987   1.785   2.844  11.775 -0.1981 -1.4234  1.1861
 8264TIP3    H248988   1.748   2.735  11.676  0.0431 -1.1154  0.7527
 8265TIP3   OH248989   5.881   1.266  11.639  0.1171 -0.5969 -0.5844
 8265TIP3    H148990   5.872   1.326  11.713 -0.9702  1.0221 -1.9745
 8265TIP3    H248991   5.792   1.236  11.621  0.5004 -1.7342 -0.6611
 8266TIP3   OH248992   4.730   3.562   9.630  0.5560 -0.1848  0.2976
 8266TIP3    H148993   4.645   3.573   9.587  0.2195  0.0776  1.0283
 8266TIP3    H248994   4.730   3.471   9.660  0.1225  0.0858  1.1541
 8267TIP3   OH248995   2.099   4.172  11.420  0.3121 -0.6126  0.8895
 8267TIP3    H148996   2.030   4.234  11.442 -0.1645 -0.3955 -1.0740
 8267TIP3    H248997   2.178   4.225  11.410  0.2639 -0.5482  0.8550
 8268TIP3   OH248998   0.987   5.955   9.908 -0.6885  0.8235 -0.0063
 8268TIP3    H148999   1.083   5.961   9.902 -0.6723 -0.3239 -1.1995
 8268TIP3    H249000   0.956   6.033   9.863 -0.3352  1.5770  1.0004
 8269TIP3   OH249001   5.824   1.559  11.236 -0.7264 -0.1495  0.3300
 8269TIP3    H149002   5.858   1.600  11.157  0.1520  0.7747  1.1461
 8269TIP3    H249003   5.729   1.558  11.225 -0.5467 -1.7797 -1.5375
 8270TIP3   OH249004   5.117   4.854   9.185 -0.2163  0.1571  0.6498
 8270TIP3    H149005   5.094   4.907   9.108 -0.2287  0.0763  0.5984
 8270TIP3    H249006   5.188   4.797   9.155  0.3875  0.7454  0.9424
 8271TIP3   OH249007   4.436   0.404  11.036 -0.0193 -0.0811 -0.3707
 8271TIP3    H149008   4.435   0.438  10.946  0.9957 -0.0406 -0.3772
 8271TIP3    H249009   4.529   0.386  11.054 -0.1881  0.0914  0.7388
 8272TIP3   OH249010   0.154   5.691  11.495  0.1844 -0.0544 -0.4283
 8272TIP3    H149011   0.189   5.768  11.451  2.7678 -1.5561 -1.2218
 8272TIP3    H249012   0.181   5.700  11.586 -2.1777  1.3582  0.2353
 8273TIP3   OH249013   6.710   5.737  10.138  0.2195 -0.2711 -0.2350
 8273TIP3    H149014   6.713   5.786  10.056 -0.3619 -0.8425 -0.6073
 8273TIP3    H249015   6.802   5.728  10.164  0.3728  0.3781 -0.5382
 8274TIP3   OH249016   4.796   5.608  10.209  0.3825  0.5206  0.3726
 8274TIP3    H149017   4.725   5.663  10.242 -1.1304 -1.7844  1.2592
 8274TIP3    H249018   4.854   5.595  10.284  0.1699  0.1000  0.4699
 8275TIP3   OH249019   2.513   4.517  11.548  0.3202  0.1558  0.0870
 8275TIP3    H149020   2.561   4.495  11.468 -1.2538 -0.6715 -0.6625
 8275TIP3    H249021   2.467   4.598  11.527  0.5984  0.4227  0.4774
 8276TIP3   OH249022   5.089   1.944  10.802  0.2484 -0.4592  0.8132
 8276TIP3    H149023   5.125   2.028  10.775  1.1502 -0.4853  1.8790
 8276TIP3    H249024   5.100   1.888  10.724 -2.0038  0.8240 -0.5373
 8277TIP3   OH249025   3.665   1.992  12.565 -0.7380 -0.1518 -0.1158
 8277TIP3    H149026   3.700   1.926  12.506 -2.6434 -1.2518 -0.0891
 8277TIP3    H249027   3.585   2.022  12.523 -0.2573  1.7032  0.1999
 8278TIP3   OH249028   5.524   4.707  12.325 -0.5956  0.1887  0.5834
 8278TIP3    H149029   5.489   4.736  12.409  0.2124  1.6862  0.4341
 8278TIP3    H249030   5.465   4.743  12.260 -0.3364  0.3679  0.4455
 8279TIP3   OH249031   3.500   1.648  10.175  0.2863 -0.7171 -0.0193
 8279TIP3    H149032   3.588   1.672  10.145 -0.1662  0.3892 -0.4999
 8279TIP3    H249033   3.485   1.704  10.251 -0.4603 -0.0283 -0.6562
 8280TIP3   OH249034   1.980   3.481  10.514 -0.2310  0.0448  0.0838
 8280TIP3    H149035   2.026   3.561  10.488 -0.7289  0.4417  0.4330
 8280TIP3    H249036   1.980   3.483  10.609  0.6431 -0.8835  0.1294
 8281TIP3   OH249037   0.309   1.555  11.886  0.5602  0.6146 -0.2506
 8281TIP3    H149038   0.301   1.649  11.903  0.8506  0.6927 -0.5257
 8281TIP3    H249039   0.360   1.522  11.961 -0.7726  0.4137  0.5988
 8282TIP3   OH249040   4.587   4.956  10.064 -0.0909  0.3916 -0.2498
 8282TIP3    H149041   4.615   5.012  10.136 -0.0105 -1.0436  0.8956
 8282TIP3    H249042   4.668   4.926  10.023 -0.0887  0.1388 -0.0649
 8283TIP3   OH249043   5.938   2.726   9.883  0.6385 -0.1917  0.4610
 8283TIP3    H149044   5.862   2.739   9.827  2.2671  2.8071 -1.3217
 8283TIP3    H249045   5.989   2.658   9.840  0.6459  0.2971 -0.3163
 8284TIP3   OH249046   4.516   6.606  12.112 -0.3303 -0.2867 -0.0325
 8284TIP3    H149047   4.461   6.658  12.170  0.2849  0.3115  0.0240
 8284TIP3    H249048   4.531   6.524  12.160 -2.2422 -1.0257 -0.6010
 8285TIP3   OH249049   5.587   4.180  11.592  0.4152 -0.8913 -0.0859
 8285TIP3    H149050   5.503   4.133  11.591  0.7532 -1.4833 -0.7500
 8285TIP3    H249051   5.635   4.146  11.517  0.0320  1.7059 -1.6367
 8286TIP3   OH249052   3.686   5.355  11.218 -0.5001  0.0668 -0.4487
 8286TIP3    H149053   3.695   5.264  11.245  0.2118  0.1932 -0.2244
 8286TIP3    H249054   3.735   5.405  11.284 -1.8620  0.7255  0.0901
 8287TIP3   OH249055   1.751   0.757  11.524 -0.0967  0.1662  0.1102
 8287TIP3    H149056   1.826   0.735  11.469  2.9200  1.1082  3.4803
 8287TIP3    H249057   1.746   0.852  11.521  1.1779  0.3698  2.5704
 8288TIP3   OH249058   2.223   6.217   9.993 -0.5222  0.3455  0.1573
 8288TIP3    H149059   2.204   6.124   9.996  0.2296  0.1385 -0.8729
 8288TIP3    H249060   2.138   6.259   9.981 -0.7339 -0.2883 -0.6001
 8289TIP3   OH249061   3.159   1.936  12.697 -0.5554 -0.2816  0.0405
 8289TIP3    H149062   3.189   2.018  12.658 -0.7603 -0.4082 -0.3932
 8289TIP3    H249063   3.223   1.871  12.669 -2.4528 -1.0512 -2.9648
 8290TIP3   OH249064   6.691   5.853  11.767 -0.2058 -0.3448 -0.4601
 8290TIP3    H149065   6.597   5.836  11.763 -0.1258 -1.3860  1.0191
 8290TIP3    H249066   6.731   5.766  11.764  0.6899  0.0635 -0.6375
 8291TIP3   OH249067   1.982   6.587  10.053 -0.1722 -0.1851 -0.2678
 8291TIP3    H149068   1.971   6.677  10.083 -0.0638 -0.7443  1.5558
 8291TIP3    H249069   2.070   6.585  10.014  0.3383  0.2274  0.8180
 8292TIP3   OH249070   6.333   5.095  10.091  0.4389 -0.1655 -0.3730
 8292TIP3    H149071   6.395   5.071  10.160 -0.8862 -2.7483  0.0659
 8292TIP3    H249072   6.258   5.131  10.138  0.6485  0.7730 -0.7322
 8293TIP3   OH249073   5.003   1.210  11.604 -0.1710  1.0554 -0.2476
 8293TIP3    H149074   5.002   1.243  11.694  1.5139 -1.3996  0.7567
 8293TIP3    H249075   5.072   1.260  11.561  1.4405 -0.1291  0.8682
 8294TIP3   OH249076   4.258   6.690  12.338 -0.0422  0.0576 -0.0541
 8294TIP3    H149077   4.225   6.778  12.320  0.3784  0.1034 -0.5897
 8294TIP3    H249078   4.350   6.702  12.361 -0.5783  0.0407  2.4115
 8295TIP3   OH249079   1.306   4.019   9.486  0.2545 -0.3550 -0.1991
 8295TIP3    H149080   1.306   4.114   9.494 -0.0200 -0.1815 -1.8874
 8295TIP3    H249081   1.267   3.988   9.568  1.3848  0.9097  0.8677
 8296TIP3   OH249082   1.726   5.228   9.936  0.5619 -0.3579  0.0497
 8296TIP3    H149083   1.805   5.282   9.928  1.3929 -1.4622  0.5638
 8296TIP3    H249084   1.661   5.285   9.976  0.7072  0.9414 -1.4602
 8297TIP3   OH249085   3.381   0.414   9.717 -0.2332  0.3952  0.4142
 8297TIP3    H149086   3.285   0.416   9.724 -0.3597  0.9732 -1.1368
 8297TIP3    H249087   3.402   0.486   9.658  0.8991 -1.5565 -1.7362
 8298TIP3   OH249088   0.469   2.150  10.862  0.2860  0.0425  0.5853
 8298TIP3    H149089   0.439   2.165  10.952  0.6609 -0.9237  0.8746
 8298TIP3    H249090   0.491   2.058  10.859  0.7005  0.1670 -0.3851
 8299TIP3   OH249091   4.967   5.588  11.456  0.0344  0.0758 -0.4613
 8299TIP3    H149092   4.920   5.581  11.373 -1.4718  1.0269  0.2609
 8299TIP3    H249093   4.899   5.580  11.522  1.0192  0.6904  0.6536
 8300TIP3   OH249094   6.538   0.210   9.976 -0.0055  0.3578 -0.9028
 8300TIP3    H149095   6.485   0.164   9.910  0.0844 -0.6427 -0.2944
 8300TIP3    H249096   6.494   0.295   9.986 -0.6711  0.0904 -1.4370
 8301TIP3   OH249097   1.264   2.275  12.317  0.0192 -0.5849 -0.1422
 8301TIP3    H149098   1.209   2.344  12.282 -0.6866 -0.7208  0.6624
 8301TIP3    H249099   1.204   2.202  12.334  0.3292 -0.5576  1.2401
 8302TIP3   OH249100   0.382   2.956  11.670  0.1609  1.1424  0.0131
 8302TIP3    H149101   0.370   2.871  11.627  0.4916  1.0889  0.0272
 8302TIP3    H249102   0.339   2.946  11.755  0.4656  0.8848  0.1421
 8303TIP3   OH249103   2.320   0.900  11.827 -0.0718 -0.1712  0.1808
 8303TIP3    H149104   2.225   0.887  11.826 -0.3067  1.2568  1.0574
 8303TIP3    H249105   2.356   0.816  11.856 -1.1284 -0.4539  0.7142
 8304TIP3   OH249106   1.551   5.982   9.232 -0.1336  0.1673 -0.3142
 8304TIP3    H149107   1.459   5.977   9.207 -0.3870 -0.1418  0.6196
 8304TIP3    H249108   1.570   6.076   9.235 -1.8472  0.6440  4.2226
 8305TIP3   OH249109   1.578   1.095  11.353  0.4624  0.5110  0.3090
 8305TIP3    H149110   1.644   1.056  11.410  2.3985  1.5101 -1.1109
 8305TIP3    H249111   1.606   1.186  11.345 -1.8529  1.2976  0.6375
 8306TIP3   OH249112   1.780   2.555  10.207 -0.3384 -0.2774  0.4724
 8306TIP3    H149113   1.755   2.576  10.297  0.1359 -0.6032  0.6853
 8306TIP3    H249114   1.786   2.640  10.164  2.0781  0.1235  1.4629
 8307TIP3   OH249115   1.356   4.222  11.005  0.4426  0.0867 -0.3868
 8307TIP3    H149116   1.380   4.175  11.084 -2.0288  2.3478  1.9113
 8307TIP3    H249117   1.263   4.201  10.992  0.2523  1.4178 -1.4507
 8308TIP3   OH249118   0.267   1.181  11.505  0.9850  0.2048  0.6119
 8308TIP3    H149119   0.260   1.107  11.565  3.4375  0.3214  1.1339
 8308TIP3    H249120   0.251   1.258  11.559  1.7243  0.2246  0.8113
 8309TIP3   OH249121   2.629   0.322  10.487 -0.1548  0.3870  0.4361
 8309TIP3    H149122   2.599   0.404  10.527 -0.6294  1.2683 -1.5832
 8309TIP3    H249123   2.687   0.350  10.417 -1.6080 -0.8692 -1.3791
 8310TIP3   OH249124   5.182   4.658  11.734 -0.0795 -0.0053 -0.2034
 8310TIP3    H149125   5.256   4.682  11.789 -0.7159  0.4794  0.4738
 8310TIP3    H249126   5.146   4.580  11.776  1.6313 -1.9009 -2.0658
 8311TIP3   OH249127   4.798   2.382  10.985  0.1167 -0.6094  1.0809
 8311TIP3    H149128   4.791   2.469  10.945  2.2236  0.8427  3.5741
 8311TIP3    H249129   4.707   2.358  11.005 -0.6010  0.4558 -0.6404
 8312TIP3   OH249130   0.027   4.550  10.915 -0.0774 -0.0447  0.1305
 8312TIP3    H149131   0.047   4.623  10.973 -0.1446  1.0546 -1.2021
 8312TIP3    H249132  -0.063   4.565  10.887 -0.8638 -1.8178  1.5005
 8313TIP3   OH249133   4.062   0.658  11.823 -1.1883 -0.3291 -0.2772
 8313TIP3    H149134   4.058   0.710  11.903 -0.9982 -0.5967 -0.0922
 8313TIP3    H249135   4.013   0.578  11.844  0.4256 -1.2295  0.2001
 8314TIP3   OH249136   4.117   0.972  11.097 -0.4920  0.3902  0.3826
 8314TIP3    H149137   4.166   0.938  11.172 -0.0794  1.9300  0.8529
 8314TIP3    H249138   4.036   0.920  11.096 -0.6120  0.4922  2.0521
 8315TIP3   OH249139   3.604   5.875  11.550 -0.1619 -0.2470  0.6639
 8315TIP3    H149140   3.555   5.846  11.627  0.4629  1.2438  1.6653
 8315TIP3    H249141   3.593   5.803  11.487 -3.4511 -0.0934  0.8655
 8316TIP3   OH249142   2.087   3.865  11.449  0.1282 -0.3512 -0.6495
 8316TIP3    H149143   2.162   3.844  11.394  0.5175  1.3681 -0.8027
 8316TIP3    H249144   2.101   3.955  11.477 -2.6057  0.5881 -1.9250
 8317TIP3   OH249145   1.577   5.031  10.410  0.0466  0.9405  0.2936
 8317TIP3    H149146   1.508   5.089  10.380 -0.7936 -0.3536 -0.4079
 8317TIP3    H249147   1.599   4.978  10.334  1.5619  1.0564  0.6078
 8318TIP3   OH249148   0.951   4.136   9.441 -0.1114 -0.3684  0.5836
 8318TIP3    H149149   1.018   4.137   9.373  0.9141  0.7071  1.5726
 8318TIP3    H249150   0.960   4.050   9.482 -0.0924 -0.6466  0.0155
 8319TIP3   OH249151   2.896   0.760   9.291 -0.9505 -0.2104  0.5247
 8319TIP3    H149152   2.813   0.802   9.312 -0.4964  1.6049 -1.1172
 8319TIP3    H249153   2.953   0.780   9.365 -0.8778  1.7841 -0.0220
 8320TIP3   OH249154   1.574   6.154  11.202  0.2849  0.5403 -0.6943
 8320TIP3    H149155   1.640   6.202  11.253 -0.8998  1.0505  0.4088
 8320TIP3    H249156   1.511   6.123  11.267 -0.4192 -0.1947 -1.6920
 8321TIP3   OH249157   6.255   6.080  11.062 -0.0472  0.2194  0.0915
 8321TIP3    H149158   6.167   6.117  11.064  0.0500  0.4187  1.2489
 8321TIP3    H249159   6.255   6.012  11.129  0.6325  0.1060 -0.0098
 8322TIP3   OH249160   5.992   1.655  11.831 -0.0480 -0.0751 -0.0975
 8322TIP3    H149161   6.023   1.587  11.771  0.5104  1.2545 -1.3729
 8322TIP3    H249162   5.896   1.649  11.827 -0.0027 -1.0197  0.1033
 8323TIP3   OH249163   0.522   4.827   9.226 -0.2049  0.1639 -0.2149
 8323TIP3    H149164   0.486   4.775   9.298 -0.1024 -0.9582 -0.9479
 8323TIP3    H249165   0.480   4.790   9.147 -1.4769  2.3452 -0.6329
 8324TIP3   OH249166   2.198   1.910  11.441  0.1478  0.0677  0.2223
 8324TIP3    H149167   2.222   1.990  11.395  0.5040  0.4307  1.0218
 8324TIP3    H249168   2.196   1.935  11.534 -2.4630 -0.1494  0.2905
 8325TIP3   OH249169   0.908   4.024  11.674 -0.2752 -0.1587 -0.2251
 8325TIP3    H149170   1.002   4.008  11.667 -0.0626  0.8683  0.0816
 8325TIP3    H249171   0.882   4.050  11.586 -0.4286 -1.1577 -0.4874
 8326TIP3   OH249172   0.827   4.819  12.795 -0.3560 -0.0704 -0.2043
 8326TIP3    H149173   0.748   4.769  12.816 -0.2389 -0.3434 -0.4079
 8326TIP3    H249174   0.891   4.753  12.770 -0.8017  0.2788 -2.5028
 8327TIP3   OH249175   4.669   1.602   9.463 -0.1995 -1.0635  0.1738
 8327TIP3    H149176   4.673   1.621   9.369  0.2143 -0.4183  0.3198
 8327TIP3    H249177   4.649   1.508   9.467  1.4272 -1.4852 -0.5731
 8328TIP3   OH249178   2.523   4.264  10.362  0.5688 -0.0547 -0.3020
 8328TIP3    H149179   2.494   4.190  10.415 -0.1174  0.4101 -0.0113
 8328TIP3    H249180   2.479   4.251  10.277  0.2416  0.1492 -0.1671
 8329TIP3   OH249181   3.793   2.591  10.031 -0.2700  0.5871 -0.0209
 8329TIP3    H149182   3.816   2.520  10.091 -1.6139 -0.2501 -0.4395
 8329TIP3    H249183   3.834   2.566   9.948 -0.8372  0.2174 -0.1982
 8330TIP3   OH249184   3.402   6.477  10.932  0.2364 -0.1064 -0.2097
 8330TIP3    H149185   3.413   6.467  11.026 -0.9114  0.9162  0.0498
 8330TIP3    H249186   3.490   6.460  10.896  1.4825  2.5760  1.2954
 8331TIP3   OH249187   4.767   0.891   9.598 -0.3650 -0.2570  0.5550
 8331TIP3    H149188   4.752   0.816   9.541  0.7054 -0.5978  0.6986
 8331TIP3    H249189   4.772   0.853   9.686  3.1609 -0.5390  0.4022
 8332TIP3   OH249190   0.009   1.904  11.579 -0.2143 -0.3026 -0.2035
 8332TIP3    H149191  -0.022   1.982  11.532  0.7574 -0.8727 -1.8874
 8332TIP3    H249192  -0.065   1.843  11.573 -0.7929  0.2835  0.6846
 8333TIP3   OH249193   5.251   5.596  11.513  0.1815  0.8662 -0.0348
 8333TIP3    H149194   5.157   5.592  11.527  0.1924  2.4146  0.7060
 8333TIP3    H249195   5.277   5.505  11.498 -1.5913  0.5496 -1.5706
 8334TIP3   OH249196   4.944   3.165  12.750  0.2503  0.0840 -0.2786
 8334TIP3    H149197   4.948   3.257  12.777 -1.2439  0.2761 -0.6439
 8334TIP3    H249198   4.967   3.116  12.829 -2.2940  0.6901  0.9112
 8335TIP3   OH249199   3.951   0.937   9.499 -0.4036  0.0595 -0.0304
 8335TIP3    H149200   4.006   0.860   9.487 -0.7360  0.0346 -1.5954
 8335TIP3    H249201   4.012   1.009   9.511 -0.0849 -0.3627  1.0367
 8336TIP3   OH249202   3.333   5.456  19.241  0.1104  0.0770 -0.0720
 8336TIP3    H149203   3.248   5.447  19.286  0.0527 -2.2350 -0.4866
 8336TIP3    H249204   3.311   5.463  19.149  0.3547  0.3615 -0.1108
 8337TIP3   OH249205   3.590   3.666   9.655 -0.2078 -0.2105 -0.3167
 8337TIP3    H149206   3.564   3.686   9.745 -0.0877 -1.7394  0.0849
 8337TIP3    H249207   3.540   3.588   9.632  2.3745 -2.0285 -0.2401
 8338TIP3   OH249208   6.406   4.767  10.070 -0.2893  0.5360 -0.4182
 8338TIP3    H149209   6.403   4.758  10.165 -0.6172  1.9327 -0.2727
 8338TIP3    H249210   6.326   4.815  10.048 -0.0171  0.5791 -1.3545
 8339TIP3   OH249211   3.835   4.176  11.030  0.1519 -0.1816  0.0832
 8339TIP3    H149212   3.776   4.120  11.081 -0.1583 -1.7516 -1.8834
 8339TIP3    H249213   3.913   4.122  11.016  0.5947  0.5530 -0.3462
 8340TIP3   OH249214   4.853   5.602  12.789 -0.6137 -0.1038 -0.5008
 8340TIP3    H149215   4.893   5.515  12.794 -3.0083 -1.2492  0.4312
 8340TIP3    H249216   4.854   5.634  12.879  0.5055  1.0017 -0.8812
 8341TIP3   OH249217   1.496   0.576   9.612  0.0839  0.7437  0.2643
 8341TIP3    H149218   1.432   0.647   9.623  0.7184  1.5906 -1.3077
 8341TIP3    H249219   1.562   0.611   9.552  0.7462 -0.9662 -0.0710
 8342TIP3   OH249220   5.864   0.555   9.775 -0.2592 -0.0988 -0.5193
 8342TIP3    H149221   5.902   0.607   9.705 -2.0574  0.4031 -1.1583
 8342TIP3    H249222   5.770   0.567   9.767 -0.5781 -0.9617  1.2700
 8343TIP3   OH249223   0.956   6.047  11.723 -0.3929  0.3685  0.0615
 8343TIP3    H149224   1.013   6.123  11.732 -0.6409  0.5160  0.3968
 8343TIP3    H249225   0.909   6.042  11.807 -0.2384 -0.2617  0.1167
 8344TIP3   OH249226   0.566   5.779   9.546  0.1259 -0.0529  0.1330
 8344TIP3    H149227   0.582   5.686   9.533  4.5250  0.4091  0.8738
 8344TIP3    H249228   0.640   5.822   9.505 -1.1527  3.1179  0.8577
 8345TIP3   OH249229   4.271   1.414  11.276 -0.0124 -0.0650  0.2486
 8345TIP3    H149230   4.254   1.504  11.247  0.2040 -0.1111 -0.0245
 8345TIP3    H249231   4.187   1.370  11.266  0.0950 -0.1250 -0.4839
 8346TIP3   OH249232   3.057   4.287  12.472 -0.7114 -0.4207  0.1230
 8346TIP3    H149233   3.147   4.295  12.503 -0.4575  2.3217 -0.9733
 8346TIP3    H249234   3.004   4.300  12.551 -0.2107 -2.6901  0.8921
 8347TIP3   OH249235   4.109   6.664  10.011 -0.0571  0.3375  0.3054
 8347TIP3    H149236   4.088   6.600  10.078 -1.6992 -1.4171 -1.7440
 8347TIP3    H249237   4.139   6.612   9.936 -0.4899  2.0208 -1.1047
 8348TIP3   OH249238   2.296   0.297  17.537  0.4859  0.3370  0.4024
 8348TIP3    H149239   2.388   0.307  17.511  1.0132 -0.1586  1.9572
 8348TIP3    H249240   2.281   0.369  17.599 -0.7096  1.4517 -1.1024
 8349TIP3   OH249241   3.118   5.220   9.044  0.2833  0.1942 -0.2643
 8349TIP3    H149242   3.165   5.196   9.123  1.5960  2.1931 -0.3526
 8349TIP3    H249243   3.028   5.235   9.073  0.0754 -1.8076  0.2738
 8350TIP3   OH249244   0.557   2.744  11.317 -0.2600  0.3993  0.2406
 8350TIP3    H149245   0.640   2.752  11.365 -1.2323  1.0395  1.8715
 8350TIP3    H249246   0.500   2.808  11.357 -1.4655  0.2102 -1.1052
 8351TIP3   OH249247   3.615   0.773   9.468 -0.1435  0.5892 -0.1764
 8351TIP3    H149248   3.636   0.867   9.470 -0.9942  0.7754  0.2392
 8351TIP3    H249249   3.600   0.755   9.375  0.7571  0.6854 -0.3550
 8352TIP3   OH249250   3.900   3.988  13.113 -0.5808  0.1791 -0.1678
 8352TIP3    H149251   3.909   4.029  13.027 -2.4552  1.3308  0.1385
 8352TIP3    H249252   3.988   3.993  13.151  0.2442 -0.1766 -1.8942
 8353TIP3   OH249253   6.180   2.051  10.503  0.5174  0.5367  0.2964
 8353TIP3    H149254   6.267   2.088  10.488  0.1203  0.9510 -1.0991
 8353TIP3    H249255   6.143   2.105  10.573  0.4893  1.9084 -0.7408
 8354TIP3   OH249256   5.692   1.819  11.850 -0.4458  0.0534  0.4175
 8354TIP3    H149257   5.611   1.845  11.893 -1.0626 -0.7878 -0.1877
 8354TIP3    H249258   5.759   1.878  11.885 -1.2605  0.5549  1.1551
 8355TIP3   OH249259   1.985   5.896  11.484 -0.1554 -0.3890 -0.5181
 8355TIP3    H149260   2.016   5.948  11.410  0.2547 -1.1973 -0.9153
 8355TIP3    H249261   1.947   5.818  11.445 -1.4557 -0.0648  0.0383
 8356TIP3   OH249262   3.215   0.990  10.087 -0.0159 -0.4356  0.1724
 8356TIP3    H149263   3.270   1.047  10.140 -0.6563  0.6731 -0.3116
 8356TIP3    H249264   3.276   0.942  10.032  0.5009  2.2851 -1.8819
 8357TIP3   OH249265   4.916   5.870  11.626  0.7707  0.5191  0.5572
 8357TIP3    H149266   4.901   5.954  11.583  1.8214 -0.1214 -1.1456
 8357TIP3    H249267   4.910   5.805  11.556 -2.8760 -1.2410  2.2210
 8358TIP3   OH249268   6.225   6.063   9.880  0.6205  0.0526 -0.0104
 8358TIP3    H149269   6.202   6.155   9.892 -0.4118 -0.3849  1.6145
 8358TIP3    H249270   6.169   6.034   9.808  1.4384  0.8355 -0.9913
 8359TIP3   OH249271   6.484   4.611  11.531  0.2608 -0.3186  0.0734
 8359TIP3    H149272   6.467   4.605  11.437  0.8894 -1.1855  0.0000
 8359TIP3    H249273   6.535   4.532  11.551  0.2575 -0.0703  1.1150
 8360TIP3   OH249274   4.109   4.559  12.552 -0.0445  0.2329 -0.5969
 8360TIP3    H149275   4.044   4.510  12.502  0.2908 -0.2185 -0.5978
 8360TIP3    H249276   4.070   4.645  12.564 -1.4421 -0.5714  0.9834
 8361TIP3   OH249277   5.653   5.683  11.654 -0.5445  0.1082 -0.0725
 8361TIP3    H149278   5.628   5.603  11.701 -0.7828 -1.6924 -3.0221
 8361TIP3    H249279   5.570   5.719  11.622 -0.1907 -0.5278 -1.7969
 8362TIP3   OH249280   4.524   3.139  10.400 -0.7008  0.1980 -0.0267
 8362TIP3    H149281   4.549   3.214  10.347 -1.6821  0.6628  0.1427
 8362TIP3    H249282   4.431   3.152  10.419 -1.3537 -1.8863 -1.3826
 8363TIP3   OH249283   4.026   2.626  12.598 -0.0352 -0.1465 -0.1718
 8363TIP3    H149284   4.090   2.632  12.527 -0.4938 -1.6280 -0.7354
 8363TIP3    H249285   3.968   2.555  12.573 -1.8172  1.0362  0.4317
 8364TIP3   OH249286   6.258   0.745   9.325 -0.1859 -0.2514  0.4002
 8364TIP3    H149287   6.277   0.821   9.380  0.8448 -0.2998  0.1352
 8364TIP3    H249288   6.166   0.724   9.343  0.5839 -1.4720  3.5516
 8365TIP3   OH249289   5.219   4.870  11.541  0.1555  0.2847 -0.0799
 8365TIP3    H149290   5.165   4.922  11.601 -0.7672 -0.1516 -0.5275
 8365TIP3    H249291   5.251   4.798  11.596  1.2420  1.1520  0.4796
 8366TIP3   OH249292   0.830   1.656  10.996 -0.1142 -0.1557 -0.4749
 8366TIP3    H149293   0.880   1.604  11.058 -1.5939  0.7602  1.5919
 8366TIP3    H249294   0.744   1.612  10.992 -0.6497  0.8530 -0.3969
 8367TIP3   OH249295   5.748   0.230  11.985 -0.0451  0.6742  0.5957
 8367TIP3    H149296   5.762   0.138  12.010 -0.7159 -0.0147 -1.4003
 8367TIP3    H249297   5.703   0.269  12.061 -2.4132 -1.4054  0.3850
 8368TIP3   OH249298   5.221   0.662  10.002 -0.5195 -0.1137 -0.5645
 8368TIP3    H149299   5.216   0.649  10.097  0.2005  0.7422 -0.3947
 8368TIP3    H249300   5.224   0.757   9.991  1.1207 -0.2166 -1.3214
 8369TIP3   OH249301   3.388   4.637  12.013 -0.0568  0.2682  0.9136
 8369TIP3    H149302   3.298   4.605  12.024 -1.0009  2.6732  0.8350
 8369TIP3    H249303   3.439   4.558  11.994 -2.6238 -0.9469 -1.9412
 8370TIP3   OH249304   0.332   3.056   9.820  0.0763 -0.2117  0.3998
 8370TIP3    H149305   0.313   3.139   9.863  1.7413  0.3398  0.1317
 8370TIP3    H249306   0.422   3.037   9.844  0.3483 -0.9699 -1.1183
 8371TIP3   OH249307   3.026   1.881   9.700  0.4550 -0.2084  0.0009
 8371TIP3    H149308   2.995   1.892   9.790 -0.2786 -1.4223 -0.0745
 8371TIP3    H249309   3.072   1.962   9.680 -1.6522  1.1868  0.5557
 8372TIP3   OH249310   5.522   2.925   9.690 -0.1381 -0.1319 -0.2498
 8372TIP3    H149311   5.468   2.986   9.640 -0.9942  0.4201  1.2827
 8372TIP3    H249312   5.564   2.980   9.756  1.0775 -0.8206 -0.4277
 8373TIP3   OH249313   0.258   1.613  10.121 -0.4396 -0.1200 -0.3927
 8373TIP3    H149314   0.187   1.676  10.106 -0.1739  0.1333 -0.5856
 8373TIP3    H249315   0.250   1.591  10.213 -0.9103 -0.2620 -0.4617
 8374TIP3   OH249316   5.596   2.886  11.774 -0.0896  0.1941 -0.0556
 8374TIP3    H149317   5.579   2.805  11.823  1.1195  0.0189  0.0990
 8374TIP3    H249318   5.553   2.871  11.689 -1.5337  0.1938  0.6442
 8375TIP3   OH249319   2.067   1.278   9.432 -0.8317 -0.2171 -0.0237
 8375TIP3    H149320   1.977   1.295   9.458 -0.5381  1.1822  0.1930
 8375TIP3    H249321   2.061   1.211   9.364 -1.8364 -1.8021  1.5456
 8376TIP3   OH249322   5.471   0.137  10.543  0.0291 -0.2437 -0.0401
 8376TIP3    H149323   5.417   0.061  10.562  1.4733 -1.0324  1.1727
 8376TIP3    H249324   5.505   0.164  10.628 -0.2483  1.6151 -0.4902
 8377TIP3   OH249325   0.643   1.517   9.901 -0.2226  0.2094  0.2216
 8377TIP3    H149326   0.717   1.475   9.945  0.3576 -0.3432 -1.2204
 8377TIP3    H249327   0.612   1.583   9.964  0.5986 -0.4957  1.4096
 8378TIP3   OH249328   6.525   4.550   9.057  0.1968 -0.2108 -0.1411
 8378TIP3    H149329   6.431   4.562   9.064  0.0168 -1.7260  0.2427
 8378TIP3    H249330   6.562   4.633   9.089 -0.9804  0.4150 -0.3422
 8379TIP3   OH249331   5.440   1.036  10.841 -0.1620 -0.4773 -0.3292
 8379TIP3    H149332   5.520   1.008  10.797 -0.7527 -1.1583 -1.0059
 8379TIP3    H249333   5.429   1.128  10.815  0.0647 -0.5646 -0.7485
 8380TIP3   OH249334   4.022   4.083  10.326  0.2497 -0.6835 -0.0856
 8380TIP3    H149335   4.099   4.057  10.376 -0.1526 -0.4167  0.6843
 8380TIP3    H249336   3.948   4.045  10.373 -0.0417 -1.8535 -1.4051
 8381TIP3   OH249337   4.360   0.564  10.123 -0.2500 -0.2168 -0.2828
 8381TIP3    H149338   4.386   0.649  10.158  0.2691 -0.2415 -0.5913
 8381TIP3    H249339   4.305   0.525  10.191  1.1273 -0.4783  0.7221
 8382TIP3   OH249340   3.998   2.611   9.828  0.0454 -0.1432  0.6579
 8382TIP3    H149341   3.995   2.703   9.856 -0.9042 -0.4319  1.5655
 8382TIP3    H249342   3.961   2.612   9.740  0.0308  0.3456  0.6653
 8383TIP3   OH249343   0.538   3.896  12.038 -0.0731 -0.3338 -0.0024
 8383TIP3    H149344   0.507   3.902  12.128 -1.8281 -0.0101 -0.5896
 8383TIP3    H249345   0.500   3.814  12.005  0.3521 -0.3276 -0.5197
 8384TIP3   OH249346   5.841   5.115   9.825 -0.1073 -0.1548 -0.0900
 8384TIP3    H149347   5.832   5.115   9.920 -0.8858 -1.0831 -0.1487
 8384TIP3    H249348   5.854   5.023   9.802  1.4685  0.1967 -0.7841
 8385TIP3   OH249349   0.027   0.062  11.494  0.2413  0.0949  0.4774
 8385TIP3    H149350   0.035  -0.024  11.535  2.1523 -0.6584 -1.3112
 8385TIP3    H249351  -0.035   0.049  11.423 -2.3738  1.1847  2.4137
 8386TIP3   OH249352   5.871   1.353   9.218 -0.1051 -0.3933  0.1833
 8386TIP3    H149353   5.879   1.259   9.206 -0.9386 -0.3615 -0.7503
 8386TIP3    H249354   5.812   1.382   9.148  1.6672  1.1104 -0.7810
 8387TIP3   OH249355   2.874   5.803  11.751  0.3112  0.7377  0.2488
 8387TIP3    H149356   2.861   5.712  11.777 -0.1633  0.2074 -1.6761
 8387TIP3    H249357   2.788   5.843  11.762 -0.6684 -0.1972 -2.8877
 8388TIP3   OH249358   4.169   5.693  12.736  0.1541  0.5173  0.2325
 8388TIP3    H149359   4.208   5.606  12.735 -2.8483 -0.9485  1.0025
 8388TIP3    H249360   4.121   5.699  12.653 -0.2587  1.1471  0.5067
 8389TIP3   OH249361   6.509   6.471  12.539  0.2095 -0.3706 -0.2234
 8389TIP3    H149362   6.553   6.402  12.588 -1.8099 -1.3570  0.3054
 8389TIP3    H249363   6.432   6.428  12.501 -2.3579  1.9392  1.8878
 8390TIP3   OH249364   3.282   1.048  10.838  0.4927 -0.4209  0.2811
 8390TIP3    H149365   3.312   1.011  10.921 -1.2210  0.3408  1.3006
 8390TIP3    H249366   3.341   1.012  10.773  0.7833 -2.4845  1.5945
 8391TIP3   OH249367   4.159   1.940  10.930  0.1073  0.2233 -0.3748
 8391TIP3    H149368   4.093   1.995  10.887  0.8529  1.9744  0.6313
 8391TIP3    H249369   4.191   1.993  11.003  2.1135 -0.8635 -0.3899
 8392TIP3   OH249370   0.268   3.904  12.362  0.1736  0.1365  0.4662
 8392TIP3    H149371   0.356   3.923  12.332 -0.2560  1.6051  0.0375
 8392TIP3    H249372   0.277   3.889  12.456  0.7657  1.1982  0.5898
 8393TIP3   OH249373   3.418   3.575  10.593 -0.3626 -0.3292 -0.2453
 8393TIP3    H149374   3.456   3.533  10.516 -0.8607 -1.6108  0.1900
 8393TIP3    H249375   3.484   3.638  10.621  0.2484 -0.5628 -1.1321
 8394TIP3   OH249376   4.639   1.178   9.892  0.3308 -0.7235 -0.3047
 8394TIP3    H149377   4.594   1.093   9.896  0.1886 -0.6556 -0.4832
 8394TIP3    H249378   4.652   1.202   9.984  1.5514 -1.5600 -0.2329
 8395TIP3   OH249379   0.674   1.544   9.394 -0.3589  0.2688  0.4115
 8395TIP3    H149380   0.712   1.631   9.384 -1.4444  1.0968  2.8678
 8395TIP3    H249381   0.746   1.484   9.377  1.1735  1.7137  1.5695
 8396TIP3   OH249382   1.316   4.854  10.616 -0.0673 -0.5757  0.1415
 8396TIP3    H149383   1.331   4.915  10.545  1.0305  1.0476  1.6735
 8396TIP3    H249384   1.220   4.851  10.626 -0.1627  0.4090 -0.3740
 8397TIP3   OH249385   2.254   6.196  10.876 -0.2238  0.0551  0.0164
 8397TIP3    H149386   2.306   6.117  10.892 -1.6011 -0.7683  0.6505
 8397TIP3    H249387   2.315   6.268  10.887  1.0388 -0.9049 -0.4104
 8398TIP3   OH249388   4.878   5.206  10.833 -0.3531 -0.5642  0.1433
 8398TIP3    H149389   4.968   5.226  10.809 -1.2299  1.4058 -1.8663
 8398TIP3    H249390   4.829   5.210  10.751 -2.3981 -0.7716  1.2694
 8399TIP3   OH249391   1.392   5.011  10.047  0.4839  0.1387  0.2839
 8399TIP3    H149392   1.347   5.083  10.092 -0.6933  0.6641 -1.6517
 8399TIP3    H249393   1.347   5.002   9.963  0.9504 -2.5154  0.2192
 8400TIP3   OH249394   6.657   5.763   9.637  0.6999 -0.1087  0.1334
 8400TIP3    H149395   6.728   5.759   9.573  0.9539 -0.6232  0.4411
 8400TIP3    H249396   6.666   5.850   9.676 -0.1940  0.6840 -1.3357
 8401TIP3   OH249397   4.472   3.539  11.424 -0.0817  0.5635  0.0290
 8401TIP3    H149398   4.495   3.470  11.485  0.3600  1.1416  0.5195
 8401TIP3    H249399   4.475   3.497  11.338 -1.0196 -0.3350  0.4149
 8402TIP3   OH249400   5.831   3.302  11.718  0.5486 -0.1906  0.0609
 8402TIP3    H149401   5.904   3.363  11.722  0.6616 -0.3553  0.7578
 8402TIP3    H249402   5.754   3.357  11.706  0.4489  0.2778  2.4272
 8403TIP3   OH249403   3.987   6.167  11.003  0.4942  0.0482  0.2847
 8403TIP3    H149404   4.032   6.146  11.085 -0.1321  2.2207  1.2865
 8403TIP3    H249405   4.012   6.258  10.985 -2.9631  1.2400  0.6452
 8404TIP3   OH249406   1.556   6.248  10.174  0.2020 -0.4586 -0.0456
 8404TIP3    H149407   1.617   6.209  10.237 -0.2784  0.5810  1.1045
 8404TIP3    H249408   1.471   6.210  10.198  0.1677 -0.8434 -0.7528
 8405TIP3   OH249409   5.978   4.838  10.728 -0.3766 -0.5872  0.3302
 8405TIP3    H149410   5.922   4.826  10.805  1.4590 -0.8125  1.7136
 8405TIP3    H249411   5.928   4.895  10.670 -2.5461 -1.7794  0.8904
 8406TIP3   OH249412   2.779   2.979   9.909  0.4581  0.1341  0.3664
 8406TIP3    H149413   2.826   2.896   9.912 -0.2595 -0.3420 -0.8629
 8406TIP3    H249414   2.693   2.961   9.947  0.1245  0.1739 -0.3483
 8407TIP3   OH249415   2.455   2.739  10.474 -0.0431  0.3224 -0.6642
 8407TIP3    H149416   2.440   2.828  10.441  0.4015  0.6676  0.0377
 8407TIP3    H249417   2.516   2.750  10.547 -0.9961 -0.4115  0.2806
 8408TIP3   OH249418   0.214   0.253   9.493  0.2187 -0.0611  0.3947
 8408TIP3    H149419   0.258   0.333   9.522  1.6503 -0.5375 -0.4121
 8408TIP3    H249420   0.174   0.276   9.410 -0.6772  0.2263  0.8877
 8409TIP3   OH249421   4.409   4.938  10.439 -0.3468  0.7042  0.4272
 8409TIP3    H149422   4.438   4.870  10.379 -2.0592 -0.7367  1.1633
 8409TIP3    H249423   4.363   5.001  10.383  1.8719  1.7289 -0.3654
 8410TIP3   OH249424   1.885   3.713  11.606  0.2148 -0.5135  0.5272
 8410TIP3    H149425   1.823   3.785  11.621  0.3581  0.1424 -1.6858
 8410TIP3    H249426   1.957   3.754  11.558  1.2978 -1.7541  1.0335
 8411TIP3   OH249427   2.995   2.953  12.042  0.4824  0.0043  0.0806
 8411TIP3    H149428   2.944   2.892  12.095  1.0006 -0.8901 -0.4276
 8411TIP3    H249429   2.955   3.038  12.059  1.3451 -0.0242  2.8402
 8412TIP3   OH249430   6.047   2.174   9.670  0.3398 -0.1067 -0.3735
 8412TIP3    H149431   6.054   2.142   9.580 -1.3467 -0.9108 -0.2621
 8412TIP3    H249432   6.082   2.103   9.724 -1.2801 -0.8623 -0.2616
 8413TIP3   OH249433   2.557   4.045  11.178  0.2604  0.5947 -0.4419
 8413TIP3    H149434   2.625   4.058  11.111  0.0053  2.2493 -0.3970
 8413TIP3    H249435   2.508   4.127  11.180 -0.6536  0.0525  0.7740
 8414TIP3   OH249436   4.783   5.835  11.323 -0.9331 -0.3362  0.2620
 8414TIP3    H149437   4.870   5.796  11.325 -0.3560  0.8684 -0.4547
 8414TIP3    H249438   4.785   5.895  11.248 -1.6271  1.4384  1.5961
 8415TIP3   OH249439   3.214   4.079  11.883 -0.8598 -0.1038  0.3489
 8415TIP3    H149440   3.226   4.123  11.967 -0.3136  1.1159 -0.3387
 8415TIP3    H249441   3.184   4.148  11.824  1.0194 -0.3675 -1.0168
 8416TIP3   OH249442   2.932   6.444  11.371 -0.5170  0.5193  0.1877
 8416TIP3    H149443   2.877   6.382  11.418 -0.0691  0.2198  0.3214
 8416TIP3    H249444   2.917   6.425  11.279  0.9617 -1.0300  0.2029
 8417TIP3   OH249445   5.075   4.136  11.135  1.2123  0.1264  0.3121
 8417TIP3    H149446   5.072   4.091  11.220  2.3099 -0.4415  0.0748
 8417TIP3    H249447   5.021   4.081  11.078  2.2497 -0.7343  0.1164
 8418TIP3   OH249448   3.774   5.525  11.810 -0.2876 -0.0653 -0.6443
 8418TIP3    H149449   3.693   5.479  11.789  1.0531 -3.6052  1.0890
 8418TIP3    H249450   3.840   5.484  11.753  1.2447 -1.5470  2.0088
 8419TIP3   OH249451   3.394   5.336  12.015  0.3152 -0.0820 -0.2149
 8419TIP3    H149452   3.312   5.317  11.968  0.7122 -1.9211 -0.2129
 8419TIP3    H249453   3.389   5.285  12.095  1.4101 -0.1451 -0.1653
 8420TIP3   OH249454   0.251   0.102   9.710  0.0874  0.3836  0.1938
 8420TIP3    H149455   0.264   0.135   9.621 -0.3515 -0.3722 -0.1686
 8420TIP3    H249456   0.158   0.118   9.728 -0.0538 -0.3372  0.1345
 8421TIP3   OH249457   1.662   6.461  11.006 -0.5456 -0.1770  0.3226
 8421TIP3    H149458   1.687   6.543  10.965  0.2629  0.0138  1.1646
 8421TIP3    H249459   1.625   6.486  11.091  0.0081 -0.6861  0.7248
 8422TIP3   OH249460   1.167   3.927  11.153 -0.2791  0.3312 -0.1520
 8422TIP3    H149461   1.245   3.973  11.123 -0.2204  0.0778 -0.3943
 8422TIP3    H249462   1.107   3.996  11.179  0.7017  0.5352  1.8092
 8423TIP3   OH249463   2.702   2.680  11.163 -0.1711  0.4301 -0.1958
 8423TIP3    H149464   2.627   2.683  11.222  0.3276 -0.8921  0.5533
 8423TIP3    H249465   2.736   2.770  11.161 -1.4615  0.9300 -0.1545
 8424TIP3   OH249466   1.727   2.237   9.662  0.7492 -0.1664 -0.6540
 8424TIP3    H149467   1.723   2.153   9.708 -1.4102  0.3066  0.1610
 8424TIP3    H249468   1.739   2.302   9.732  1.6897  0.2707 -1.2073
 8425TIP3   OH249469   6.582   4.121  12.917  0.6633  0.3776  0.1518
 8425TIP3    H149470   6.506   4.145  12.971  1.1434  0.9806  0.5799
 8425TIP3    H249471   6.604   4.201  12.870 -0.7482 -0.5473 -2.2457
 8426TIP3   OH249472   6.609   4.351  11.659 -0.0206 -0.0841 -0.0804
 8426TIP3    H149473   6.684   4.372  11.714  0.1538  3.4545 -1.3920
 8426TIP3    H249474   6.639   4.278  11.605  1.2658 -0.8908  1.6545
 8427TIP3   OH249475   6.276   0.261  10.771 -0.1883  0.5151  0.0335
 8427TIP3    H149476   6.277   0.345  10.817  1.7648  1.3648 -1.4329
 8427TIP3    H249477   6.369   0.236  10.764 -0.6681 -1.3339 -0.3479
 8428TIP3   OH249478   4.050   2.028  10.328  0.2300 -0.2093 -0.4996
 8428TIP3    H149479   4.034   1.934  10.317  1.9914 -0.8321  1.5596
 8428TIP3    H249480   3.979   2.070  10.279  0.2789 -2.5499 -2.8378
 8429TIP3   OH249481   5.931   3.952  12.136  0.0558 -1.1021  0.4695
 8429TIP3    H149482   6.003   3.888  12.136 -0.2432 -1.4770  2.3547
 8429TIP3    H249483   5.904   3.958  12.227  0.4421  2.1887  0.4694
 8430TIP3   OH249484   0.830   2.260   9.600  0.5623  0.5733 -0.1123
 8430TIP3    H149485   0.777   2.269   9.679 -1.6608  0.6600 -1.5245
 8430TIP3    H249486   0.868   2.172   9.608  0.4271  0.5971  1.0773
 8431TIP3   OH249487   2.649   5.415  10.164  0.7222 -0.5047 -0.2089
 8431TIP3    H149488   2.683   5.353  10.229  0.9366 -1.1145 -0.8890
 8431TIP3    H249489   2.570   5.373  10.130  0.1267  0.2088  0.2575
 8432TIP3   OH249490   5.489   0.824   9.370  0.1994  0.9781 -0.8363
 8432TIP3    H149491   5.436   0.901   9.392 -0.3909 -0.0541  1.7206
 8432TIP3    H249492   5.579   0.851   9.388  0.0976  1.3928 -0.9383
 8433TIP3   OH249493   4.654   0.208   9.601  0.3093 -0.0993 -0.5105
 8433TIP3    H149494   4.686   0.273   9.663 -1.9048 -0.9422  1.6733
 8433TIP3    H249495   4.709   0.131   9.617  0.4116  0.0048 -0.3577
 8434TIP3   OH249496   4.037   2.627  13.095 -0.3138 -0.2434  0.0415
 8434TIP3    H149497   4.008   2.555  13.039 -1.4296  0.6435 -0.5525
 8434TIP3    H249498   4.059   2.697  13.035 -1.0598  0.5531  0.6700
 8435TIP3   OH249499   3.683   4.003  10.056 -0.0830 -0.0900  0.1708
 8435TIP3    H149500   3.667   3.936  10.121 -0.5330 -1.0497 -0.8900
 8435TIP3    H249501   3.606   4.059  10.059 -1.0866 -1.3499 -0.9431
 8436TIP3   OH249502   0.474   1.839  10.349  0.0803  0.2107 -0.0601
 8436TIP3    H149503   0.380   1.824  10.346  0.0138  0.6614 -0.3281
 8436TIP3    H249504   0.484   1.934  10.338  0.5589  0.1766  0.0411
 8437TIP3   OH249505   3.553   5.272  10.218  0.2632  0.0750 -0.2704
 8437TIP3    H149506   3.531   5.228  10.300 -0.7115 -0.4221 -0.7703
 8437TIP3    H249507   3.619   5.336  10.242 -0.2485  0.1756  0.9639
 8438TIP3   OH249508   6.116   5.485  10.142 -0.4155  0.1717  0.2050
 8438TIP3    H149509   6.069   5.403  10.154  1.9191 -1.2041  0.6566
 8438TIP3    H249510   6.178   5.467  10.071  1.6483  0.7724  1.7605
 8439TIP3   OH249511   2.552   0.314  11.360 -0.6533 -0.2385 -0.0030
 8439TIP3    H149512   2.519   0.382  11.419 -1.8218 -2.2819  1.9017
 8439TIP3    H249513   2.624   0.273  11.410 -1.5887 -1.9382  0.0179
 8440TIP3   OH249514   5.565   5.317  12.401 -0.4038  0.0416 -0.3105
 8440TIP3    H149515   5.603   5.398  12.366  4.1521 -0.9490  1.6785
 8440TIP3    H249516   5.564   5.330  12.496  3.3801 -3.0805  0.3888
 8441TIP3   OH249517   1.688   0.200   9.848  0.1483 -0.5345 -0.2623
 8441TIP3    H149518   1.741   0.191   9.927  0.9918 -1.2704 -0.8804
 8441TIP3    H249519   1.603   0.163   9.871 -0.3594  1.2556  0.9489
 8442TIP3   OH249520   3.056   0.854  12.377  0.2326 -0.1858  0.6270
 8442TIP3    H149521   3.091   0.855  12.467 -0.5707 -1.0310  0.9601
 8442TIP3    H249522   3.118   0.800  12.328  1.2604  1.1327  0.3992
 8443TIP3   OH249523   6.438   2.382  10.256 -0.2595  0.7454 -0.1021
 8443TIP3    H149524   6.388   2.363  10.335 -1.2550 -1.6466 -1.2038
 8443TIP3    H249525   6.382   2.441  10.206 -1.2354 -0.4731 -0.5058
 8444TIP3   OH249526   4.423   4.114  10.784 -0.4920  0.1895  0.3262
 8444TIP3    H149527   4.357   4.162  10.834  0.4406  0.5325  1.2570
 8444TIP3    H249528   4.439   4.168  10.707 -0.7657  0.4660  0.4610
 8445TIP3   OH249529   0.225   1.537  11.390 -0.6513 -0.0631 -0.2341
 8445TIP3    H149530   0.198   1.480  11.462 -0.1042  0.3403  0.3058
 8445TIP3    H249531   0.318   1.554  11.407 -0.0601 -1.3228 -1.9724
 8446TIP3   OH249532   0.074   2.267   9.843 -0.0511  0.3971 -0.1936
 8446TIP3    H149533   0.087   2.355   9.806  2.4337  1.4158  2.6501
 8446TIP3    H249534   0.127   2.210   9.787 -1.1169  0.7553 -1.6412
 8447TIP3   OH249535   2.904   2.316  11.191 -0.2426 -0.2702  0.2825
 8447TIP3    H149536   2.910   2.407  11.220  0.9901 -0.1542 -0.2522
 8447TIP3    H249537   2.926   2.264  11.268 -0.4039 -0.0970  0.4456
 8448TIP3   OH249538   2.683   4.689  12.863  0.3123  0.7008 -0.0194
 8448TIP3    H149539   2.755   4.686  12.800 -0.1768 -1.4895 -0.5291
 8448TIP3    H249540   2.673   4.599  12.893  0.4088  1.6187  3.1107
 8449TIP3   OH249541   6.120   3.623  11.486 -0.3776  0.0582 -0.1102
 8449TIP3    H149542   6.141   3.657  11.399  0.5386 -0.0432  0.0531
 8449TIP3    H249543   6.189   3.658  11.542 -1.5209  0.9506  0.7851
 8450TIP3   OH249544   2.293   6.170   9.672  0.2942  0.3272  0.7539
 8450TIP3    H149545   2.295   6.206   9.761 -1.1076 -0.1594  1.0188
 8450TIP3    H249546   2.340   6.234   9.619  0.2508  1.1489  1.6726
 8451TIP3   OH249547   0.501   5.473  12.267  0.0954 -0.7713  0.3495
 8451TIP3    H149548   0.519   5.391  12.221 -0.0568 -0.1632 -0.8452
 8451TIP3    H249549   0.425   5.510  12.222 -0.5180 -0.4839  1.5752
 8452TIP3   OH249550   2.873   2.689  10.531  0.1177  0.1252 -0.1220
 8452TIP3    H149551   2.783   2.680  10.561 -0.1793  2.7893 -0.0394
 8452TIP3    H249552   2.893   2.782  10.538  2.5813 -0.2337 -1.0388
 8453TIP3   OH249553   5.407   3.860   9.839 -0.6439  0.5801  0.3886
 8453TIP3    H149554   5.489   3.861   9.889 -0.8643 -0.2991  0.7899
 8453TIP3    H249555   5.350   3.922   9.885 -0.5426  0.4416  0.7062
 8454TIP3   OH249556   1.123   6.158  12.578 -0.6091  0.7742  0.2387
 8454TIP3    H149557   1.132   6.063  12.590  1.0816  1.1510  2.6357
 8454TIP3    H249558   1.093   6.167  12.488  1.1098 -1.9803 -0.7588
 8455TIP3   OH249559   2.861   5.523  11.999 -0.0646 -0.1903  0.0895
 8455TIP3    H149560   2.839   5.588  12.066 -1.5317 -0.0682 -0.4579
 8455TIP3    H249561   2.794   5.456  12.008  1.3452 -1.5942  0.5434
 8456TIP3   OH249562   0.570   3.787  11.649  0.4968 -0.1789  0.2352
 8456TIP3    H149563   0.576   3.802  11.743 -1.4069  1.1928  0.2040
 8456TIP3    H249564   0.661   3.780  11.620  1.1527  0.4238  2.0100
 8457TIP3   OH249565   3.652   2.780  10.853 -0.0470 -0.0543  0.2902
 8457TIP3    H149566   3.573   2.808  10.900  0.0194 -0.9434  0.9615
 8457TIP3    H249567   3.723   2.830  10.893 -0.1320 -0.0360  0.4195
 8458TIP3   OH249568   5.921   5.930  10.537 -0.0869 -0.5774  0.0269
 8458TIP3    H149569   5.925   5.853  10.481 -0.9620 -0.7850  0.2402
 8458TIP3    H249570   5.845   5.915  10.593 -0.1946  0.3865  0.1542
 8459TIP3   OH249571   0.919   5.084  13.072  0.1795 -0.0607  0.1950
 8459TIP3    H149572   0.981   5.012  13.064 -0.0244 -0.1826 -0.2670
 8459TIP3    H249573   0.837   5.042  13.098  0.1541  0.0445  0.2850
 8460TIP3   OH249574   5.630   5.733  12.073 -0.3559  0.0083 -0.4753
 8460TIP3    H149575   5.710   5.766  12.031  0.1358 -1.8356 -1.1275
 8460TIP3    H249576   5.639   5.758  12.164 -0.6121  2.6284 -1.1090
 8461TIP3   OH249577   4.110   5.788  11.364 -0.1365  0.2373  0.5715
 8461TIP3    H149578   4.151   5.766  11.447  0.3702 -0.7831  0.0724
 8461TIP3    H249579   4.173   5.846  11.321  0.7786 -1.1976 -0.1246
 8462TIP3   OH249580   5.210   4.775  12.230 -0.2193  0.0439  0.5704
 8462TIP3    H149581   5.220   4.758  12.324  0.2880 -0.1203  0.4919
 8462TIP3    H249582   5.238   4.867  12.220  1.0225 -0.3300  0.3927
 8463TIP3   OH249583   4.354   5.281  11.993  0.0816 -0.1895  0.0972
 8463TIP3    H149584   4.261   5.268  12.010  0.1934 -1.1536  0.0197
 8463TIP3    H249585   4.358   5.314  11.903 -0.1507 -0.7986 -0.1393
 8464TIP3   OH249586   2.416   4.970  11.662 -0.1293 -0.3345  0.9647
 8464TIP3    H149587   2.321   4.982  11.656 -0.2053 -0.7490  1.2980
 8464TIP3    H249588   2.452   5.056  11.642 -0.5816 -0.1358  0.9866
 8465TIP3   OH249589   3.516   4.251  11.130 -0.1331 -0.5339 -0.0021
 8465TIP3    H149590   3.493   4.338  11.161  0.7271 -0.8414  1.6096
 8465TIP3    H249591   3.559   4.266  11.046 -1.0659  0.4703 -0.3314
 8466TIP3   OH249592   2.122   1.882   9.077 -0.5030 -0.2528  0.9850
 8466TIP3    H149593   2.118   1.915   8.987 -0.9705 -0.9691  0.7334
 8466TIP3    H249594   2.169   1.799   9.069  0.5989  0.2978  1.5947
 8467TIP3   OH249595   5.260   5.409   9.447  0.5136  0.0848  0.1338
 8467TIP3    H149596   5.209   5.363   9.514  1.3184  2.5652  2.6510
 8467TIP3    H249597   5.283   5.493   9.488  3.4067  0.6256 -2.2608
 8468TIP3   OH249598   1.708   3.409   9.520 -0.2197 -0.2329  0.0112
 8468TIP3    H149599   1.632   3.377   9.568 -0.6218 -0.2718 -0.6494
 8468TIP3    H249600   1.762   3.331   9.505  0.8704  0.0493  2.0608
 8469TIP3   OH249601   0.249   2.889  11.881  0.4752 -0.3894 -0.5506
 8469TIP3    H149602   0.226   2.914  11.971  0.1210 -1.0905 -0.4339
 8469TIP3    H249603   0.240   2.794  11.880  0.2327 -0.3700 -1.3949
 8470TIP3   OH249604   6.453   1.664   9.642  0.7675 -0.1157 -0.3962
 8470TIP3    H149605   6.533   1.612   9.656  0.0840 -0.9499  0.5342
 8470TIP3    H249606   6.409   1.621   9.569  0.2419 -0.8081  0.3220
 8471TIP3   OH249607   3.058   3.311  10.783 -0.0757 -0.2265  0.0790
 8471TIP3    H149608   2.985   3.289  10.725 -0.2091  2.2617 -0.8257
 8471TIP3    H249609   3.135   3.309  10.726  0.2418 -0.5656  0.5075
 8472TIP3   OH249610   2.437   0.135  10.543  0.3270  0.2671 -0.0978
 8472TIP3    H149611   2.518   0.186  10.542 -0.2868  1.2676 -0.1965
 8472TIP3    H249612   2.424   0.113  10.636  0.0089  1.2988  0.1248
 8473TIP3   OH249613   6.453   2.293  12.464 -0.2995 -0.4335  0.4018
 8473TIP3    H149614   6.409   2.372  12.495  0.5319 -0.5638  2.0272
 8473TIP3    H249615   6.496   2.257  12.542  1.2497 -1.2381 -0.7597
 8474TIP3   OH249616   5.050   2.840   9.162 -0.4026 -0.6435 -0.6205
 8474TIP3    H149617   5.046   2.789   9.243  0.2692 -0.2712 -0.3411
 8474TIP3    H249618   5.085   2.925   9.190 -5.1657  1.5555 -0.2800
 8475TIP3   OH249619   1.714   3.727   9.758 -0.1323 -0.0686  0.2744
 8475TIP3    H149620   1.654   3.773   9.816  0.6472 -0.8210  1.7395
 8475TIP3    H249621   1.708   3.636   9.785  1.8289 -0.1317  0.6471
 8476TIP3   OH249622   6.680   5.889   9.343 -0.0357 -0.4498 -0.1224
 8476TIP3    H149623   6.728   5.807   9.331  0.6084  0.0343 -1.0352
 8476TIP3    H249624   6.738   5.943   9.396  0.0413 -0.1907 -0.4641
 8477TIP3   OH249625   6.295   3.415   9.279  0.3662 -0.6296  0.3207
 8477TIP3    H149626   6.357   3.410   9.351  0.5926  1.1072  0.2803
 8477TIP3    H249627   6.285   3.509   9.261 -1.1697 -0.9277 -0.6232
 8478TIP3   OH249628   6.436   4.127   9.643 -0.1868  0.9962  0.5609
 8478TIP3    H149629   6.476   4.041   9.654  1.0329  1.7891  2.9485
 8478TIP3    H249630   6.391   4.122   9.558  0.8615 -1.5595  0.0737
 8479TIP3   OH249631   6.362   1.849  10.182  0.6208 -0.4020 -0.0938
 8479TIP3    H149632   6.385   1.941  10.171 -0.1646 -0.2687 -0.6447
 8479TIP3    H249633   6.379   1.832  10.275  1.0253  0.2197 -0.0454
 8480TIP3   OH249634   4.674   5.550  11.516  0.0673  0.7129  0.2482
 8480TIP3    H149635   4.594   5.602  11.521  0.7909  1.8268  0.6948
 8480TIP3    H249636   4.673   5.512  11.428 -2.1068 -1.2719  1.0264
 8481TIP3   OH249637   5.519   0.821  11.174 -0.1641  0.1191  0.5169
 8481TIP3    H149638   5.472   0.887  11.123 -0.5481 -0.3787  0.2270
 8481TIP3    H249639   5.592   0.869  11.213  1.4740  0.0683 -2.2854
 8482TIP3   OH249640   3.606   4.919  10.848  0.1862 -0.0482  0.2126
 8482TIP3    H149641   3.681   4.940  10.791  0.0996  1.9895  0.7524
 8482TIP3    H249642   3.529   4.942  10.795  0.0744  0.8865  0.7564
 8483TIP3   OH249643   2.683   6.242   9.686 -0.1308  0.1084 -0.2082
 8483TIP3    H149644   2.762   6.272   9.642 -0.1886  0.4682 -0.0711
 8483TIP3    H249645   2.683   6.148   9.673 -0.6227  0.2922 -1.7522
 8484TIP3   OH249646   3.958   4.529  10.938  0.6696  0.1059  0.6243
 8484TIP3    H149647   3.986   4.457  10.882  2.5060  1.5785 -0.4708
 8484TIP3    H249648   3.986   4.503  11.026  0.8464 -0.7510  0.3187
 8485TIP3   OH249649   6.583   1.911  10.993  0.3898 -0.4438  0.4142
 8485TIP3    H149650   6.630   1.834  10.959  0.8724  0.5625 -1.3190
 8485TIP3    H249651   6.554   1.957  10.915  2.0822  2.3542  1.2984
 8486TIP3   OH249652   2.562   2.845  10.038  0.1750 -0.1806  0.1873
 8486TIP3    H149653   2.518   2.771  10.081  0.0324  0.2283  0.7435
 8486TIP3    H249654   2.491   2.903  10.012  0.1511 -0.9493 -1.6453
 8487TIP3   OH249655   1.419   1.526  11.799 -0.0704 -0.1215  0.3907
 8487TIP3    H149656   1.375   1.535  11.884  0.2067 -0.9419  0.6353
 8487TIP3    H249657   1.487   1.593  11.800  1.4142 -1.5353  1.7868
 8488TIP3   OH249658   1.292   4.725   9.345  0.5105 -0.0865 -0.1644
 8488TIP3    H149659   1.383   4.711   9.370  0.7448  1.5607  0.0208
 8488TIP3    H249660   1.249   4.641   9.363  1.8316 -0.6690  0.4174
 8489TIP3   OH249661   4.599   1.925  11.723 -0.5058 -0.2502 -0.6859
 8489TIP3    H149662   4.628   2.015  11.705 -0.2013 -0.3308 -0.5978
 8489TIP3    H249663   4.646   1.900  11.802 -0.5557 -0.5068 -0.7387
 8490TIP3   OH249664   1.872   0.836  13.150  0.0735 -0.4236 -0.7174
 8490TIP3    H149665   1.962   0.864  13.138  0.0292  1.1597  1.8295
 8490TIP3    H249666   1.820   0.910  13.118 -0.2724 -0.7615 -0.9377
 8491TIP3   OH249667   6.664   2.125  10.603  0.2250 -0.1085  0.4405
 8491TIP3    H149668   6.734   2.113  10.667  0.6110 -1.0603 -0.1455
 8491TIP3    H249669   6.693   2.200  10.551  0.2966  0.1622  0.8633
 8492TIP3   OH249670   2.390   5.173  12.077 -0.2883 -0.4546  0.1702
 8492TIP3    H149671   2.464   5.154  12.020  0.1571  0.5605  0.3873
 8492TIP3    H249672   2.347   5.249  12.037 -3.2801 -2.9818 -1.8569
 8493TIP3   OH249673   1.043   3.517  10.294 -0.0710  0.3726 -0.6438
 8493TIP3    H149674   1.038   3.458  10.369 -1.5050  2.6170  1.1465
 8493TIP3    H249675   1.136   3.537  10.285  0.2550 -0.8704 -0.2844
 8494TIP3   OH249676   3.434   3.980  12.305  0.7656  0.0928 -0.6417
 8494TIP3    H149677   3.357   3.961  12.251 -0.0297 -0.0666  0.5023
 8494TIP3    H249678   3.398   4.018  12.386  1.9491  0.7740 -0.4113
 8495TIP3   OH249679   5.634   2.425  11.305 -0.1664 -0.1875  0.3700
 8495TIP3    H149680   5.589   2.482  11.243 -1.5828 -1.3978  0.2242
 8495TIP3    H249681   5.586   2.342  11.301  1.3827 -1.1703  1.1018
 8496TIP3   OH249682   5.344   4.087  11.563 -0.1665 -0.2938 -0.4442
 8496TIP3    H149683   5.341   3.999  11.601  1.7666  0.2724  1.1695
 8496TIP3    H249684   5.325   4.073  11.470  1.8529 -2.7028 -0.6154
 8497TIP3   OH249685   3.969   6.179   9.317 -0.7336 -0.1205 -0.3287
 8497TIP3    H149686   3.914   6.120   9.267 -2.0413  1.2943 -0.6407
 8497TIP3    H249687   3.909   6.220   9.380  0.2928  0.2915  0.4196
 8498TIP3   OH249688   1.847   2.584  12.010  0.0183  0.3745 -0.4768
 8498TIP3    H149689   1.765   2.627  11.986 -0.3449  0.6818  1.1737
 8498TIP3    H249690   1.910   2.656  12.018  0.0031  0.3353 -0.0079
 8499TIP3   OH249691   4.358   2.919  11.204 -0.6163 -0.6397 -0.3454
 8499TIP3    H149692   4.396   2.976  11.271  1.0696 -1.3043 -0.6961
 8499TIP3    H249693   4.302   2.858  11.253 -0.7143 -0.0694  0.2615
 8500TIP3   OH249694   0.971   4.020  10.716 -0.0931  0.4214 -0.1686
 8500TIP3    H149695   0.888   4.060  10.741 -1.2352 -0.7265 -1.9357
 8500TIP3    H249696   1.015   4.088  10.665  0.7438  1.5278  1.8691
 8501TIP3   OH249697   2.913   5.131  10.205  0.4188  0.3396 -0.4417
 8501TIP3    H149698   2.965   5.138  10.124  0.6212 -2.0053 -0.5799
 8501TIP3    H249699   2.978   5.111  10.273 -0.0447 -0.4604 -0.2239
 8502TIP3   OH249700   4.703   0.065  10.712  0.7981 -0.8347 -0.5991
 8502TIP3    H149701   4.732   0.068  10.804  1.3630 -1.6351 -0.7409
 8502TIP3    H249702   4.632   0.129  10.708  0.8441 -0.6958  0.3705
 8503TIP3   OH249703   0.111   4.044  12.975  0.2207 -0.2836 -0.3505
 8503TIP3    H149704   0.020   4.069  12.956 -0.6671  0.4913  3.7427
 8503TIP3    H249705   0.108   3.949  12.985 -0.1962 -0.2503 -0.1112
 8504TIP3   OH249706   3.801   1.294   9.993  0.2649  0.1759  0.5487
 8504TIP3    H149707   3.709   1.312  10.016  0.1551 -1.2875  1.4096
 8504TIP3    H249708   3.836   1.249  10.070  1.0834 -1.2231 -0.5860
 8505TIP3   OH249709   1.373   2.417  11.911 -0.2026 -0.0625  0.3484
 8505TIP3    H149710   1.362   2.473  11.988 -0.1946 -2.1016  1.8970
 8505TIP3    H249711   1.462   2.435  11.881 -0.4105  1.1939  0.4255
 8506TIP3   OH249712   1.299   6.145  10.279 -0.1900  0.1849  0.1161
 8506TIP3    H149713   1.298   6.138  10.183 -1.0048  0.4819  0.0958
 8506TIP3    H249714   1.230   6.209  10.299 -0.1966 -0.0674  0.9174
 8507TIP3   OH249715   3.838   5.013  10.001  0.3754 -0.5251 -0.0716
 8507TIP3    H149716   3.846   5.095  10.049  1.2950 -0.9964  0.5903
 8507TIP3    H249717   3.850   5.038   9.909  0.1477  0.1445  0.0749
 8508TIP3   OH249718   5.852   5.591  10.971  0.6911 -0.0430 -0.4302
 8508TIP3    H149719   5.865   5.578  10.877  1.0779 -0.8576 -0.2678
 8508TIP3    H249720   5.921   5.653  10.996 -0.7012  1.8780 -1.0602
 8509TIP3   OH249721   5.742   4.098  11.789  0.4883 -0.3152 -0.0886
 8509TIP3    H149722   5.656   4.126  11.760 -0.4920 -3.0867 -0.2006
 8509TIP3    H249723   5.793   4.179  11.799 -2.6260  1.6171  1.7431
 8510TIP3   OH249724   6.382   1.310   9.909 -0.2496 -0.5157 -0.3350
 8510TIP3    H149725   6.420   1.311   9.822  0.3427 -1.5877 -0.1075
 8510TIP3    H249726   6.362   1.218   9.926 -1.2379 -0.2126  0.2925
 8511TIP3   OH249727   3.487   5.629  11.122 -0.1351 -0.4269  0.3910
 8511TIP3    H149728   3.453   5.540  11.129 -1.5070 -0.1821 -2.0811
 8511TIP3    H249729   3.411   5.685  11.135  0.6837  0.4285  1.7511
 8512TIP3   OH249730   2.065   4.640  10.344  0.1276 -0.1820 -1.2056
 8512TIP3    H149731   2.040   4.592  10.423 -1.7881  1.1944 -0.8974
 8512TIP3    H249732   2.082   4.572  10.279 -2.8416 -1.3637 -0.8888
 8513TIP3   OH249733   5.583   3.460  11.575 -0.3196 -0.0836  0.3353
 8513TIP3    H149734   5.606   3.471  11.483 -1.4300 -0.8981 -0.0483
 8513TIP3    H249735   5.601   3.546  11.614 -1.7668  0.8999 -1.0541
 8514TIP3   OH249736   6.206   3.882  12.357 -0.3304 -0.4778  0.1756
 8514TIP3    H149737   6.157   3.958  12.387 -0.4467 -0.0743 -1.0029
 8514TIP3    H249738   6.211   3.825  12.434  2.5067  2.0462  2.1225
 8515TIP3   OH249739   4.119   3.314   9.830  0.6157 -0.1120  0.1682
 8515TIP3    H149740   4.158   3.227   9.840 -0.0179 -0.2591  1.7238
 8515TIP3    H249741   4.035   3.298   9.788 -0.0471 -0.4259  1.5633
 8516TIP3   OH249742   5.292   5.635  10.262 -0.3412 -0.3845 -0.0960
 8516TIP3    H149743   5.222   5.622  10.198 -0.5445  0.1162  0.0183
 8516TIP3    H249744   5.339   5.712  10.230 -0.9779  0.4032  0.8235
 8517TIP3   OH249745   4.773   4.255  12.183  0.0150 -0.4591 -0.4148
 8517TIP3    H149746   4.757   4.349  12.187  1.7401 -0.1804  0.5547
 8517TIP3    H249747   4.809   4.233  12.269 -0.8446 -2.1133 -0.4477
 8518TIP3   OH249748   2.476   4.037  11.836 -0.1481 -0.4789 -0.2549
 8518TIP3    H149749   2.501   4.093  11.909 -0.7247  0.5095 -0.8114
 8518TIP3    H249750   2.453   3.953  11.877 -0.3182  0.0163  0.6738
 8519TIP3   OH249751   5.811   4.887  10.965  0.3400  0.2727  0.3585
 8519TIP3    H149752   5.784   4.941  11.039 -0.8411  0.0118  0.1408
 8519TIP3    H249753   5.745   4.818  10.960  1.9554 -1.4069  0.8178
 8520TIP3   OH249754   6.744   1.717  10.850 -0.3509 -0.3093  0.3961
 8520TIP3    H149755   6.788   1.633  10.847  0.3646  0.0699 -2.1025
 8520TIP3    H249756   6.739   1.745  10.758 -1.5482  1.8659  1.0434
 8521TIP3   OH249757   6.491   3.590  11.303  0.0268  0.3867 -0.2442
 8521TIP3    H149758   6.572   3.590  11.355 -0.8222 -1.4703  1.1770
 8521TIP3    H249759   6.517   3.552  11.219  0.2252 -2.6570  1.0636
 8522TIP3   OH249760   1.367   4.621  10.267 -0.0290  0.1774 -0.1188
 8522TIP3    H149761   1.380   4.545  10.323 -0.6356 -1.9062 -2.6097
 8522TIP3    H249762   1.274   4.618  10.243 -0.0548  1.6814 -0.3240
 8523TIP3   OH249763   1.763   1.177  10.916  0.7385 -0.0678  0.2531
 8523TIP3    H149764   1.683   1.227  10.904 -0.8312 -2.0928  1.6677
 8523TIP3    H249765   1.823   1.211  10.850 -1.3549  1.3129 -1.0317
 8524TIP3   OH249766   4.738   5.165  12.983 -0.0080  0.1163  0.2147
 8524TIP3    H149767   4.785   5.084  13.003  0.1216  0.0787 -0.2264
 8524TIP3    H249768   4.687   5.184  13.062  0.6212  0.0719  0.6388
 8525TIP3   OH249769   6.690   1.944  10.015 -0.0650 -0.0900 -0.0474
 8525TIP3    H149770   6.647   1.873  10.062 -1.1480 -0.6603 -1.8078
 8525TIP3    H249771   6.767   1.904   9.976  1.0138  0.4572  1.3936
 8526TIP3   OH249772   2.152   2.679  10.278 -0.3386 -0.3725  0.1036
 8526TIP3    H149773   2.119   2.733  10.350 -0.3898 -1.5055  0.9381
 8526TIP3    H249774   2.159   2.591  10.314 -0.1728 -0.9270 -1.2210
 8527TIP3   OH249775   2.025   0.962  10.093  0.1478 -0.1694 -0.2612
 8527TIP3    H149776   1.945   0.911  10.105  0.7383 -1.1737 -0.4719
 8527TIP3    H249777   1.996   1.054  10.095 -1.0031 -0.5198 -0.3963
 8528TIP3   OH249778   3.440   0.544  10.278  0.6524  0.4885 -0.4495
 8528TIP3    H149779   3.409   0.455  10.297  0.1770  0.7174 -0.1276
 8528TIP3    H249780   3.396   0.568  10.197 -0.7411  1.1484  0.4708
 8529TIP3   OH249781   3.697   2.200  10.845  0.3825  0.0257 -0.3623
 8529TIP3    H149782   3.775   2.156  10.879  0.3936  0.3824  0.0961
 8529TIP3    H249783   3.651   2.133  10.794  2.0130  0.3231 -2.3699
 8530TIP3   OH249784   4.213   3.746   9.871 -0.1298 -0.4815 -0.5440
 8530TIP3    H149785   4.204   3.831   9.915 -0.6323  0.2556 -2.0011
 8530TIP3    H249786   4.131   3.735   9.823 -1.2658 -3.1155  1.7376
 8531TIP3   OH249787   1.623   3.296  11.155  0.3337  0.6022 -0.0836
 8531TIP3    H149788   1.549   3.278  11.098  0.2058 -0.7546  0.4733
 8531TIP3    H249789   1.586   3.296  11.244  0.3814  3.4560  0.0127
 8532TIP3   OH249790   1.820   5.317  12.036 -0.0889 -0.5627 -0.1777
 8532TIP3    H149791   1.802   5.346  12.125  0.6031  0.2666 -0.2971
 8532TIP3    H249792   1.889   5.251  12.045  0.4683  0.0138 -0.1450
 8533TIP3   OH249793   0.949   3.468   9.584 -0.6264  0.4007  0.3202
 8533TIP3    H149794   0.886   3.534   9.556 -0.9743  0.2600  0.7624
 8533TIP3    H249795   1.034   3.510   9.572 -0.8761  1.2110  1.2953
 8534TIP3   OH249796   2.627   1.882   9.662 -0.2420  0.2507  0.0262
 8534TIP3    H149797   2.558   1.823   9.690  0.5721 -0.3070  0.9040
 8534TIP3    H249798   2.604   1.966   9.701 -0.9178  0.3145 -0.4789
 8535TIP3   OH249799   4.661   3.298  10.940 -0.7401 -0.6442  0.1551
 8535TIP3    H149800   4.679   3.284  10.847 -1.0733  0.3499 -0.0669
 8535TIP3    H249801   4.747   3.311  10.980 -0.5132 -2.0535  0.1734
 8536TIP3   OH249802   5.823   5.282  11.566  0.2008  0.4876  0.0354
 8536TIP3    H149803   5.879   5.283  11.644 -0.3343  0.6095  0.4276
 8536TIP3    H249804   5.827   5.372  11.533 -2.0493  1.3276  1.7642
 8537TIP3   OH249805   3.161   2.768  10.622  1.0182 -0.2921 -0.3669
 8537TIP3    H149806   3.126   2.848  10.663 -0.7843 -0.9927 -0.4283
 8537TIP3    H249807   3.195   2.718  10.696  1.0272 -0.0030 -0.1696
 8538TIP3   OH249808   1.413   3.589  10.960 -0.2141 -0.0540  0.7317
 8538TIP3    H149809   1.350   3.625  10.898  0.4962 -1.7637 -1.0674
 8538TIP3    H249810   1.393   3.495  10.963  2.7665 -0.8460 -0.6362
 8539TIP3   OH249811   2.419   0.502  12.358 -0.6891  0.1810 -0.2250
 8539TIP3    H149812   2.490   0.559  12.328 -1.7718  1.0042 -1.2782
 8539TIP3    H249813   2.455   0.414  12.352  0.5909  0.6507  0.2433
 8540TIP3   OH249814   2.973   2.403  11.687  0.1133 -0.0039  0.0411
 8540TIP3    H149815   2.883   2.369  11.691  0.3724 -0.6830  0.3274
 8540TIP3    H249816   3.027   2.330  11.717  0.5637  1.3248  2.7403
 8541TIP3   OH249817   4.354   4.808  11.349  0.5964  0.0983 -0.3381
 8541TIP3    H149818   4.310   4.855  11.278 -0.3575 -0.2021  0.0332
 8541TIP3    H249819   4.327   4.717  11.338  0.8770 -0.0405  0.0887
 8542TIP3   OH249820   5.660   5.062  11.136  0.2074  0.2258  0.3458
 8542TIP3    H149821   5.629   5.011  11.212  0.2477  0.5917  0.6089
 8542TIP3    H249822   5.579   5.088  11.091  0.1946 -0.2822  0.0696
 8543TIP3   OH249823   3.408   5.679  12.274 -0.3112  0.4012  0.0120
 8543TIP3    H149824   3.414   5.771  12.249 -0.4037  0.1570 -0.9678
 8543TIP3    H249825   3.336   5.644  12.222 -0.9606  0.0035  1.1438
 8544TIP3   OH249826   3.121   5.073   9.689 -0.4231  0.2324 -0.1243
 8544TIP3    H149827   3.196   5.032   9.647 -0.4943  0.2492 -0.2700
 8544TIP3    H249828   3.047   5.054   9.630 -0.2697  1.5093 -0.7789
 8545TIP3   OH249829   5.614   3.637  10.702  0.1968 -0.7115 -0.3075
 8545TIP3    H149830   5.598   3.621  10.795 -0.6856  0.8895 -0.1421
 8545TIP3    H249831   5.531   3.673  10.669  1.1308  0.7292 -1.2085
 8546TIP3   OH249832   1.712   1.598  10.512  0.3115  0.1668  0.3867
 8546TIP3    H149833   1.642   1.663  10.520  0.0905 -0.0150 -0.0323
 8546TIP3    H249834   1.699   1.539  10.587 -0.8886 -0.7174 -0.4747
 8547TIP3   OH249835   5.006   2.744  10.984 -0.0486  0.3028  0.3691
 8547TIP3    H149836   4.943   2.690  10.937 -0.5351 -0.2358  1.5861
 8547TIP3    H249837   4.961   2.827  10.997 -0.2434  0.1624  0.6106
 8548TIP3   OH249838   5.613   4.412   9.481  0.0705 -0.8036 -0.3614
 8548TIP3    H149839   5.577   4.468   9.549  0.7069  0.3791 -0.9777
 8548TIP3    H249840   5.544   4.347   9.465 -1.3197  0.6879 -0.6786
 8549TIP3   OH249841   0.922   1.350  10.864  0.5760  0.5544 -0.3172
 8549TIP3    H149842   0.932   1.385  10.953 -0.1614  1.1186 -0.4457
 8549TIP3    H249843   0.965   1.415  10.808  1.3996  0.0000 -0.3551
 8550TIP3   OH249844   3.723   5.841  19.065  0.5831  0.0428 -0.0404
 8550TIP3    H149845   3.749   5.896  18.991  1.4044  2.1500  1.6956
 8550TIP3    H249846   3.776   5.762  19.055  2.8899  1.5005 -0.1960
 8551TIP3   OH249847   2.110   3.267  10.125  0.0596 -0.4046 -0.4073
 8551TIP3    H149848   2.119   3.357  10.156  0.5193 -0.4306 -0.4659
 8551TIP3    H249849   2.021   3.242  10.150 -0.4790  0.4417 -1.3672
 8552TIP3   OH249850   3.337   2.596  11.140 -0.0122  0.4933  0.4619
 8552TIP3    H149851   3.337   2.514  11.092  1.5996  0.6809  0.0590
 8552TIP3    H249852   3.281   2.580  11.216  1.1317 -1.3765  0.9936
 8553TIP3   OH249853   3.484   3.356  11.368 -0.1455  0.1486 -0.3144
 8553TIP3    H149854   3.482   3.288  11.300  0.3435  0.7005 -0.8923
 8553TIP3    H249855   3.419   3.420  11.339 -0.3679  0.0965  0.0593
 8554TIP3   OH249856   1.953   6.187   9.312  0.2583 -0.0215  0.2095
 8554TIP3    H149857   1.913   6.252   9.255  1.1187 -0.8313 -1.4025
 8554TIP3    H249858   2.038   6.224   9.336 -0.0206  0.2322  0.8217
 8555TIP3   OH249859   1.036   2.366  12.161  0.8016 -0.8292  0.6918
 8555TIP3    H149860   1.012   2.457  12.182 -0.5934 -1.3070  1.3263
 8555TIP3    H249861   0.953   2.326  12.134  1.6478 -1.5767 -0.8823
 8556TIP3   OH249862   4.629   2.694   9.284  0.6423  0.4872  0.3192
 8556TIP3    H149863   4.687   2.659   9.217  2.1129  0.4335  1.5524
 8556TIP3    H249864   4.660   2.784   9.297  0.9742  0.2207  1.5098
 8557TIP3   OH249865   2.015   1.347  10.837 -0.1239 -0.3222  0.0204
 8557TIP3    H149866   2.103   1.365  10.803 -0.5848  0.1303 -1.0021
 8557TIP3    H249867   1.961   1.336  10.759 -0.9960 -0.5116  0.6310
 8558TIP3   OH249868   5.557   5.100  12.006  0.0103  0.0120 -0.5109
 8558TIP3    H149869   5.622   5.160  11.970  0.8619 -0.7191 -0.2334
 8558TIP3    H249870   5.481   5.110  11.949  1.5189 -1.5535 -2.9958
 8559TIP3   OH249871   0.789   3.808  11.856  0.4918 -0.1211  0.2889
 8559TIP3    H149872   0.851   3.864  11.808  0.3485 -0.8579 -0.7766
 8559TIP3    H249873   0.790   3.844  11.945  2.9052 -0.4620  0.4791
 8560TIP3   OH249874   1.545   4.982  11.017 -0.0650 -0.2681  0.6260
 8560TIP3    H149875   1.476   5.011  10.957  1.9169 -1.5057 -2.4573
 8560TIP3    H249876   1.507   4.907  11.062 -0.6810 -1.1394 -1.2456
 8561TIP3   OH249877   2.174   0.278  12.579 -0.2725 -0.4498  0.0821
 8561TIP3    H149878   2.187   0.186  12.555  1.4886 -0.5501  1.1466
 8561TIP3    H249879   2.114   0.275  12.654  0.2477 -0.8134  0.4970
 8562TIP3   OH249880   2.215   0.323  20.071  0.4165  0.2182 -0.5339
 8562TIP3    H149881   2.284   0.262  20.098 -0.7620 -1.3457 -0.8741
 8562TIP3    H249882   2.222   0.327  19.976  0.4617  0.5778 -0.5146
 8563TIP3   OH249883   0.779   6.314  11.524  0.2549 -0.5597 -0.5008
 8563TIP3    H149884   0.726   6.247  11.481  1.3150 -0.0162 -2.8091
 8563TIP3    H249885   0.848   6.334  11.461  2.2240 -0.0251  1.6966
 8564TIP3   OH249886   2.836   0.269  11.494  0.2785 -0.2066  0.2006
 8564TIP3    H149887   2.919   0.296  11.533 -0.8785  3.1791  0.6341
 8564TIP3    H249888   2.791   0.223  11.564  0.7779  0.1709  0.7830
 8565TIP3   OH249889   4.154   5.530  12.020 -0.7768 -0.1691 -0.4371
 8565TIP3    H149890   4.147   5.468  11.947  0.7605 -0.3572 -0.4531
 8565TIP3    H249891   4.131   5.615  11.982 -1.5099 -0.4994 -0.7521
 8566TIP3   OH249892   2.241   4.893  12.544 -0.4726 -0.4569  0.0323
 8566TIP3    H149893   2.226   4.868  12.635 -1.3248 -1.7900 -0.4471
 8566TIP3    H249894   2.288   4.976  12.549  0.1439 -0.8795  1.6856
 8567TIP3   OH249895   2.783   2.659   9.707 -0.1669 -0.0789  0.2504
 8567TIP3    H149896   2.787   2.608   9.788  1.2736  0.0308  0.2813
 8567TIP3    H249897   2.839   2.611   9.646  1.8892  1.8244  0.5244
 8568TIP3   OH249898   2.426   3.064  10.538 -0.0409  0.1876  0.1084
 8568TIP3    H149899   2.378   3.088  10.458 -1.9727 -3.5561 -0.0388
 8568TIP3    H249900   2.518   3.077  10.515 -0.4010 -2.0220 -3.3400
 8569TIP3   OH249901   3.282   2.312   9.730 -0.5041  0.0220  0.5311
 8569TIP3    H149902   3.216   2.243   9.719  0.2844 -0.4653 -1.8233
 8569TIP3    H249903   3.351   2.271   9.782 -0.4835 -0.6807 -0.0240
 8570TIP3   OH249904   1.526   5.482  12.361 -0.3848 -0.0961 -0.0899
 8570TIP3    H149905   1.447   5.522  12.324 -1.1300  0.1725  1.6730
 8570TIP3    H249906   1.495   5.401  12.402  0.6913 -1.2163 -1.4137
 8571TIP3   OH249907   0.571   5.380  10.120 -0.5500  0.6351 -0.5216
 8571TIP3    H149908   0.574   5.423  10.206  0.3148  0.8662 -0.6590
 8571TIP3    H249909   0.638   5.312  10.125  0.5075  1.5672 -1.4911
 8572TIP3   OH249910   0.512   1.687  10.108 -0.1071  0.0393  0.1804
 8572TIP3    H149911   0.528   1.761  10.166 -0.2918  1.4808 -1.5268
 8572TIP3    H249912   0.417   1.674  10.110  0.0827 -1.4180  1.9106
 8573TIP3   OH249913   3.189   4.920  10.543  0.0614  0.1085 -0.0731
 8573TIP3    H149914   3.175   4.940  10.451 -0.6417  0.1684  0.0418
 8573TIP3    H249915   3.101   4.909  10.579  0.2638 -3.9790 -0.2862
 8574TIP3   OH249916   6.498   0.579  11.167  0.4401  0.8885  0.3307
 8574TIP3    H149917   6.521   0.516  11.098  1.4926 -0.7597  2.0795
 8574TIP3    H249918   6.450   0.527  11.231  2.2364  1.5463  2.3283
 8575TIP3   OH249919   1.016   2.713  10.114 -0.6217  0.7858 -0.1037
 8575TIP3    H149920   1.041   2.796  10.073 -2.3639  1.3044 -0.2296
 8575TIP3    H249921   0.943   2.682  10.061 -0.6271 -0.3248  0.5336
 8576TIP3   OH249922   2.669   3.283  10.004  0.7049 -0.1079  0.3349
 8576TIP3    H149923   2.716   3.262   9.923 -0.5355 -1.0246 -0.1784
 8576TIP3    H249924   2.712   3.231  10.072 -0.1897 -1.7789 -0.3227
 8577TIP3   OH249925   0.190   3.335  10.835 -0.1929  0.3040  0.1075
 8577TIP3    H149926   0.107   3.382  10.827 -0.3050  0.2921  1.0788
 8577TIP3    H249927   0.171   3.262  10.893  0.7480  0.9591  1.2896
 8578TIP3   OH249928   5.589   3.966   9.274 -0.1226 -0.7182 -0.3058
 8578TIP3    H149929   5.539   4.044   9.298  2.4839  0.4611  1.7608
 8578TIP3    H249930   5.679   3.997   9.263  0.5715 -3.0462 -1.9180
 8579TIP3   OH249931   3.220   6.674  11.889 -0.3553 -0.3835 -0.4933
 8579TIP3    H149932   3.149   6.624  11.849 -0.4082 -0.0661 -0.8037
 8579TIP3    H249933   3.190   6.765  11.887  1.7527  0.5153 -4.7069
 8580TIP3   OH249934   1.876   3.137  10.148  0.1164 -0.4854  0.1666
 8580TIP3    H149935   1.783   3.156  10.143  0.1672 -0.1591  0.4550
 8580TIP3    H249936   1.882   3.055  10.198  0.0917  0.4806  1.7988
 8581TIP3   OH249937   4.046   2.781  10.569 -0.2543  0.6742  0.3334
 8581TIP3    H149938   4.013   2.749  10.485  1.4340 -0.0040 -0.1106
 8581TIP3    H249939   4.109   2.850  10.546  0.6450  0.0956  0.9888
 8582TIP3   OH249940   5.879   2.089   9.286  0.1805 -0.8642  0.0267
 8582TIP3    H149941   5.854   1.998   9.303 -2.5529  0.1968  2.7306
 8582TIP3    H249942   5.818   2.119   9.219 -0.5862 -0.4454  0.8764
 8583TIP3   OH249943   4.857   0.940  12.673  0.0285 -0.4009 -0.1250
 8583TIP3    H149944   4.783   0.890  12.639 -1.8057  2.6554 -1.0115
 8583TIP3    H249945   4.895   0.983  12.596  0.9888  0.2290  0.6751
 8584TIP3   OH249946   2.846   2.485  10.301  0.1798 -0.2672 -0.3322
 8584TIP3    H149947   2.757   2.450  10.305 -0.0367 -0.0208 -2.0907
 8584TIP3    H249948   2.848   2.552  10.369 -0.5314 -1.2103  0.6495
 8585TIP3   OH249949   4.116   4.049  11.053 -0.5294 -0.3915 -0.0788
 8585TIP3    H149950   4.115   3.979  10.988 -2.1021 -0.3892 -0.0960
 8585TIP3    H249951   4.061   4.017  11.124  1.1889 -0.4073  1.3087
 8586TIP3   OH249952   0.067   2.625  11.140 -0.3569 -0.3203  0.0039
 8586TIP3    H149953   0.019   2.545  11.161 -0.0638 -0.2734  0.9057
 8586TIP3    H249954   0.155   2.610  11.173 -0.4776  0.6280  0.8421
 8587TIP3   OH249955   6.404   2.225  10.522 -0.0565 -0.2077  0.5351
 8587TIP3    H149956   6.354   2.294  10.567  0.5400  0.2710  0.4787
 8587TIP3    H249957   6.479   2.209  10.579 -0.5236 -1.2683  0.8582
 8588TIP3   OH249958   5.057   5.960  11.345  0.2419 -0.2993  0.1827
 8588TIP3    H149959   5.130   6.017  11.370  0.2545 -0.0460 -0.4114
 8588TIP3    H249960   4.979   6.004  11.382 -0.0277  1.3116 -2.0562
 8589TIP3   OH249961   1.496   3.887   9.346  0.6515  0.1936  0.7237
 8589TIP3    H149962   1.472   3.797   9.369 -0.4786 -0.3273 -2.0999
 8589TIP3    H249963   1.428   3.941   9.386 -0.8090 -0.5935 -0.5939
 8590TIP3   OH249964   2.767   5.791  10.290  0.5886  0.1355  0.1163
 8590TIP3    H149965   2.766   5.859  10.358 -0.2088 -0.1181  0.3668
 8590TIP3    H249966   2.685   5.743  10.302  1.2727 -1.0763  0.1352
 8591TIP3   OH249967   2.528   2.437  10.807  0.3732  0.3319  0.1247
 8591TIP3    H149968   2.471   2.361  10.821  0.6292  0.0210 -0.5269
 8591TIP3    H249969   2.510   2.493  10.883 -0.0820 -0.2077  0.4293
 8592TIP3   OH249970   3.654   4.214  13.209 -0.4626  0.5266  0.2096
 8592TIP3    H149971   3.736   4.231  13.163  0.6325 -2.5355  0.7846
 8592TIP3    H249972   3.591   4.197  13.139  0.4749 -1.2323 -0.2729
 8593TIP3   OH249973   2.466   4.497  10.484 -0.7314  0.0806 -0.0483
 8593TIP3    H149974   2.407   4.457  10.548 -1.1253  0.4811 -0.1636
 8593TIP3    H249975   2.479   4.428  10.417 -1.2512  0.0766 -0.1443
 8594TIP3   OH249976   6.294   2.550  10.110  0.4279  0.1109  0.3066
 8594TIP3    H149977   6.258   2.528  10.024 -0.5267 -0.5185  0.8476
 8594TIP3    H249978   6.217   2.570  10.164  1.1137  2.5671  0.4887
 8595TIP3   OH249979   5.533   2.952  10.298 -0.2030  0.1887 -0.0769
 8595TIP3    H149980   5.522   2.871  10.248  0.2049  1.2689 -2.0231
 8595TIP3    H249981   5.500   2.931  10.385 -0.5134 -1.9293 -0.6444
 8596TIP3   OH249982   5.330   6.432  12.496 -0.4220  0.2403 -0.4993
 8596TIP3    H149983   5.421   6.403  12.504 -0.7523 -0.5558  0.5265
 8596TIP3    H249984   5.332   6.525  12.520 -0.0391 -0.0367  0.6063
 8597TIP3   OH249985   3.003   4.128   9.272  0.2353  0.1862  0.2054
 8597TIP3    H149986   3.090   4.115   9.310  0.5277  1.0668 -0.1274
 8597TIP3    H249987   2.974   4.041   9.247  0.6438 -0.2327  1.1401
 8598TIP3   OH249988   0.214   1.183  10.183 -0.1891  0.7564  0.2505
 8598TIP3    H149989   0.165   1.133  10.117  0.5333  1.2286 -0.6577
 8598TIP3    H249990   0.204   1.274  10.156  0.0610  0.9545  0.8295
 8599TIP3   OH249991   0.075   6.167   9.700  0.1975 -0.3706  0.1093
 8599TIP3    H149992   0.037   6.114   9.770 -2.4716 -0.7254 -1.4855
 8599TIP3    H249993   0.049   6.257   9.722  0.8128 -0.2616  0.4208
 8600TIP3   OH249994   4.272   4.879  13.362  0.1787 -0.0591  0.2625
 8600TIP3    H149995   4.346   4.939  13.356  1.0720 -1.0513  1.0151
 8600TIP3    H249996   4.197   4.931  13.334  1.4221  0.4048 -2.6290
 8601TIP3   OH249997   4.818   1.896   9.788 -0.2466 -0.3957 -0.3523
 8601TIP3    H149998   4.752   1.898   9.857  1.0652  1.8604  0.9417
 8601TIP3    H249999   4.822   1.804   9.762 -2.2256 -0.9721  1.1368
 8602TIP3   OH250000   5.460   3.865  11.754  0.0792  0.1154 -0.4107
 8602TIP3    H150001   5.418   3.936  11.803 -1.1976 -1.1227  0.3667
 8602TIP3    H250002   5.489   3.804  11.821  1.3122 -0.0522 -1.0676
 8603TIP3   OH250003   1.366   5.444  12.050 -0.3240 -0.4683 -0.1454
 8603TIP3    H150004   1.304   5.413  12.117 -1.6565  0.9853 -0.6461
 8603TIP3    H250005   1.344   5.393  11.972 -0.8267 -0.0247 -0.2949
 8604TIP3   OH250006   4.427   6.347  10.624 -0.4260  0.0879  0.0107
 8604TIP3    H150007   4.448   6.432  10.663  0.4901 -0.6729  1.2612
 8604TIP3    H250008   4.498   6.328  10.564 -1.1402  0.6387 -1.0299
 8605TIP3   OH250009   5.990   5.776   9.510 -0.7091  0.0657 -0.0834
 8605TIP3    H150010   6.033   5.850   9.552 -0.6589 -0.3190  0.5544
 8605TIP3    H250011   6.056   5.739   9.452 -1.1356  1.3026 -1.4186
 8606TIP3   OH250012   5.647   4.074  11.363 -0.0915 -0.1226  0.2108
 8606TIP3    H150013   5.602   4.045  11.284  3.2018  0.5609 -2.1807
 8606TIP3    H250014   5.736   4.039  11.353  1.0624  1.8837  2.4815
 8607TIP3   OH250015   5.994   3.321   9.336 -0.2012  1.5208  0.4636
 8607TIP3    H150016   6.006   3.362   9.251 -2.9042  1.6492  0.0578
 8607TIP3    H250017   5.983   3.394   9.397 -0.4073  1.4209  0.5474
 8608TIP3   OH250018   5.849   3.379  11.164  0.1513  0.0647  0.3220
 8608TIP3    H150019   5.873   3.405  11.253 -0.8519  1.0665  0.3274
 8608TIP3    H250020   5.924   3.406  11.111  0.7547 -0.5335  0.8456
 8609TIP3   OH250021   1.399   1.903   9.213 -0.3351  0.0910  0.0768
 8609TIP3    H150022   1.334   1.951   9.162 -0.8039  2.8981  3.0412
 8609TIP3    H250023   1.466   1.968   9.234  1.7540 -1.8974 -0.0169
 8610TIP3   OH250024   4.764   0.605   9.569 -0.3111 -0.4288  0.4367
 8610TIP3    H150025   4.688   0.554   9.596  1.1212 -2.6837  0.4929
 8610TIP3    H250026   4.827   0.593   9.639  1.5681 -2.0801 -1.4000
 8611TIP3   OH250027   0.831   0.947  10.016  0.4307  0.2846  0.0384
 8611TIP3    H150028   0.788   0.943  10.101  0.3771 -0.3657 -0.0165
 8611TIP3    H250029   0.763   0.977   9.956  0.6676  1.5203  0.3449
 8612TIP3   OH250030   4.948   2.458  12.166 -0.1519 -0.6521 -0.6061
 8612TIP3    H150031   4.941   2.467  12.261  1.8385 -2.6524 -0.1910
 8612TIP3    H250032   4.865   2.417  12.140 -0.0000 -1.7161  0.5390
 8613TIP3   OH250033   3.693   1.638   9.881 -0.0001 -0.2334  0.5555
 8613TIP3    H150034   3.599   1.641   9.861 -0.0560  2.1679  0.8135
 8613TIP3    H250035   3.731   1.708   9.828  1.4067 -0.2256  1.5065
 8614TIP3   OH250036   0.162   0.554  11.009  0.2559 -0.5027  0.6482
 8614TIP3    H150037   0.199   0.471  11.039  0.4285 -0.6496  0.0421
 8614TIP3    H250038   0.184   0.557  10.916 -0.3119 -0.0796  0.5265
 8615TIP3   OH250039   4.967   4.827  10.301  0.6575 -0.4996 -0.2209
 8615TIP3    H150040   4.997   4.826  10.392 -0.2494 -1.2018  0.0869
 8615TIP3    H250041   4.923   4.742  10.289 -0.2579  0.0560 -0.9533
 8616TIP3   OH250042   0.248   2.845  10.446  0.5797 -0.3892  0.5845
 8616TIP3    H150043   0.222   2.866  10.536  0.4480 -1.5295  0.8230
 8616TIP3    H250044   0.166   2.847  10.397  0.7763  1.2393  0.2567
 8617TIP3   OH250045   1.904   2.551  12.643  0.5804 -0.1536  0.5686
 8617TIP3    H150046   1.883   2.617  12.577  1.8839 -1.6680 -1.5042
 8617TIP3    H250047   1.820   2.513  12.667  0.0650  0.5167 -0.1285
 8618TIP3   OH250048   2.367   3.756  10.697  0.1107  0.2241 -0.6577
 8618TIP3    H150049   2.409   3.819  10.755 -1.0926  0.6760 -0.2382
 8618TIP3    H250050   2.292   3.803  10.660 -0.6853 -0.8763 -0.5120
 8619TIP3   OH250051   5.089   3.561  10.194  0.4336 -0.2901 -0.5975
 8619TIP3    H150052   5.065   3.588  10.105  1.6704  2.0796 -0.2791
 8619TIP3    H250053   5.168   3.509  10.183  0.0778 -0.7761 -0.9285
 8620TIP3   OH250054   4.427   6.131   9.525  0.3876 -0.1366  0.0960
 8620TIP3    H150055   4.352   6.094   9.479  0.9704 -0.1582 -0.8627
 8620TIP3    H250056   4.391   6.161   9.609 -0.5714 -0.6526 -0.1145
 8621TIP3   OH250057   0.762   1.027   9.433 -0.0383  0.5463  0.2808
 8621TIP3    H150058   0.809   0.949   9.404 -0.1424  0.8641 -0.7594
 8621TIP3    H250059   0.826   1.076   9.484  0.3267  0.2725  0.0862
 8622TIP3   OH250060   5.450   5.198  10.957 -0.2995 -0.3601 -0.2088
 8622TIP3    H150061   5.408   5.279  10.929  0.8119  0.4645  0.4112
 8622TIP3    H250062   5.505   5.173  10.883 -1.0668 -0.8727 -0.6184
 8623TIP3   OH250063   2.313   4.387  12.163 -0.1558  0.3467  0.1344
 8623TIP3    H150064   2.337   4.411  12.074 -0.0264  0.1500  0.1125
 8623TIP3    H250065   2.356   4.302  12.176 -0.0953  0.4190  0.4154
 8624TIP3   OH250066   6.248   3.104   9.723 -0.6512 -0.0362 -0.3483
 8624TIP3    H150067   6.192   3.044   9.772  1.1838 -0.6306  1.1639
 8624TIP3    H250068   6.279   3.053   9.648 -2.3971  0.4349 -1.4330
 8625TIP3   OH250069   4.983   1.938  11.066  0.2599  0.5930  0.2543
 8625TIP3    H150070   4.889   1.933  11.054  0.1404 -1.6152  1.5782
 8625TIP3    H250071   5.019   1.936  10.978 -0.8833 -0.9036 -0.2133
 8626TIP3   OH250072   3.091   4.509  12.745 -0.1833  0.4942  0.4047
 8626TIP3    H150073   3.017   4.449  12.732 -0.7763  1.0204  1.2323
 8626TIP3    H250074   3.140   4.471  12.818 -0.3627  0.8199  0.6986
 8627TIP3   OH250075   2.325   0.141  11.681  0.0577  0.3138 -0.4996
 8627TIP3    H150076   2.270   0.202  11.732  2.6058  0.8964  1.8033
 8627TIP3    H250077   2.413   0.176  11.690  0.9893 -1.0346 -3.3553
 8628TIP3   OH250078   3.435   1.905   9.400 -0.0226 -0.6062  0.0866
 8628TIP3    H150079   3.445   1.934   9.310 -3.0745 -0.6367 -0.3581
 8628TIP3    H250080   3.354   1.854   9.400 -0.5411  0.0537  3.0060
 8629TIP3   OH250081   0.673   3.866   9.872  0.3618 -0.2171 -0.2423
 8629TIP3    H150082   0.689   3.772   9.882 -0.8411 -0.4101 -0.0159
 8629TIP3    H250083   0.635   3.875   9.784 -1.3174 -0.2084  0.4564
 8630TIP3   OH250084   1.174   1.291  10.715  0.4169  0.6524  0.0613
 8630TIP3    H150085   1.186   1.200  10.742 -0.5474  0.7552  0.9085
 8630TIP3    H250086   1.088   1.292  10.674  0.6853  1.0709 -0.5069
 8631TIP3   OH250087   1.090   0.809  12.082 -0.1374 -0.4926 -0.1886
 8631TIP3    H150088   1.115   0.759  12.159 -0.5159  0.1355  0.3482
 8631TIP3    H250089   1.158   0.876  12.073 -0.5546 -0.0183  0.1212
 8632TIP3   OH250090   2.868   1.637  10.852 -0.2533 -0.1607  0.1232
 8632TIP3    H150091   2.780   1.663  10.876  0.2127 -0.6603  2.6767
 8632TIP3    H250092   2.914   1.719  10.835 -0.7860  0.2116  0.4632
 8633TIP3   OH250093   1.579   5.925   9.990  0.2088  0.0163  0.3983
 8633TIP3    H150094   1.621   6.011   9.992 -0.2886  0.2927 -0.5843
 8633TIP3    H250095   1.548   5.915   9.900 -0.4578 -0.8492  0.7100
 8634TIP3   OH250096   0.764   0.020  12.144  0.2532  0.0299 -0.0178
 8634TIP3    H150097   0.799  -0.061  12.179 -1.1371 -0.5580  0.0677
 8634TIP3    H250098   0.684  -0.006  12.098 -0.0817  1.3145 -0.2073
 8635TIP3   OH250099   5.124   3.631  12.536  0.7084 -0.1141  0.4130
 8635TIP3    H150100   5.144   3.663  12.623  0.5392 -1.4355  0.9618
 8635TIP3    H250101   5.051   3.570  12.549 -3.0953  3.5855 -1.2961
 8636TIP3   OH250102   4.471   4.041   9.235  0.3718 -0.0074  0.3074
 8636TIP3    H150103   4.470   3.946   9.226  0.9725 -0.1414  1.3899
 8636TIP3    H250104   4.562   4.066   9.222  0.5483  0.2020  1.7709
 8637TIP3   OH250105   4.125   0.120  11.784 -0.1875 -0.4835 -0.0613
 8637TIP3    H150106   4.149   0.067  11.860 -0.7695 -0.3695  0.2104
 8637TIP3    H250107   4.036   0.091  11.763 -0.4430  0.2536 -0.0187
 8638TIP3   OH250108   6.289   0.615   9.817  0.2050 -0.2709  0.8418
 8638TIP3    H150109   6.380   0.614   9.787 -0.5321 -0.9012 -1.6127
 8638TIP3    H250110   6.246   0.679   9.760 -1.2164 -1.1534  0.8707
 8639TIP3   OH250111   0.779   2.100   9.281 -0.4024  0.0395  0.5943
 8639TIP3    H150112   0.834   2.157   9.227 -1.4292 -0.4507 -1.0775
 8639TIP3    H250113   0.838   2.030   9.310  0.4941  1.0619  1.3169
 8640TIP3   OH250114   4.697   3.310   9.732 -0.2014 -0.2685  0.2994
 8640TIP3    H150115   4.702   3.215   9.729  1.7131 -0.3641  2.7715
 8640TIP3    H250116   4.641   3.330   9.808 -1.5062  0.6275 -0.8498
 8641TIP3   OH250117   0.283   4.544  13.095 -0.1864  0.2111  0.2605
 8641TIP3    H150118   0.310   4.602  13.025 -0.0400  1.0996  1.0329
 8641TIP3    H250119   0.288   4.456  13.057  0.9163  0.5887 -0.5093
 8642TIP3   OH250120   3.822   3.272   9.816  0.7753 -0.1764 -0.4698
 8642TIP3    H150121   3.750   3.277   9.753  1.4818  0.0721 -1.2620
 8642TIP3    H250122   3.849   3.180   9.814  0.9063 -0.1344 -0.6555
 8643TIP3   OH250123   5.333   4.672  12.011 -0.3581 -0.2413  0.4522
 8643TIP3    H150124   5.399   4.737  11.987  0.0353 -0.6112  0.5205
 8643TIP3    H250125   5.286   4.712  12.085 -0.8250  0.4136 -0.1792
 8644TIP3   OH250126   2.738   0.175  10.718  0.3684  0.2700 -0.1593
 8644TIP3    H150127   2.713   0.190  10.809 -1.6548 -0.3841 -0.5579
 8644TIP3    H250128   2.730   0.261  10.676  0.0373  0.3163 -0.0011
 8645TIP3   OH250129   3.506   0.747  11.871 -0.2989 -0.1740  0.2042
 8645TIP3    H150130   3.543   0.666  11.835  0.4856 -0.2455  1.1332
 8645TIP3    H250131   3.411   0.731  11.873 -0.2057 -0.8277 -0.2144
 8646TIP3   OH250132   4.778   2.907   9.292  0.2020 -0.3156 -0.2351
 8646TIP3    H150133   4.792   2.987   9.343  1.8992 -1.6075  1.4480
 8646TIP3    H250134   4.857   2.897   9.239  1.6344 -2.5572  2.0893
 8647TIP3   OH250135   1.189   5.115  11.305 -0.1310 -0.1847  0.4333
 8647TIP3    H150136   1.109   5.070  11.333  1.9529 -3.4393  1.8134
 8647TIP3    H250137   1.208   5.079  11.219 -1.2442  2.3306 -0.9633
 8648TIP3   OH250138   2.087   4.152   9.666 -0.0371 -1.2041  0.0537
 8648TIP3    H150139   2.102   4.145   9.571  0.0546 -1.2946  0.0741
 8648TIP3    H250140   2.045   4.070   9.689 -0.9309 -0.7904 -0.0690
 8649TIP3   OH250141   3.349   4.455  11.528 -0.8050  0.2618 -0.7969
 8649TIP3    H150142   3.360   4.511  11.451  1.6938  0.9502 -0.0370
 8649TIP3    H250143   3.310   4.513  11.594 -2.8490 -0.3008 -1.4290
 8650TIP3   OH250144   3.732   1.060  10.216 -0.2207 -0.2311 -0.2331
 8650TIP3    H150145   3.751   0.971  10.244  0.3985 -0.0123  0.0636
 8650TIP3    H250146   3.804   1.083  10.157  0.0340  0.3254  0.2738
 8651TIP3   OH250147   4.165   6.547  10.391 -0.2698 -0.4744 -0.1182
 8651TIP3    H150148   4.089   6.531  10.336 -0.0100 -0.1635 -0.5729
 8651TIP3    H250149   4.154   6.487  10.465 -1.3099  0.0463  0.1828
 8652TIP3   OH250150   0.050   3.770  12.964 -0.1297  0.3680 -0.0521
 8652TIP3    H150151  -0.022   3.713  12.991  0.1565  0.2332  0.4285
 8652TIP3    H250152   0.066   3.746  12.872 -0.2152 -0.1115  0.0542
 8653TIP3   OH250153   1.351   0.753  10.829 -0.0487 -0.1678  0.1749
 8653TIP3    H150154   1.334   0.810  10.904 -0.0833  0.6688 -0.4519
 8653TIP3    H250155   1.427   0.700  10.856 -0.4053 -0.2743  1.0045
 8654TIP3   OH250156   5.682   0.400  11.489  0.2650  0.5410  0.6912
 8654TIP3    H150157   5.770   0.389  11.454 -0.7263 -0.3655 -1.7570
 8654TIP3    H250158   5.676   0.335  11.560  1.8542  1.3512  1.6120
 8655TIP3   OH250159   5.012   5.050  12.204  0.4712 -0.2834 -0.3462
 8655TIP3    H150160   4.999   5.124  12.144  0.2185 -2.2455 -2.8727
 8655TIP3    H250161   5.107   5.043  12.213  0.4921  1.0970  1.0246
 8656TIP3   OH250162   2.166   4.401   9.019 -0.3792  0.1735 -0.4405
 8656TIP3    H150163   2.214   4.337   8.966 -0.8923 -0.2504 -0.3931
 8656TIP3    H250164   2.226   4.476   9.025  0.1660 -0.2418 -0.6136
 8657TIP3   OH250165   6.106   0.276  10.552  0.0714 -0.1610 -0.0887
 8657TIP3    H150166   6.102   0.372  10.558 -1.5901 -0.2714  1.5257
 8657TIP3    H250167   6.155   0.249  10.629 -2.7189 -0.7084  1.6281
 8658TIP3   OH250168   2.071   3.046   9.217  0.1926  0.1357 -0.4584
 8658TIP3    H150169   2.064   3.059   9.123 -0.9814  0.5915 -0.3299
 8658TIP3    H250170   2.164   3.035   9.234  0.5878  1.7561 -1.4458
 8659TIP3   OH250171   2.429   2.942  10.292 -0.0822  0.3941 -0.2993
 8659TIP3    H150172   2.392   3.030  10.285 -0.5082  0.3687  1.1433
 8659TIP3    H250173   2.388   2.893  10.221 -2.8290  0.4080  1.1126
 8660TIP3   OH250174   2.081   0.625  11.733 -0.2235 -0.1413  0.4659
 8660TIP3    H150175   2.010   0.671  11.688  0.2467  0.6640  0.5185
 8660TIP3    H250176   2.055   0.623  11.825  0.2711  1.0695  0.6543
 8661TIP3   OH250177   1.057   0.062  11.819 -0.8726  0.0849 -0.3774
 8661TIP3    H150178   0.993   0.125  11.852 -0.2430  1.1569 -1.1257
 8661TIP3    H250179   1.142   0.101  11.839 -0.3930 -1.5584  1.0685
 8662TIP3   OH250180   4.070   3.030  12.022  0.1852 -0.7860 -0.1361
 8662TIP3    H150181   4.043   2.946  12.059  3.4859 -1.3710  1.2555
 8662TIP3    H250182   4.106   3.079  12.096 -1.5145  1.9141 -0.9239
 8663TIP3   OH250183   5.015   5.820  10.476 -0.4909 -0.6347 -0.4865
 8663TIP3    H150184   5.028   5.833  10.382  0.3998 -1.5079 -0.5035
 8663TIP3    H250185   5.018   5.726  10.488 -1.5002 -0.5801  0.3110
 8664TIP3   OH250186   1.331   0.636  11.865 -0.0546 -0.2578  0.4896
 8664TIP3    H150187   1.245   0.671  11.844  0.8594  3.0502  1.5365
 8664TIP3    H250188   1.383   0.652  11.786  0.1851  0.1166  0.7176
 8665TIP3   OH250189   2.881   4.548   9.963  0.3603  0.8373 -0.1585
 8665TIP3    H150190   2.937   4.472   9.975  1.1212  1.4113  0.0449
 8665TIP3    H250191   2.793   4.513   9.951  0.8062 -0.1026 -0.7804
 8666TIP3   OH250192   2.013   0.306   9.828  0.7423 -0.0566  0.2142
 8666TIP3    H150193   2.103   0.323   9.856  0.5958 -0.4725  0.9460
 8666TIP3    H250194   1.961   0.319   9.906  0.1010  0.6234 -0.3101
 8667TIP3   OH250195   5.597   6.371  12.462  0.0556 -0.8452 -0.2922
 8667TIP3    H150196   5.619   6.281  12.438 -0.1601 -0.6914 -1.0864
 8667TIP3    H250197   5.591   6.417  12.379 -0.2297 -0.1821  0.0903
 8668TIP3   OH250198   2.440   5.085  10.936  0.4566  0.1956  0.5577
 8668TIP3    H150199   2.440   5.003  10.886  1.0840 -0.5041  1.6594
 8668TIP3    H250200   2.362   5.130  10.907 -0.7409 -1.4855  0.9954
 8669TIP3   OH250201   6.736   5.155  12.385  0.3412 -0.1856 -0.3958
 8669TIP3    H150202   6.759   5.071  12.346  1.9767  0.6659 -1.3802
 8669TIP3    H250203   6.815   5.182  12.433  0.1196  1.1113 -0.7175
 8670TIP3   OH250204   0.579   5.759  11.763  0.5394 -0.2190  0.2062
 8670TIP3    H150205   0.640   5.829  11.739  0.8821 -0.4359  0.4494
 8670TIP3    H250206   0.588   5.694  11.694 -1.8835  1.2326 -1.6599
 8671TIP3   OH250207   0.690   3.220  10.561 -0.1646  0.1495  0.3013
 8671TIP3    H150208   0.603   3.233  10.524  0.2629  0.0947 -0.7860
 8671TIP3    H250209   0.716   3.306  10.593  0.0774  0.5922 -1.0040
 8672TIP3   OH250210   0.621   5.362  10.749  0.4146 -0.3197 -0.5463
 8672TIP3    H150211   0.632   5.298  10.820 -0.9972 -0.1763 -0.1753
 8672TIP3    H250212   0.635   5.312  10.669 -0.8314 -1.1485 -0.2670
 8673TIP3   OH250213   3.940   5.819  12.241  0.4036 -0.2726 -0.7830
 8673TIP3    H150214   3.996   5.890  12.271  0.5153 -0.1430 -1.2858
 8673TIP3    H250215   3.868   5.862  12.194  0.4452 -0.4848 -1.0473
 8674TIP3   OH250216   1.516   1.166   9.346  0.3037  0.2162 -0.1608
 8674TIP3    H150217   1.436   1.159   9.294  1.4365 -1.6219 -1.8154
 8674TIP3    H250218   1.485   1.175   9.436 -1.7520  0.5266 -0.8381
 8675TIP3   OH250219   3.938   4.585  11.551 -0.2987 -0.2429  0.0811
 8675TIP3    H150220   3.900   4.509  11.507 -1.4960  1.4245 -1.9562
 8675TIP3    H250221   3.893   4.588  11.636 -1.1868 -1.0654 -0.3355
 8676TIP3   OH250222   5.481   2.692  11.916  0.1727  0.0847  0.2104
 8676TIP3    H150223   5.416   2.696  11.986  1.3648  1.5709  1.3048
 8676TIP3    H250224   5.511   2.601  11.916 -1.6046 -0.5475 -0.0922
 8677TIP3   OH250225   1.716   4.568  11.911 -0.0707 -0.0435  0.0725
 8677TIP3    H150226   1.749   4.602  11.827 -0.4341 -0.7577 -0.3694
 8677TIP3    H250227   1.791   4.524  11.950  0.2948  0.8842  0.4648
 8678TIP3   OH250228   0.120   4.618  10.293  0.3755 -0.0764  0.6811
 8678TIP3    H150229   0.073   4.538  10.317  1.6422 -0.5255  1.8289
 8678TIP3    H250230   0.208   4.605  10.329  1.5334  0.5483 -1.7496
 8679TIP3   OH250231   2.104   3.732   9.941 -0.1352 -0.2700  0.5782
 8679TIP3    H150232   2.069   3.708   9.856 -0.8713 -0.5642  0.9501
 8679TIP3    H250233   2.192   3.765   9.923 -0.1975 -0.5428 -0.2615
 8680TIP3   OH250234   1.246   5.862  12.167  0.1711 -0.1320 -0.3690
 8680TIP3    H150235   1.261   5.777  12.208 -0.1728  0.1946  0.4522
 8680TIP3    H250236   1.176   5.902  12.219 -1.1066 -0.1877 -1.9782
 8681TIP3   OH250237   3.234   5.204  10.406 -0.0221 -0.4425  0.3155
 8681TIP3    H150238   3.315   5.181  10.451  0.5675 -0.5678 -0.7806
 8681TIP3    H250239   3.248   5.293  10.374 -0.7139 -0.0819  0.9946
 8682TIP3   OH250240   6.346   1.754   9.892  0.1068 -0.0312  0.5693
 8682TIP3    H150241   6.391   1.718   9.968 -1.0779 -0.7252  0.9561
 8682TIP3    H250242   6.380   1.704   9.818  0.6677  0.0996  0.7334
 8683TIP3   OH250243   5.824   1.975  11.442  0.4060  0.1656  0.1562
 8683TIP3    H150244   5.805   2.007  11.530  0.3066  0.3417  0.0711
 8683TIP3    H250245   5.856   1.886  11.455  1.8417  0.7170  0.4913
 8684TIP3   OH250246   5.124   1.747  10.617  0.9899  0.0956 -0.1830
 8684TIP3    H150247   5.116   1.652  10.629  0.1767  0.2536  0.6441
 8684TIP3    H250248   5.117   1.760  10.522 -0.3217 -0.5515 -0.1868
 8685TIP3   OH250249   1.785   6.219  11.339 -0.8393 -0.3811 -0.0844
 8685TIP3    H150250   1.795   6.233  11.434 -0.2485  1.3286 -0.3646
 8685TIP3    H250251   1.844   6.147  11.319 -0.7065 -0.5283  0.7949
 8686TIP3   OH250252   5.561   0.554  11.271  0.0036  0.0833 -0.1514
 8686TIP3    H150253   5.542   0.635  11.318  0.4744  0.9143 -1.3398
 8686TIP3    H250254   5.576   0.489  11.340  0.0332  1.1006  0.8289
 8687TIP3   OH250255   3.683   1.781  11.317  0.1093 -0.3698 -0.5599
 8687TIP3    H150256   3.622   1.711  11.294 -0.2192 -0.5090  0.6545
 8687TIP3    H250257   3.767   1.753  11.281  0.6653 -2.8275  2.2805
 8688TIP3   OH250258   4.379   0.296  11.991 -0.3421  0.3470  0.7287
 8688TIP3    H150259   4.410   0.283  12.080 -3.3897 -0.2881  1.8387
 8688TIP3    H250260   4.295   0.249  11.988 -1.3261  2.0231 -1.8553
 8689TIP3   OH250261   0.016   5.993  10.843  0.5661 -0.1502 -0.0006
 8689TIP3    H150262  -0.017   6.034  10.763  0.6067  1.4733  0.7699
 8689TIP3    H250263   0.050   5.908  10.815 -2.0676 -0.9042 -1.2170
 8690TIP3   OH250264   4.198   4.786  12.302 -0.2368  0.4313 -0.0082
 8690TIP3    H150265   4.219   4.839  12.225 -0.2197  0.4931  0.0381
 8690TIP3    H250266   4.102   4.780  12.302 -0.1995 -1.8047 -1.5595
 8691TIP3   OH250267   6.411   5.351   9.442 -0.2019  0.9821  0.4999
 8691TIP3    H150268   6.379   5.303   9.366  0.5836 -0.1294  0.8300
 8691TIP3    H250269   6.332   5.384   9.485 -0.6193  2.4647 -1.2831
 8692TIP3   OH250270   5.656   5.308   9.754  0.0692 -0.1346  0.5953
 8692TIP3    H150271   5.710   5.375   9.796  0.0572 -1.2740  2.5153
 8692TIP3    H250272   5.709   5.228   9.758  0.7288 -0.0516 -3.0221
 8693TIP3   OH250273   1.776   3.117  10.546 -0.1472 -0.1955  0.1313
 8693TIP3    H150274   1.690   3.075  10.548  0.1948 -1.4004 -3.2733
 8693TIP3    H250275   1.757   3.210  10.543 -1.4314 -0.4653 -1.4018
 8694TIP3   OH250276   2.283   2.697   9.895  0.1857 -0.2656  0.2418
 8694TIP3    H150277   2.204   2.714   9.843 -0.9400 -0.1034  1.9432
 8694TIP3    H250278   2.354   2.698   9.831 -1.3606 -2.2993 -1.6577
 8695TIP3   OH250279   1.822   3.662  13.394 -0.4359  0.1636 -0.4329
 8695TIP3    H150280   1.871   3.726  13.343  0.1656 -0.6915 -0.9594
 8695TIP3    H250281   1.875   3.582  13.389 -0.6068 -0.0656  1.1556
 8696TIP3   OH250282   0.337   2.530   9.745 -0.7655  0.0253 -0.4495
 8696TIP3    H150283   0.347   2.616   9.705 -1.0256  0.2087 -0.1290
 8696TIP3    H250284   0.391   2.534   9.824  0.8001 -0.7815 -1.4327
 8697TIP3   OH250285   2.120   5.675   9.699  0.2178  0.5530 -0.2325
 8697TIP3    H150286   2.099   5.685   9.606  2.2101  1.6892 -0.6251
 8697TIP3    H250287   2.166   5.756   9.722 -2.3653  1.4221  2.4401
 8698TIP3   OH250288   2.336   5.940  10.952  0.8051  0.3536 -0.1244
 8698TIP3    H150289   2.311   5.848  10.959  1.8004 -0.2320 -2.8253
 8698TIP3    H250290   2.424   5.939  10.915  0.8139  2.3861 -0.3135
 8699TIP3   OH250291   3.073   5.295  11.417 -0.4944 -0.1870 -0.2208
 8699TIP3    H150292   3.154   5.255  11.450 -1.3688 -1.5668  0.3513
 8699TIP3    H250293   3.007   5.271  11.482 -1.7312 -0.6614 -1.5995
 8700TIP3   OH250294   2.476   5.191  10.536 -0.1797 -0.0299 -0.3237
 8700TIP3    H150295   2.558   5.195  10.488  0.2264 -1.4318  0.1914
 8700TIP3    H250296   2.475   5.103  10.574 -2.5909 -0.6079 -1.5241
 8701TIP3   OH250297   3.426   6.120  10.422 -0.3168  0.1083 -0.6781
 8701TIP3    H150298   3.435   6.029  10.450  1.0862  0.1269 -1.0353
 8701TIP3    H250299   3.466   6.123  10.336 -2.9341  0.4647 -1.9930
 8702TIP3   OH250300   6.544   3.934  10.960  0.3998  0.5136  0.1004
 8702TIP3    H150301   6.543   4.017  10.913  0.4872 -0.3042 -1.4085
 8702TIP3    H250302   6.496   3.951  11.041 -0.1986  1.8394 -0.5056
 8703TIP3   OH250303   4.091   3.349  10.121  0.7473 -0.4153  0.1152
 8703TIP3    H150304   4.129   3.428  10.159  0.6304 -0.5734  0.5769
 8703TIP3    H250305   4.096   3.362  10.027 -0.9520  0.9566  0.1740
 8704TIP3   OH250306   0.721   4.166  11.332  0.4204 -0.0216  0.7567
 8704TIP3    H150307   0.648   4.210  11.376 -0.4049 -0.7123  0.1037
 8704TIP3    H250308   0.744   4.225  11.260  2.0128  1.2898  2.2524
 8705TIP3   OH250309   5.422   5.180   9.846 -0.4162  0.1388  0.4287
 8705TIP3    H150310   5.444   5.107   9.904 -0.9037  0.0311  0.4783
 8705TIP3    H250311   5.507   5.213   9.817 -0.1236  0.8691  2.0252
 8706TIP3   OH250312   0.967   1.538  12.379 -0.8449 -0.1342 -0.1622
 8706TIP3    H150313   0.928   1.460  12.418 -0.8321  1.0666  2.4658
 8706TIP3    H250314   0.918   1.611  12.416  0.6875  1.2006 -0.6410
 8707TIP3   OH250315   3.521   6.367  12.104 -0.4422  0.2885 -0.3507
 8707TIP3    H150316   3.551   6.347  12.193 -1.5308 -0.2449 -0.0860
 8707TIP3    H250317   3.511   6.462  12.103  2.5268  0.6995 -0.8947
 8708TIP3   OH250318   3.399   1.363  10.827 -0.5301  0.6141 -0.1797
 8708TIP3    H150319   3.391   1.289  10.887  1.6148  0.1175 -0.4150
 8708TIP3    H250320   3.415   1.323  10.741  2.9229  1.2259  0.0431
 8709TIP3   OH250321   4.112   0.681   9.507 -0.2363  0.2133  0.5455
 8709TIP3    H150322   4.196   0.643   9.531 -1.1453 -0.9950  2.0798
 8709TIP3    H250323   4.058   0.606   9.483 -1.5214  0.6895  1.7965
 8710TIP3   OH250324   1.069   5.122  10.872 -0.1946  0.0650 -0.1411
 8710TIP3    H150325   0.994   5.082  10.829 -0.4457  0.3689  0.0102
 8710TIP3    H250326   1.033   5.200  10.914  0.0436 -0.2215  0.6085
 8711TIP3   OH250327   1.408   2.777  10.429  0.0647 -0.0652  0.1858
 8711TIP3    H150328   1.367   2.725  10.360 -1.5847  1.1446  0.1728
 8711TIP3    H250329   1.334   2.823  10.470  1.2060  0.5311  1.6432
 8712TIP3   OH250330   0.535   1.603   9.637 -0.2323  0.1725 -0.1322
 8712TIP3    H150331   0.595   1.595   9.564 -0.9942 -0.4380 -0.7033
 8712TIP3    H250332   0.578   1.557   9.709 -0.6129 -1.4611 -0.9157
 8713TIP3   OH250333   0.205   6.682  10.433 -0.2906  0.4869 -0.3216
 8713TIP3    H150334   0.189   6.590  10.409 -2.2610  0.5738  0.4359
 8713TIP3    H250335   0.293   6.683  10.469  0.2908 -0.8399 -1.6182
 8714TIP3   OH250336   0.165   2.630   9.378  0.3237 -0.0287 -0.1735
 8714TIP3    H150337   0.078   2.596   9.396  0.4114  0.3429  1.0023
 8714TIP3    H250338   0.162   2.721   9.407  0.8480  0.2493 -0.9376
 8715TIP3   OH250339   0.178   4.299  11.681  0.3946  0.1312  0.2378
 8715TIP3    H150340   0.225   4.356  11.620  0.6715 -0.8380 -0.4747
 8715TIP3    H250341   0.143   4.359  11.747  0.8172  1.1061 -0.3954
 8716TIP3   OH250342   0.097   6.593  11.664 -0.0395 -1.1349 -0.4964
 8716TIP3    H150343   0.083   6.605  11.757 -0.1994 -0.9397 -0.5456
 8716TIP3    H250344   0.191   6.603  11.652 -0.0917 -0.5976 -0.4417
 8717TIP3   OH250345   6.702   0.205   9.719 -0.3642  0.1543 -0.2852
 8717TIP3    H150346   6.704   0.235   9.628  0.4657 -0.3433 -0.4382
 8717TIP3    H250347   6.612   0.173   9.732 -0.4986  0.2703 -0.9107
 8718TIP3   OH250348   4.463   5.601  11.904  0.0216 -0.4236 -0.2919
 8718TIP3    H150349   4.455   5.687  11.945 -1.4681 -1.3006  1.4377
 8718TIP3    H250350   4.385   5.594  11.848 -0.1724 -0.8520  0.0247
 8719TIP3   OH250351   6.405   5.403  11.228 -0.1226  0.0372  0.2134
 8719TIP3    H150352   6.337   5.368  11.287  0.0234  2.1141  1.7447
 8719TIP3    H250353   6.356   5.451  11.161 -0.2325 -0.8023 -0.3159
 8720TIP3   OH250354   1.019   2.595  12.363 -0.3791  0.2456 -0.1713
 8720TIP3    H150355   1.033   2.524  12.425 -0.1311 -2.6502 -3.2578
 8720TIP3    H250356   0.931   2.627  12.382 -0.9669 -1.7190  0.6049
 8721TIP3   OH250357   1.756   1.024  11.555 -0.3929  0.0621  0.3453
 8721TIP3    H150358   1.816   1.097  11.536  2.7063 -2.1396  0.8898
 8721TIP3    H250359   1.741   1.028  11.649  2.3468 -1.6604  0.9494
 8722TIP3   OH250360   4.968   0.452  11.881 -0.5361 -0.3573  0.0077
 8722TIP3    H150361   4.943   0.437  11.790 -0.3884 -3.8236  0.4357
 8722TIP3    H250362   4.910   0.395  11.932  0.3667  0.3917  1.9988
 8723TIP3   OH250363   5.391   0.662   9.565  0.2198  0.4947  0.1898
 8723TIP3    H150364   5.363   0.576   9.534 -1.5393  1.2089 -0.3308
 8723TIP3    H250365   5.441   0.699   9.491  1.7764 -0.4003  0.7549
 8724TIP3   OH250366   3.818   5.140  11.769  0.4662  0.0760 -0.4891
 8724TIP3    H150367   3.886   5.073  11.775  1.9203  1.4658 -1.0215
 8724TIP3    H250368   3.800   5.148  11.675  2.8920  2.8635 -0.8431
 8725TIP3   OH250369   4.689   3.790   9.354 -0.6063 -0.0545  0.0131
 8725TIP3    H150370   4.623   3.764   9.290  0.4829 -1.8098 -0.4486
 8725TIP3    H250371   4.772   3.758   9.319  0.1923  0.0533  1.6883
 8726TIP3   OH250372   1.116   5.423  11.492  0.3248 -0.6496 -0.1824
 8726TIP3    H150373   1.152   5.335  11.500  2.0960 -0.1645 -2.0998
 8726TIP3    H250374   1.044   5.413  11.429 -0.9581 -1.0658  1.2899
 8727TIP3   OH250375   4.139   2.788  10.197  0.6206  0.5050 -0.0739
 8727TIP3    H150376   4.172   2.699  10.199  0.9409  0.5464 -1.9154
 8727TIP3    H250377   4.114   2.803  10.106 -0.9257  1.7704  0.4958
 8728TIP3   OH250378   0.329   3.335  11.890 -0.2422 -0.4717 -0.4108
 8728TIP3    H150379   0.413   3.354  11.848  0.2096 -1.0795  0.1856
 8728TIP3    H250380   0.351   3.274  11.960 -1.2989 -1.2767 -0.7521
 8729TIP3   OH250381   3.966   3.667   9.759 -0.1275  0.4171 -0.2941
 8729TIP3    H150382   3.950   3.761   9.756  2.8135  0.9937 -0.5979
 8729TIP3    H250383   3.968   3.640   9.667  0.1622  0.2977 -0.2541
 8730TIP3   OH250384   1.461   4.390   9.712  0.0851  0.5429 -0.2811
 8730TIP3    H150385   1.541   4.412   9.761  0.2084  0.6512 -0.5288
 8730TIP3    H250386   1.492   4.335   9.640 -0.1778 -0.1701  0.1376
 8731TIP3   OH250387   2.441   1.138  11.747  0.0707  0.2686 -0.5028
 8731TIP3    H150388   2.510   1.095  11.697 -0.2515  1.2510 -1.8539
 8731TIP3    H250389   2.382   1.067  11.773  1.8875 -0.6925  1.2778
 8732TIP3   OH250390   3.883   0.547  12.229  0.4873 -0.0414 -0.0717
 8732TIP3    H150391   3.948   0.548  12.299 -0.5101  1.2123  0.8932
 8732TIP3    H250392   3.810   0.497  12.265  0.3611 -0.2556 -0.6102
 8733TIP3   OH250393   5.058   4.066  10.450  0.6166  0.2359 -0.6420
 8733TIP3    H150394   4.981   4.010  10.460 -0.7703  2.0609 -0.6067
 8733TIP3    H250395   5.043   4.113  10.368  0.5440  2.2564  0.4652
 8734TIP3   OH250396   0.321   5.994   9.243  0.0514 -0.1328  0.5640
 8734TIP3    H150397   0.257   6.036   9.300 -0.9817 -0.6325 -0.1934
 8734TIP3    H250398   0.279   5.992   9.157  1.4533  0.3232 -0.1598
 8735TIP3   OH250399   2.446   6.483  11.019  0.2231 -0.0378 -0.0198
 8735TIP3    H150400   2.363   6.527  11.001 -0.4643 -1.4304 -0.4008
 8735TIP3    H250401   2.512   6.552  11.013 -0.8571  1.0077 -0.1567
 8736TIP3   OH250402   0.212   2.561  10.323  0.0348  0.0960  0.0549
 8736TIP3    H150403   0.222   2.599  10.236 -0.2948 -0.6787 -0.3375
 8736TIP3    H250404   0.223   2.467  10.309 -1.3459 -0.1760  0.6161
 8737TIP3   OH250405   0.528   2.886  12.087 -0.2300  0.0655  0.3300
 8737TIP3    H150406   0.449   2.863  12.137  0.8004 -1.6089  1.3009
 8737TIP3    H250407   0.590   2.918  12.153  0.5771 -0.5699 -0.1047
 8738TIP3   OH250408   6.304   4.636  10.305 -0.8503  0.2333 -0.4445
 8738TIP3    H150409   6.273   4.596  10.386 -0.7406  0.0754 -0.4808
 8738TIP3    H250410   6.329   4.562  10.249 -2.1761  0.2796 -1.1302
 8739TIP3   OH250411   5.614   4.572  12.006 -0.8767 -0.3389 -0.0590
 8739TIP3    H150412   5.689   4.609  11.960 -1.0109  1.0874  0.8154
 8739TIP3    H250413   5.541   4.630  11.983 -0.9232  0.4879  1.9774
 8740TIP3   OH250414   0.271   6.501  10.993 -0.2203  0.2195 -0.1111
 8740TIP3    H150415   0.302   6.410  10.994  1.4385  0.7586  0.7802
 8740TIP3    H250416   0.196   6.502  11.052 -0.6208 -0.6707 -0.5832
 8741TIP3   OH250417   4.419   3.081   9.972 -0.5682 -0.0815  0.1594
 8741TIP3    H150418   4.498   3.041  10.008 -0.7864 -1.0393 -0.3871
 8741TIP3    H250419   4.445   3.171   9.951  0.4607 -0.4725 -0.2908
 8742TIP3   OH250420   5.266   3.968  11.293  0.0834 -0.3332 -0.0036
 8742TIP3    H150421   5.240   3.900  11.355 -0.0086 -1.3880 -1.1677
 8742TIP3    H250422   5.254   3.928  11.207 -1.4830  1.6902 -0.7934
 8743TIP3   OH250423   2.921   6.428  11.102 -0.6371  0.0933  0.1288
 8743TIP3    H150424   2.960   6.477  11.029  0.5559 -1.3968 -0.2769
 8743TIP3    H250425   2.889   6.347  11.062 -1.4147 -0.0529  1.0118
 8744TIP3   OH250426   2.518   2.575  12.181  0.3305 -0.5521  1.0409
 8744TIP3    H150427   2.502   2.485  12.209 -0.5705 -0.7404 -0.0124
 8744TIP3    H250428   2.533   2.568  12.087  0.6366  0.3530  1.0204
 8745TIP3   OH250429   2.151   6.385  11.135  0.2491  0.3417  0.1869
 8745TIP3    H150430   2.163   6.440  11.057 -0.9592 -1.8840 -1.6822
 8745TIP3    H250431   2.057   6.384  11.150  0.2580 -1.0409  0.2827
 8746TIP3   OH250432   2.074   2.685   9.688 -0.1374  0.4066  0.2514
 8746TIP3    H150433   2.092   2.597   9.656  0.5740  0.4195  0.6063
 8746TIP3    H250434   2.094   2.742   9.614 -0.8625  0.2594 -0.0685
 8747TIP3   OH250435   3.913   0.758  12.056 -0.3239 -0.3792  0.5449
 8747TIP3    H150436   3.918   0.683  12.115  0.8474  0.9364  2.2092
 8747TIP3    H250437   3.825   0.795  12.072 -0.1485 -0.2403  1.2254
 8748TIP3   OH250438   0.651   6.136  11.368  0.5899 -0.0454 -0.2673
 8748TIP3    H150439   0.676   6.043  11.365  2.7387  0.4910 -0.3850
 8748TIP3    H250440   0.634   6.159  11.277  1.7872  0.1055 -0.4565
 8749TIP3   OH250441   3.193   1.252  10.457  0.0402  0.8179 -0.2502
 8749TIP3    H150442   3.147   1.280  10.378 -1.0787 -0.6121 -0.1357
 8749TIP3    H250443   3.151   1.301  10.527  0.2896  1.2620 -0.4052
 8750TIP3   OH250444   6.031   3.561   9.954  0.0055 -0.0482 -0.6007
 8750TIP3    H150445   5.957   3.500   9.954 -0.1358  0.0904  0.5270
 8750TIP3    H250446   5.999   3.636  10.004  1.6083 -0.9256  1.9321
 8751TIP3   OH250447   6.060   2.884  12.640  0.3447 -0.6795  0.0559
 8751TIP3    H150448   6.067   2.979  12.645 -0.2237 -0.6496  0.2873
 8751TIP3    H250449   6.151   2.854  12.638  0.6047 -0.0056 -2.6851
 8752TIP3   OH250450   5.250   4.981  10.010  0.1035 -0.1824  0.0257
 8752TIP3    H150451   5.218   4.981  10.100  0.7632 -1.3064  0.2800
 8752TIP3    H250452   5.175   5.011   9.958 -0.7796 -0.9602  0.7965
 8753TIP3   OH250453   1.671   2.672  10.421  0.6838 -0.2968  0.5143
 8753TIP3    H150454   1.701   2.753  10.380  0.2817  0.0254  0.8532
 8753TIP3    H250455   1.577   2.685  10.435  0.6876 -0.6751  0.9126
 8754TIP3   OH250456   2.628   5.001  10.190 -0.6404 -0.0539 -0.0306
 8754TIP3    H150457   2.656   4.917  10.155  0.4337  0.0429  0.5515
 8754TIP3    H250458   2.707   5.055  10.189 -0.9030  0.3869  1.2100
 8755TIP3   OH250459   1.712   4.891   9.282  0.8275 -0.2228 -0.5263
 8755TIP3    H150460   1.644   4.829   9.310  0.4431 -0.3550 -1.6880
 8755TIP3    H250461   1.754   4.919   9.363 -2.1678  1.6638  0.5431
 8756TIP3   OH250462   6.448   4.572   9.572  0.2795  0.0083 -0.0827
 8756TIP3    H150463   6.454   4.622   9.653  0.6433  3.0399 -1.8329
 8756TIP3    H250464   6.537   4.541   9.556  0.4651  0.4710  0.0454
 8757TIP3   OH250465   4.587   2.750   9.987  0.4306  0.9510  0.1306
 8757TIP3    H150466   4.540   2.676  10.026  1.5520  0.0282 -0.2216
 8757TIP3    H250467   4.635   2.788  10.060  1.9925 -0.3611 -0.1523
 8758TIP3   OH250468   3.382   2.036  12.412 -0.1967  0.2867 -0.2314
 8758TIP3    H150469   3.351   2.097  12.479  1.0220  0.0597  0.5656
 8758TIP3    H250470   3.416   2.092  12.342 -0.1351  0.5300 -0.0085
 8759TIP3   OH250471   5.131   6.457  10.500  0.6097  0.4662 -0.1852
 8759TIP3    H150472   5.198   6.504  10.451  0.9858  0.8724  0.7035
 8759TIP3    H250473   5.049   6.476  10.453  1.1307 -0.2949 -1.4675
 8760TIP3   OH250474   4.275   5.453  12.648  0.1078  0.6100  0.7887
 8760TIP3    H150475   4.253   5.360  12.639  0.5607  0.4043  1.6088
 8760TIP3    H250476   4.369   5.456  12.630  0.0069  0.9912  0.3058
 8761TIP3   OH250477   4.619   4.060  10.169  0.3115 -0.1465 -0.1646
 8761TIP3    H150478   4.686   3.992  10.161  2.3013  1.9321 -3.0718
 8761TIP3    H250479   4.537   4.011  10.180  1.7749 -2.9415 -0.6637
 8762TIP3   OH250480   2.535   5.709  11.804  0.0476 -0.1888 -0.0486
 8762TIP3    H150481   2.555   5.800  11.782  1.1930  0.0375  1.7244
 8762TIP3    H250482   2.506   5.712  11.895 -1.8932 -1.3825 -0.5652
 8763TIP3   OH250483   6.737   6.628  10.992  0.0536  0.2917 -0.0819
 8763TIP3    H150484   6.673   6.693  10.964 -0.1071  0.0029 -0.3899
 8763TIP3    H250485   6.736   6.562  10.923 -0.0752 -0.2453  0.4257
 8764TIP3   OH250486   6.106   1.023  18.793 -0.5463 -0.0346  0.4679
 8764TIP3    H150487   6.014   1.040  18.816 -0.8876 -1.8873  0.6511
 8764TIP3    H250488   6.154   1.098  18.827 -1.7783  0.1314  1.9522
 8765TIP3   OH250489   3.239   0.691  11.904 -0.5451  0.3957 -0.2496
 8765TIP3    H150490   3.209   0.770  11.857 -1.5067  0.0649 -0.2188
 8765TIP3    H250491   3.174   0.679  11.974 -1.6116 -1.5824 -1.4877
 8766TIP3   OH250492   1.250   5.257  12.199 -0.5021 -0.0854  0.0628
 8766TIP3    H150493   1.267   5.267  12.293 -0.1350  0.2055 -0.0332
 8766TIP3    H250494   1.183   5.189  12.194  0.3882 -1.0012  0.4628
 8767TIP3   OH250495   1.989   2.004  10.854 -0.1995 -0.1512  0.2701
 8767TIP3    H150496   1.988   1.982  10.947 -0.0521 -0.5496  0.1798
 8767TIP3    H250497   2.038   1.933  10.813  0.3898  0.4069 -0.0213
 8768TIP3   OH250498   1.538   1.678  10.757  0.0492  0.2875  0.0235
 8768TIP3    H150499   1.611   1.630  10.796  0.3048 -0.3969 -1.2306
 8768TIP3    H250500   1.479   1.610  10.725  0.2480  0.7927 -1.4900
 8769TIP3   OH250501   4.047   6.711  10.656 -0.0349 -0.1455 -0.3315
 8769TIP3    H150502   4.057   6.683  10.565 -3.8631  2.1507 -1.6913
 8769TIP3    H250503   3.994   6.643  10.697  0.8314 -0.6755 -0.0623
 8770TIP3   OH250504   3.092   4.928   9.274 -0.1784  0.3649 -0.0177
 8770TIP3    H150505   3.005   4.967   9.282 -0.1867  1.4501 -3.6244
 8770TIP3    H250506   3.075   4.834   9.261 -0.4475 -0.1674  3.2842
 8771TIP3   OH250507   0.355   0.723   9.661 -0.3713  0.1426 -0.4713
 8771TIP3    H150508   0.265   0.749   9.645 -0.2533  0.8365 -0.0200
 8771TIP3    H250509   0.373   0.749   9.751 -0.0081 -0.8332 -0.2403
 8772TIP3   OH250510   1.631   4.486  12.187 -0.2824 -0.0967  0.5281
 8772TIP3    H150511   1.662   4.395  12.185  1.1478  0.3700  0.6146
 8772TIP3    H250512   1.630   4.513  12.095  1.0799  0.3519  0.6156
 8773TIP3   OH250513   4.691   4.980  11.542 -0.2295 -0.2550 -0.1160
 8773TIP3    H150514   4.747   5.015  11.612  1.4214 -2.5339 -0.1815
 8773TIP3    H250515   4.727   5.016  11.462 -0.7702  0.6374  0.0249
 8774TIP3   OH250516   0.327   6.237  10.191  0.0079 -0.3269 -0.1781
 8774TIP3    H150517   0.309   6.326  10.162 -1.8341 -0.9609 -1.1438
 8774TIP3    H250518   0.402   6.245  10.250  1.1810  1.5864 -1.7878
 8775TIP3   OH250519   4.933   6.678  11.028 -0.1112  0.3234 -0.0505
 8775TIP3    H150520   4.925   6.591  10.990  2.0312  0.0446  0.0203
 8775TIP3    H250521   5.001   6.669  11.094 -2.0128  1.3659  2.2026
 8776TIP3   OH250522   0.949   2.291  20.231 -0.2661  0.3432 -0.2025
 8776TIP3    H150523   1.029   2.314  20.184  0.7070 -0.4156  1.0367
 8776TIP3    H250524   0.899   2.238  20.169  0.7035 -0.1113 -0.6159
 8777TIP3   OH250525   5.254   3.853  10.433 -0.9137  0.2370  0.7870
 8777TIP3    H150526   5.281   3.888  10.349 -0.5251 -1.0143  0.3677
 8777TIP3    H250527   5.194   3.919  10.469 -3.8599 -0.6639 -2.0064
 8778TIP3   OH250528   3.850   0.194   9.635  0.1689  0.4604  0.4802
 8778TIP3    H150529   3.943   0.177   9.624  0.2613 -1.0104  2.8484
 8778TIP3    H250530   3.807   0.132   9.577  0.6626 -0.2387  0.8536
 8779TIP3   OH250531   1.616   5.810  11.474  0.0369 -0.1535 -0.3342
 8779TIP3    H150532   1.637   5.888  11.525 -2.9648  0.4325  0.1683
 8779TIP3    H250533   1.633   5.834  11.384  1.9207  0.0368  0.0375
 8780TIP3   OH250534   2.265   3.338   9.399 -0.7214 -0.1119 -0.1031
 8780TIP3    H150535   2.262   3.302   9.488  0.8158  0.7984  0.3440
 8780TIP3    H250536   2.234   3.266   9.343 -0.0743 -1.2783  0.9877
 8781TIP3   OH250537   5.413   2.482  10.816  0.7151  0.0261 -0.3129
 8781TIP3    H150538   5.404   2.416  10.884  0.7002 -0.1196 -0.4567
 8781TIP3    H250539   5.434   2.433  10.737 -0.4977  0.0651 -0.6886
 8782TIP3   OH250540   6.075   2.033   9.459 -0.2742  0.0188  0.2228
 8782TIP3    H150541   5.999   2.066   9.412  1.3654  0.8448 -2.0236
 8782TIP3    H250542   6.050   1.945   9.487 -1.3599 -0.5540 -2.3115
 8783TIP3   OH250543   3.867   4.275  13.054 -0.0525 -0.2828  0.3375
 8783TIP3    H150544   3.870   4.217  12.978 -1.3959  0.2342 -0.1332
 8783TIP3    H250545   3.915   4.353  13.026 -0.1497 -0.2779  0.1831
 8784TIP3   OH250546   1.795   6.644  11.303 -0.1141 -0.5154 -0.0920
 8784TIP3    H150547   1.719   6.588  11.316 -0.7551  0.6042  1.3068
 8784TIP3    H250548   1.762   6.733  11.318  1.5397 -0.0367  1.0608
 8785TIP3   OH250549   3.440   5.919  12.151 -0.0916 -0.1385 -0.3180
 8785TIP3    H150550   3.381   5.977  12.200  0.1879  0.2121 -0.3904
 8785TIP3    H250551   3.409   5.923  12.061 -0.4486 -0.5815 -0.2139
 8786TIP3   OH250552   4.778   5.541  11.220  0.3387 -0.0797  0.0325
 8786TIP3    H150553   4.831   5.533  11.140 -0.5656  2.2298 -0.8994
 8786TIP3    H250554   4.727   5.621  11.206 -1.6879 -0.9617  1.8854
 8787TIP3   OH250555   4.750   1.240  11.516  0.0180  0.2355  0.0579
 8787TIP3    H150556   4.693   1.207  11.586  1.5059  1.4107  1.9591
 8787TIP3    H250557   4.836   1.204  11.537  0.9298  2.2629  0.0989
 8788TIP3   OH250558   0.934   6.373   9.591 -0.3640  0.0001 -0.8725
 8788TIP3    H150559   0.932   6.468   9.608  1.9113  0.2153 -1.5442
 8788TIP3    H250560   0.841   6.347   9.592 -1.0283  2.1657 -0.3887
 8789TIP3   OH250561   3.979   0.876   9.771 -0.5710 -0.3178  0.6039
 8789TIP3    H150562   4.010   0.791   9.802 -0.8447 -0.0701  1.5958
 8789TIP3    H250563   3.954   0.861   9.679 -1.2644 -1.4805  0.9595
 8790TIP3   OH250564   4.133   2.880   9.527 -0.1922 -0.1570  0.8489
 8790TIP3    H150565   4.104   2.877   9.618  0.5228  0.4765  1.1088
 8790TIP3    H250566   4.115   2.969   9.499 -2.8749 -1.0076 -0.5001
 8791TIP3   OH250567   5.195   0.450  11.513 -0.5508  0.7554 -0.2701
 8791TIP3    H150568   5.105   0.483  11.522 -0.8134 -0.5261  3.1291
 8791TIP3    H250569   5.250   0.526  11.533 -0.9896  0.9088  0.4090
 8792TIP3   OH250570   1.858   4.122  12.887  0.3021 -0.5843  0.5306
 8792TIP3    H150571   1.794   4.189  12.865  0.6438  0.0722  1.4646
 8792TIP3    H250572   1.863   4.067  12.809 -0.7176 -0.1137  0.1148
 8793TIP3   OH250573   0.404   3.068  11.074 -0.8878 -0.0607  0.1226
 8793TIP3    H150574   0.423   3.107  10.988 -1.0762 -1.1183 -0.4178
 8793TIP3    H250575   0.430   2.977  11.064  0.2390  0.0667  1.5923
 8794TIP3   OH250576   4.044   6.439   9.261  0.3702  0.4236  0.1132
 8794TIP3    H150577   4.039   6.343   9.265  0.4937  0.3582 -0.9376
 8794TIP3    H250578   3.970   6.464   9.207  1.2664  0.7811 -0.9951
 8795TIP3   OH250579   3.591   2.196  12.271 -0.9678  0.3699  0.0923
 8795TIP3    H150580   3.655   2.266  12.260 -0.3005  0.1345  2.0993
 8795TIP3    H250581   3.507   2.242  12.273 -0.8870  0.7160 -2.1769
 8796TIP3   OH250582   4.112   2.495  10.617  0.2724  0.3828  0.3372
 8796TIP3    H150583   4.055   2.568  10.643  0.5572  1.2366 -1.3209
 8796TIP3    H250584   4.191   2.537  10.584  1.0754 -0.7468  0.7445
 8797TIP3   OH250585   6.492   1.471  11.538 -0.0580 -0.4054  0.2022
 8797TIP3    H150586   6.535   1.556  11.527 -1.4350  0.4972  1.5150
 8797TIP3    H250587   6.453   1.474  11.626  0.4664 -2.6845  0.5908
 8798TIP3   OH250588   1.264   1.191   9.276  0.3030  0.7088 -0.2512
 8798TIP3    H150589   1.278   1.231   9.190  0.2633 -1.9447 -1.5994
 8798TIP3    H250590   1.182   1.228   9.307 -0.1402  1.0589 -1.7816
 8799TIP3   OH250591   3.177   0.726  10.244 -0.3440 -0.2851  0.1482
 8799TIP3    H150592   3.148   0.815  10.266  1.4448  0.6897 -1.1188
 8799TIP3    H250593   3.246   0.707  10.308 -0.4546 -0.6104  0.1720
 8800TIP3   OH250594   1.975   0.058  11.117  0.2601 -0.0412  0.3279
 8800TIP3    H150595   2.067   0.032  11.125  0.0013 -1.9030 -1.7853
 8800TIP3    H250596   1.926  -0.022  11.138 -1.1675  1.7260  4.9205
 8801TIP3   OH250597   1.427   6.384  11.677  0.0400  0.1776  0.3754
 8801TIP3    H150598   1.433   6.318  11.746  0.6796  0.1218  0.2768
 8801TIP3    H250599   1.509   6.374  11.628 -0.0034  0.8304  0.1662
 8802TIP3   OH250600   3.952   0.986  11.906 -0.3469  0.3671  0.2577
 8802TIP3    H150601   3.945   0.983  11.810  2.2753  1.1805 -0.0398
 8802TIP3    H250602   3.946   0.894  11.933  0.9737 -0.0940 -0.9138
 8803TIP3   OH250603   5.164   2.992  10.741 -0.6560 -0.8137  0.2866
 8803TIP3    H150604   5.084   3.038  10.765 -0.1247 -0.5214  1.5455
 8803TIP3    H250605   5.135   2.906  10.711 -1.5790 -0.0302 -1.1580
 8804TIP3   OH250606   2.046   0.003   9.718 -0.5766 -0.3076  0.0241
 8804TIP3    H150607   1.994   0.050   9.784 -0.7959 -1.5764  0.7781
 8804TIP3    H250608   2.090   0.073   9.669  3.0729  0.7677  4.1965
 8805TIP3   OH250609   3.797   1.807  11.737  0.3146 -0.4882  0.0284
 8805TIP3    H150610   3.814   1.873  11.670  1.7949 -0.9219 -0.0715
 8805TIP3    H250611   3.776   1.856  11.816 -2.1138  0.0336 -0.8518
 8806TIP3   OH250612   1.301   0.544  11.387 -0.1596  0.2257  0.1103
 8806TIP3    H150613   1.363   0.488  11.342 -0.0370  0.2829  0.2094
 8806TIP3    H250614   1.229   0.486  11.413  0.2339  0.0061  0.7255
 8807TIP3   OH250615   2.096   0.588  10.145  0.8437 -0.5033  0.0004
 8807TIP3    H150616   2.033   0.623  10.082  0.5444 -1.9692 -0.5590
 8807TIP3    H250617   2.154   0.532  10.092  2.4612  0.5794  0.5458
 8808TIP3   OH250618   3.696   4.255  11.899 -0.3063 -0.0324 -0.1619
 8808TIP3    H150619   3.737   4.300  11.973 -0.6329  2.0666 -1.1886
 8808TIP3    H250620   3.666   4.325  11.842 -1.9908 -1.5657 -1.2606
 8809TIP3   OH250621   6.642   2.294  11.840 -0.6672  0.2122  0.2609
 8809TIP3    H150622   6.550   2.273  11.826 -0.0833 -1.3651 -1.6767
 8809TIP3    H250623   6.669   2.236  11.912 -0.5669 -1.4811 -1.0537
 8810TIP3   OH250624   1.754   0.702   9.931  0.0181 -0.1769 -0.2285
 8810TIP3    H150625   1.718   0.621   9.893  0.1077 -0.7561  0.8714
 8810TIP3    H250626   1.731   0.770   9.868 -0.6992 -0.9476 -0.8295
 8811TIP3   OH250627   0.078   4.793   9.796 -0.5860 -0.0001  0.6628
 8811TIP3    H150628   0.114   4.781   9.884  1.3596  1.2270  0.1049
 8811TIP3    H250629   0.134   4.741   9.739 -0.1586  1.2799 -0.1415
 8812TIP3   OH250630   2.268   4.296  12.531 -0.2423 -0.1597 -0.3418
 8812TIP3    H150631   2.278   4.384  12.495  0.7989 -0.8841 -1.9321
 8812TIP3    H250632   2.338   4.289  12.596  0.0924 -0.0356 -0.6867
 8813TIP3   OH250633   4.670   5.892  12.574 -0.5689  0.2076  0.5170
 8813TIP3    H150634   4.725   5.823  12.537  0.4284  2.5506 -2.7774
 8813TIP3    H250635   4.587   5.848  12.595  0.4660 -2.2085 -0.1326
 8814TIP3   OH250636   5.626   4.491  10.587 -0.3382 -0.1397 -0.1509
 8814TIP3    H150637   5.644   4.424  10.521 -0.5407  1.3465 -1.8081
 8814TIP3    H250638   5.553   4.456  10.638 -0.9166 -0.8999 -1.4333
 8815TIP3   OH250639   4.765   2.872  11.259  0.3654  0.1018 -0.2349
 8815TIP3    H150640   4.824   2.903  11.190  0.8573 -1.4632 -0.5618
 8815TIP3    H250641   4.713   2.804  11.217 -0.4542  0.2309  0.5345
 8816TIP3   OH250642   3.705   5.853  12.540  0.5455 -0.1934 -0.4670
 8816TIP3    H150643   3.640   5.786  12.560 -0.8141  1.3764  0.6255
 8816TIP3    H250644   3.786   5.804  12.526 -0.6109 -2.1253 -0.7582
 8817TIP3   OH250645   6.003   4.269  10.865 -0.6045  0.3745  0.1430
 8817TIP3    H150646   5.975   4.253  10.775 -0.0818  0.5513 -0.0563
 8817TIP3    H250647   6.039   4.358  10.863  0.0631  0.1087  0.3683
 8818TIP3   OH250648   3.226   2.624  11.396 -0.0282  0.1103  0.2269
 8818TIP3    H150649   3.281   2.701  11.412  0.7748 -0.0081 -1.6683
 8818TIP3    H250650   3.279   2.551  11.427  0.7594  0.0358 -1.2046
 8819TIP3   OH250651   2.669   5.583   9.397  0.2977  0.2438 -0.2196
 8819TIP3    H150652   2.629   5.646   9.337  0.4483  0.6913  0.1453
 8819TIP3    H250653   2.625   5.599   9.481  0.8498  0.3637  0.0485
 8820TIP3   OH250654   4.520   0.906   9.913  0.1942  0.0037 -0.0116
 8820TIP3    H150655   4.513   0.859   9.996 -3.7018  1.7196  0.8623
 8820TIP3    H250656   4.478   0.849   9.849 -0.7768  0.4995  0.1692
 8821TIP3   OH250657   4.009   5.335   9.817  0.1275 -0.0343  0.3155
 8821TIP3    H150658   3.961   5.400   9.766  1.3163 -0.1605 -1.0381
 8821TIP3    H250659   4.028   5.379   9.900 -1.1707  0.4577  0.3791
 8822TIP3   OH250660   1.377   2.586  12.135 -0.1204  0.1602 -0.3596
 8822TIP3    H150661   1.440   2.647  12.097  0.7961 -0.2359  0.4703
 8822TIP3    H250662   1.336   2.635  12.207  0.3486 -0.0582  0.0682
 8823TIP3   OH250663   2.795   6.169  11.886  0.6819  0.2282  0.2128
 8823TIP3    H150664   2.852   6.177  11.809  1.1856 -0.5464  0.5004
 8823TIP3    H250665   2.853   6.185  11.961  0.4040  0.0271  0.4736
 8824TIP3   OH250666   5.870   0.859  10.230  0.0974 -0.1087 -0.0152
 8824TIP3    H150667   5.820   0.893  10.305  0.4719 -1.5773  0.9413
 8824TIP3    H250668   5.813   0.873  10.155 -0.7200  0.4814  0.6911
 8825TIP3   OH250669   3.099   5.060  12.080  0.2573  0.2541 -0.3591
 8825TIP3    H150670   3.103   4.974  12.121 -0.9130  0.4129  0.1248
 8825TIP3    H250671   3.109   5.122  12.153  0.1439  0.5274 -0.5745
 8826TIP3   OH250672   1.480   0.660  11.624  0.0185  0.4223  0.1055
 8826TIP3    H150673   1.567   0.688  11.595 -0.8519  1.5021 -1.6355
 8826TIP3    H250674   1.455   0.591  11.562 -0.8118  0.9152 -0.1223
 8827TIP3   OH250675   5.963   5.539  10.731  0.3166 -0.2508 -0.0054
 8827TIP3    H150676   6.041   5.596  10.729  0.7566 -0.7381  1.8355
 8827TIP3    H250677   5.982   5.471  10.667  0.8815  0.2952 -0.4342
 8828TIP3   OH250678   0.841   5.229  11.691 -0.3018  0.0194  0.3179
 8828TIP3    H150679   0.803   5.316  11.688 -2.3766 -0.6417  2.9019
 8828TIP3    H250680   0.768   5.170  11.674  1.2839 -1.3195 -2.6085
 8829TIP3   OH250681   0.942   1.390   9.776  0.1334 -0.6983 -0.0397
 8829TIP3    H150682   1.006   1.324   9.801  0.5693  0.4289  2.0145
 8829TIP3    H250683   0.890   1.404   9.855  0.2282  1.5687 -0.3139
 8830TIP3   OH250684   4.175   1.810  12.344 -0.0894  0.3234  0.3167
 8830TIP3    H150685   4.130   1.726  12.347  0.0005  0.3069  1.7613
 8830TIP3    H250686   4.239   1.806  12.415 -0.8586  2.0383  1.1845
 8831TIP3   OH250687   0.347   5.860  11.384 -0.5525  0.1146 -0.2346
 8831TIP3    H150688   0.346   5.939  11.330 -0.6106 -0.6507 -1.3996
 8831TIP3    H250689   0.436   5.828  11.378 -0.1180  0.8822  1.4893
 8832TIP3   OH250690   0.580   5.863  12.030 -0.7879  0.0861  0.7766
 8832TIP3    H150691   0.490   5.861  12.062 -0.7968  0.1701  0.7574
 8832TIP3    H250692   0.584   5.793  11.965 -0.7881 -0.0396  0.9124
 8833TIP3   OH250693   4.570   0.037  13.024 -0.0850  0.4595 -0.2873
 8833TIP3    H150694   4.591   0.099  12.955 -1.4705  1.2481 -0.0359
 8833TIP3    H250695   4.497  -0.015  12.989 -0.3643  0.4240  0.3209
 8834TIP3   OH250696   5.886   5.061  10.111 -0.4159  0.4754 -0.1546
 8834TIP3    H150697   5.921   5.119  10.179 -1.7408 -0.2153  1.1710
 8834TIP3    H250698   5.799   5.036  10.143 -2.9130  3.2355 -3.8892
 8835TIP3   OH250699   2.672   6.418   9.221  0.0268 -0.3896 -0.1285
 8835TIP3    H150700   2.743   6.466   9.265 -0.7782  1.1675 -0.4543
 8835TIP3    H250701   2.715   6.341   9.184  1.6704  0.7597 -0.7457
 8836TIP3   OH250702   2.370   3.426  12.348 -0.5275 -0.2008 -0.1403
 8836TIP3    H150703   2.280   3.394  12.355 -0.2209 -0.9207  0.8275
 8836TIP3    H250704   2.406   3.414  12.436  0.2278  0.9813 -0.2679
 8837TIP3   OH250705   1.977   6.002   9.713  0.5019  0.2714 -0.3792
 8837TIP3    H150706   2.018   5.991   9.627  1.3599  0.2545  0.0250
 8837TIP3    H250707   2.016   6.082   9.748  1.1089 -0.4052  0.5241
 8838TIP3   OH250708   1.986   1.912  12.035 -0.2997  1.0407 -0.8631
 8838TIP3    H150709   2.072   1.898  11.995  0.5815 -0.3101  1.3187
 8838TIP3    H250710   1.999   1.891  12.128 -2.9588  0.9496 -0.4390
 8839TIP3   OH250711   3.842   4.718  12.654 -0.2435 -0.0039 -0.0161
 8839TIP3    H150712   3.863   4.698  12.745  1.4522 -0.6607 -0.5012
 8839TIP3    H250713   3.868   4.809  12.642 -0.8167  0.1956  0.2467
 8840TIP3   OH250714   5.111   3.544  11.088  0.0838  0.0134  0.1766
 8840TIP3    H150715   5.151   3.604  11.025  2.9021 -0.5510  1.2697
 8840TIP3    H250716   5.042   3.596  11.130 -0.0590  1.2392 -1.4667
 8841TIP3   OH250717   0.402   0.448  10.334 -0.5061  0.2788 -0.0899
 8841TIP3    H150718   0.492   0.481  10.334  0.8301 -2.9433 -1.1689
 8841TIP3    H250719   0.351   0.516  10.291  1.9079  1.1590 -1.7334
 8842TIP3   OH250720   6.214   0.974  11.352  0.8993  0.1407  0.1277
 8842TIP3    H150721   6.207   1.041  11.284  0.9063 -0.2997 -0.3118
 8842TIP3    H250722   6.210   0.891  11.305 -1.2195 -0.2170  0.8488
 8843TIP3   OH250723   1.109   6.367  10.278 -0.0025 -0.0752  0.4922
 8843TIP3    H150724   1.108   6.453  10.238  0.4163 -0.3615 -0.1562
 8843TIP3    H250725   1.035   6.321  10.239  0.0184 -0.1421  0.5306
 8844TIP3   OH250726   0.272   3.768  12.614  0.3479  0.4425 -0.4073
 8844TIP3    H150727   0.303   3.757  12.704 -0.2629  0.6284 -0.1628
 8844TIP3    H250728   0.180   3.741  12.617 -0.3228  2.4975 -0.4644
 8845TIP3   OH250729   1.804   4.694  11.419 -0.0647 -0.2351 -0.4334
 8845TIP3    H150730   1.760   4.779  11.431  1.5040  0.3400  2.1904
 8845TIP3    H250731   1.829   4.692  11.327 -0.6362  1.9407 -0.6850
 8846TIP3   OH250732   2.070   3.517  11.447 -0.1532  0.3208  0.4769
 8846TIP3    H150733   2.150   3.554  11.407  0.5051 -1.3474  0.1931
 8846TIP3    H250734   1.999   3.571  11.411  0.7235  1.0198 -0.2799
 8847TIP3   OH250735   3.590   0.646  10.563 -0.0269  0.2581  0.3494
 8847TIP3    H150736   3.651   0.576  10.588  0.3005  0.4300  0.0306
 8847TIP3    H250737   3.624   0.724  10.606 -0.8329  0.0869  1.3602
 8848TIP3   OH250738   1.364   0.445  10.364 -0.5752  0.0800 -0.5684
 8848TIP3    H150739   1.355   0.415  10.455  3.3135  0.0989 -0.0166
 8848TIP3    H250740   1.297   0.513  10.355 -2.3573 -1.2257  1.6020
 8849TIP3   OH250741   1.916   2.256  10.797 -0.0023  0.4375  0.0620
 8849TIP3    H150742   1.974   2.310  10.851 -0.4286  1.0313 -0.0571
 8849TIP3    H250743   1.941   2.166  10.817  0.8235  0.6795  0.1570
 8850TIP3   OH250744   1.044   1.444  11.101 -0.5289 -0.1310 -0.2512
 8850TIP3    H150745   1.098   1.500  11.156 -0.5286  0.5935 -0.9599
 8850TIP3    H250746   1.065   1.355  11.128  2.5911 -0.0300 -1.8272
 8851TIP3   OH250747   4.641   5.287  11.555  0.0846  0.6712 -0.0297
 8851TIP3    H150748   4.664   5.370  11.513  2.0261  0.4419  0.4808
 8851TIP3    H250749   4.646   5.306  11.649  0.2195  0.0552  0.0910
 8852TIP3   OH250750   6.221   0.505  11.874 -0.1832 -1.2588  0.3003
 8852TIP3    H150751   6.217   0.439  11.943  0.1544 -0.5893  0.9806
 8852TIP3    H250752   6.276   0.574  11.910 -1.6606  0.0522  0.1849
 8853TIP3   OH250753   1.756   3.404  12.529 -0.0957  0.0255  0.5661
 8853TIP3    H150754   1.787   3.313  12.528 -0.6056 -0.1568 -0.5803
 8853TIP3    H250755   1.834   3.456  12.514 -0.1580 -0.3953 -1.6032
 8854TIP3   OH250756   3.498   0.617  11.144 -0.2792 -0.6233  0.2874
 8854TIP3    H150757   3.527   0.602  11.234 -1.7238 -2.4631  0.5012
 8854TIP3    H250758   3.458   0.704  11.146  0.8328 -0.1136  1.1056
 8855TIP3   OH250759   6.664   4.949  11.871  0.2560  0.0923 -0.1412
 8855TIP3    H150760   6.736   4.980  11.816 -0.9391  0.6016 -1.4754
 8855TIP3    H250761   6.593   5.012  11.856 -0.8336 -0.9829  0.2836
 8856TIP3   OH250762   1.931   4.417  11.995  0.5951 -0.2261 -0.3496
 8856TIP3    H150763   1.996   4.388  11.931 -1.4437 -0.4746 -2.4497
 8856TIP3    H250764   1.873   4.341  12.006 -0.5783  0.6658 -0.2308
 8857TIP3   OH250765   3.078   0.431  12.679  0.0614  0.1119  0.3703
 8857TIP3    H150766   3.109   0.346  12.647 -1.3830 -0.7471  1.1593
 8857TIP3    H250767   3.157   0.485  12.683  0.6547 -0.2817 -2.7574
 8858TIP3   OH250768   1.160   4.383  12.184 -0.3090  0.2455  0.8244
 8858TIP3    H150769   1.092   4.336  12.137  0.4363  0.1170 -0.1530
 8858TIP3    H250770   1.170   4.465  12.136  2.0006 -0.7983 -0.6745
 8859TIP3   OH250771   2.147   4.531  12.639  0.1436 -0.0473  0.2212
 8859TIP3    H150772   2.122   4.619  12.669 -1.5516 -0.1253 -0.8405
 8859TIP3    H250773   2.211   4.501  12.703  1.4411  2.3068  0.1340
 8860TIP3   OH250774   0.897   1.190  10.289  0.2953 -0.1014 -0.4305
 8860TIP3    H150775   0.926   1.230  10.371 -0.8349  2.1065 -1.0372
 8860TIP3    H250776   0.978   1.174  10.240  0.8684  0.1361  0.4251
 8861TIP3   OH250777   5.741   5.260   9.200  0.1100  0.2855  0.0081
 8861TIP3    H150778   5.648   5.271   9.220 -0.3047 -0.1778 -1.5140
 8861TIP3    H250779   5.784   5.328   9.252 -0.8408 -0.7327  2.2688
 8862TIP3   OH250780   6.102   5.001  10.451 -0.1589  0.1012 -0.6462
 8862TIP3    H150781   6.016   4.960  10.462 -0.3257  0.2926 -1.2262
 8862TIP3    H250782   6.154   4.967  10.524 -0.7854  0.1443 -0.1744
 8863TIP3   OH250783   3.772   1.803  12.373 -0.2192  0.2303 -0.5897
 8863TIP3    H150784   3.828   1.734  12.339 -0.0247  0.0688  0.0369
 8863TIP3    H250785   3.683   1.774  12.351 -0.4167 -1.8083  2.2623
 8864TIP3   OH250786   5.363   2.755  10.817 -0.8643 -0.6266  0.3141
 8864TIP3    H150787   5.377   2.662  10.801 -1.5284 -0.8489  0.9654
 8864TIP3    H250788   5.285   2.758  10.872 -0.4981  0.2789  0.8060
 8865TIP3   OH250789   1.156   0.160   9.599 -0.0182  0.5782 -0.3664
 8865TIP3    H150790   1.137   0.108   9.677 -0.4922  0.4994 -0.5258
 8865TIP3    H250791   1.201   0.238   9.631  4.1627 -1.5234 -0.3905
 8866TIP3   OH250792   4.715   2.584  12.441  0.2458  0.1303  0.1255
 8866TIP3    H150793   4.693   2.581  12.534 -0.1428  2.4635  0.1765
 8866TIP3    H250794   4.804   2.551  12.436 -0.5447 -2.3166  0.9552
 8867TIP3   OH250795   1.264   3.426   9.769 -0.5344 -0.4302  0.0174
 8867TIP3    H150796   1.244   3.380   9.851  0.3553 -1.0779 -0.1098
 8867TIP3    H250797   1.250   3.360   9.701  0.5029 -0.4417 -0.1948
 8868TIP3   OH250798   0.382   0.230  10.176 -0.4738 -0.4739  0.2644
 8868TIP3    H150799   0.383   0.286  10.098  1.5645  0.1811  0.6995
 8868TIP3    H250800   0.363   0.290  10.248 -3.1230 -1.1979  0.2698
 8869TIP3   OH250801   2.579   5.229  11.686  0.5335 -0.1378 -0.0155
 8869TIP3    H150802   2.582   5.183  11.770 -0.1140 -0.9415 -0.4304
 8869TIP3    H250803   2.536   5.312  11.707 -0.1075 -0.5527  0.3471
 8870TIP3   OH250804   0.062   0.807  11.056 -0.0051  0.1968 -0.2215
 8870TIP3    H150805   0.006   0.813  10.979 -0.4509  0.2531  0.1085
 8870TIP3    H250806   0.063   0.714  11.078 -1.1372  0.3722  0.6326
 8871TIP3   OH250807   5.999   5.107  10.930 -0.3031  1.2537  0.2634
 8871TIP3    H150808   5.960   5.021  10.943 -0.2288  1.5940  3.8109
 8871TIP3    H250809   5.967   5.136  10.845  1.5533 -3.1597 -2.2627
 8872TIP3   OH250810   2.140   2.025  11.703  0.7871  0.4215 -0.3529
 8872TIP3    H150811   2.213   2.058  11.755 -0.3452  0.8139  1.0487
 8872TIP3    H250812   2.072   2.092  11.711  0.2936  0.1239 -1.7241
 8873TIP3   OH250813   2.739   3.202   9.427  0.0830 -0.6620  0.1206
 8873TIP3    H150814   2.683   3.248   9.489 -0.9188  1.3254 -2.0841
 8873TIP3    H250815   2.696   3.118   9.413 -1.7701  0.3568 -0.6402
 8874TIP3   OH250816   2.016   3.783  11.845  0.6963 -0.1902 -0.0683
 8874TIP3    H150817   2.019   3.859  11.786 -0.8696 -0.8111 -1.0436
 8874TIP3    H250818   2.030   3.708  11.788  1.0312 -0.7030  0.6766
 8875TIP3   OH250819   1.491   2.450   9.670 -0.2451  0.6208  0.0868
 8875TIP3    H150820   1.409   2.483   9.631  0.1788  1.8140  0.1594
 8875TIP3    H250821   1.507   2.367   9.626  0.2433  1.9393 -2.4029
 8876TIP3   OH250822   3.980   6.245  11.485 -0.0196  0.1962 -0.1627
 8876TIP3    H150823   3.887   6.267  11.484 -0.6496 -2.1554  0.7302
 8876TIP3    H250824   4.013   6.288  11.564 -0.7660 -0.3795  0.4803
 8877TIP3   OH250825   2.666   3.648  10.162  0.2079 -0.3244 -0.1420
 8877TIP3    H150826   2.730   3.642  10.233  0.9883  1.8701 -0.5746
 8877TIP3    H250827   2.585   3.617  10.200  1.1386 -1.5376  0.9463
 8878TIP3   OH250828   4.432   1.806   9.690  0.0760  0.1710  0.3079
 8878TIP3    H150829   4.422   1.711   9.692  1.8444 -0.0376  1.7048
 8878TIP3    H250830   4.465   1.825   9.601  0.3400 -0.5976  0.2339
 8879TIP3   OH250831   5.665   1.789   9.119 -0.1156  0.0767 -0.3698
 8879TIP3    H150832   5.703   1.797   9.207  2.9437  0.2286 -1.5888
 8879TIP3    H250833   5.651   1.880   9.092  1.1771  0.1573 -0.8626
 8880TIP3   OH250834   5.040   1.167  10.619 -0.5272 -0.1197 -0.4331
 8880TIP3    H150835   5.053   1.154  10.713  0.0720  2.0193 -0.1551
 8880TIP3    H250836   4.946   1.161  10.606 -0.6347 -0.1897  0.3563
 8881TIP3   OH250837   2.924   0.436  12.298 -0.2100  0.3930  0.4325
 8881TIP3    H150838   3.013   0.425  12.331  0.0201  1.7715  0.3402
 8881TIP3    H250839   2.869   0.387  12.359  0.6854 -1.3944 -0.1267
 8882TIP3   OH250840   0.602   1.860  10.595  0.2816  0.9212 -0.1237
 8882TIP3    H150841   0.559   1.840  10.511  0.7648  1.9840 -0.6374
 8882TIP3    H250842   0.605   1.955  10.599  0.6811  0.8803  0.9051
 8883TIP3   OH250843   6.205   4.343   8.968 -0.1678 -0.4035  0.2212
 8883TIP3    H150844   6.252   4.387   9.039 -0.1374 -0.9666  0.5596
 8883TIP3    H250845   6.263   4.352   8.892 -1.3263  2.4050 -0.4157
 8884TIP3   OH250846   4.927   4.059  10.899  0.0262 -0.0806  0.3881
 8884TIP3    H150847   4.836   4.081  10.917 -0.4334  0.3916 -2.1168
 8884TIP3    H250848   4.958   4.129  10.842  1.1345 -1.5888 -0.9471
 8885TIP3   OH250849   4.856   4.712  11.648  0.0953  0.2050 -0.3505
 8885TIP3    H150850   4.829   4.789  11.598  0.6675 -0.7628 -2.2353
 8885TIP3    H250851   4.918   4.745  11.713  2.7133  0.9901 -3.0819
 8886TIP3   OH250852   0.728   4.428  11.195  0.1064  0.1910  0.0999
 8886TIP3    H150853   0.635   4.410  11.183  0.6573 -2.1031 -1.5142
 8886TIP3    H250854   0.748   4.495  11.129 -0.3134  0.3412  0.1235
 8887TIP3   OH250855   3.030   2.909  12.892  0.3419  0.1471  0.4919
 8887TIP3    H150856   3.091   2.940  12.825  0.2139  0.6662  0.6171
 8887TIP3    H250857   2.946   2.904  12.848  0.6541 -1.6361  0.0052
 8888TIP3   OH250858   2.928   2.054  10.943 -0.1466 -0.4034 -0.6339
 8888TIP3    H150859   2.857   1.998  10.973  0.6695 -2.3959 -2.1844
 8888TIP3    H250860   2.934   2.038  10.849  0.8259  1.5386 -0.9691
 8889TIP3   OH250861   3.775   2.503  10.635  0.6204  0.0927  0.3305
 8889TIP3    H150862   3.800   2.569  10.699  0.0522  1.2985 -0.6433
 8889TIP3    H250863   3.680   2.497  10.643  0.5926 -0.0602 -0.1048
 8890TIP3   OH250864   0.421   2.541   9.424  0.5591  0.1866 -0.1196
 8890TIP3    H150865   0.380   2.466   9.467  0.9980  0.1344  0.2234
 8890TIP3    H250866   0.348   2.595   9.394  0.2420 -0.4234 -0.4564
 8891TIP3   OH250867   6.350   4.297  10.674  0.1947  0.7310 -0.3362
 8891TIP3    H150868   6.391   4.254  10.599  0.6785  1.7496 -0.6685
 8891TIP3    H250869   6.297   4.367  10.635  1.0779  1.7854  0.3053
 8892TIP3   OH250870   2.608   3.732   9.006 -0.7265  0.2123  0.0229
 8892TIP3    H150871   2.636   3.759   8.919 -0.3931  1.1674  0.4137
 8892TIP3    H250872   2.532   3.788   9.025 -0.5335  0.3113  0.5170
 8893TIP3   OH250873   5.236   0.331  11.916 -0.3573  0.1461 -0.0418
 8893TIP3    H150874   5.292   0.345  11.992 -0.5710  2.3402 -0.2170
 8893TIP3    H250875   5.176   0.406  11.916  0.0741  0.6046 -2.7399
 8894TIP3   OH250876   3.875   2.955  12.734 -0.4361 -0.1704 -0.1358
 8894TIP3    H150877   3.807   3.011  12.771  0.3974  0.5820  0.2964
 8894TIP3    H250878   3.952   3.011  12.729  1.3629 -2.0534  3.2693
 8895TIP3   OH250879   0.420   2.366  10.651  0.5730 -0.3250  0.1618
 8895TIP3    H150880   0.427   2.324  10.737  1.2643 -1.9283 -0.6333
 8895TIP3    H250881   0.327   2.388  10.642  0.5490  0.1564  1.4327
 8896TIP3   OH250882   3.664   1.970  10.696 -0.3594 -0.5682  0.3334
 8896TIP3    H150883   3.582   1.922  10.707 -0.4737 -0.8015 -1.2039
 8896TIP3    H250884   3.732   1.903  10.699 -0.4734 -0.7996 -1.2048
 8897TIP3   OH250885   1.006   0.444   9.579 -0.4768  0.2408  0.0698
 8897TIP3    H150886   1.020   0.400   9.495  1.3301 -0.5818  0.7456
 8897TIP3    H250887   1.089   0.434   9.626 -1.6136  0.1271  2.2099
 8898TIP3   OH250888   4.386   2.526  12.061  0.4263  0.3208  0.3973
 8898TIP3    H150889   4.451   2.568  12.117  0.6705 -1.0045  1.1646
 8898TIP3    H250890   4.332   2.474  12.121 -0.1689 -0.0564 -0.4384
 8899TIP3   OH250891   3.225   4.526   9.833  0.0699  0.3456 -0.0300
 8899TIP3    H150892   3.280   4.459   9.793 -0.8300 -0.1494 -0.4661
 8899TIP3    H250893   3.203   4.585   9.761  1.0361  1.2709  0.3906
 8900TIP3   OH250894   2.636   4.476  10.156  0.3084 -0.4034  0.1043
 8900TIP3    H150895   2.596   4.413  10.214 -0.4969 -0.9387 -1.0070
 8900TIP3    H250896   2.640   4.433  10.070  0.5372  0.7222 -0.4862
 8901TIP3   OH250897   2.406   4.765  11.854  0.1846  0.7620  0.2656
 8901TIP3    H150898   2.423   4.815  11.774  0.4489  1.8490  0.9835
 8901TIP3    H250899   2.312   4.750  11.852  0.2466  0.3958 -0.4607
 8902TIP3   OH250900   3.478   3.764  10.941 -0.6050 -0.5185  0.2018
 8902TIP3    H150901   3.411   3.755  10.873  0.5909  0.2378 -1.1352
 8902TIP3    H250902   3.470   3.684  10.993 -1.0655 -1.4917 -1.2992
 8903TIP3   OH250903   2.191   6.652  11.635 -0.0505  0.3069  0.2654
 8903TIP3    H150904   2.235   6.735  11.651 -0.3230  0.3005  1.0897
 8903TIP3    H250905   2.129   6.671  11.564  1.3072  0.2899 -0.9802
 8904TIP3   OH250906   3.320   5.845  11.182 -0.1471  0.1146 -0.4272
 8904TIP3    H150907   3.314   5.853  11.278  0.5040 -0.1099 -0.3591
 8904TIP3    H250908   3.271   5.920  11.149 -1.7015 -0.6427  0.0430
 8905TIP3   OH250909   5.122   3.959   9.585  0.2716  0.4581  0.0002
 8905TIP3    H150910   5.173   4.038   9.568 -0.1968  0.9234  0.7621
 8905TIP3    H250911   5.110   3.957   9.679 -1.0925  0.3327 -0.1646
 8906TIP3   OH250912   2.229   3.801   9.608 -0.0704 -0.2369  0.8477
 8906TIP3    H150913   2.245   3.724   9.553  0.0688  0.4298 -0.0582
 8906TIP3    H250914   2.134   3.807   9.613 -0.0818 -0.2038  0.5599
 8907TIP3   OH250915   1.316   3.522  10.560  0.4309 -0.2975  0.3387
 8907TIP3    H150916   1.379   3.579  10.604 -0.6563  0.2671  1.1795
 8907TIP3    H250917   1.248   3.505  10.625 -0.6990 -0.2537 -0.7983
 8908TIP3   OH250918   4.200   1.375  10.354 -0.1191 -0.2336  0.0585
 8908TIP3    H150919   4.267   1.320  10.395 -0.9594 -0.1411  1.6255
 8908TIP3    H250920   4.198   1.454  10.407 -0.6203  0.2908 -0.7167
 8909TIP3   OH250921   2.948   2.816  10.226  0.1360 -0.0782  0.0067
 8909TIP3    H150922   2.903   2.851  10.303  1.1028  1.0879  0.0614
 8909TIP3    H250923   3.010   2.753  10.261 -0.8768 -1.1216 -0.0103
 8910TIP3   OH250924   4.217   4.064  10.558  0.3696  0.0907 -0.1484
 8910TIP3    H150925   4.224   4.158  10.571 -0.7825  0.2154 -0.2968
 8910TIP3    H250926   4.307   4.034  10.544  0.9813  0.8710  1.8069
 8911TIP3   OH250927   3.419   1.306  12.604  0.6510  0.1888 -0.3879
 8911TIP3    H150928   3.363   1.229  12.617  0.5331  0.5122  1.2321
 8911TIP3    H250929   3.495   1.272  12.556  0.5900 -0.9525  0.2866
 8912TIP3   OH250930   4.503   4.723  10.226 -0.1734  0.2160  0.0292
 8912TIP3    H150931   4.419   4.701  10.186  0.4532 -0.4410 -0.9596
 8912TIP3    H250932   4.553   4.765  10.156 -0.1443  1.8418  0.9730
 8913TIP3   OH250933   1.317   0.709   9.891  0.1841 -0.1957 -0.1435
 8913TIP3    H150934   1.227   0.676   9.882 -0.1604  0.7699 -0.3472
 8913TIP3    H250935   1.370   0.631   9.904 -0.6455 -0.8082 -0.3719
 8914TIP3   OH250936   6.488   1.740  10.383 -0.0068 -0.5493 -0.2398
 8914TIP3    H150937   6.481   1.689  10.464  1.2324 -1.8068 -0.8807
 8914TIP3    H250938   6.559   1.802  10.399 -0.7058  0.1789  0.1120
 8915TIP3   OH250939   3.571   2.837  10.585 -0.2661  0.0498 -0.0519
 8915TIP3    H150940   3.610   2.774  10.647  2.0587  1.4284  0.0068
 8915TIP3    H250941   3.549   2.913  10.639  0.5524  0.7525 -0.6842
 8916TIP3   OH250942   0.945   5.733  12.021  0.0999  0.1807  0.3719
 8916TIP3    H150943   0.973   5.803  12.080  0.1305  1.3248 -0.9387
 8916TIP3    H250944   0.989   5.654  12.054  1.0108  1.0047  1.1886
 8917TIP3   OH250945   2.935   4.308  11.916  0.5280  0.0278  0.4512
 8917TIP3    H150946   2.948   4.403  11.918  0.4023  0.0935 -0.7760
 8917TIP3    H250947   2.964   4.282  11.829 -2.2079 -0.6107 -0.3783
 8918TIP3   OH250948   1.014   1.827  10.215 -0.3977 -0.2427 -0.0731
 8918TIP3    H150949   1.002   1.922  10.213 -0.9533 -0.3190 -0.7291
 8918TIP3    H250950   1.075   1.812  10.287  0.3786  0.6929 -0.5067
 8919TIP3   OH250951   0.421   0.800  12.366 -0.5659 -0.0506 -0.1452
 8919TIP3    H150952   0.478   0.787  12.442 -1.0415  0.3584  0.2906
 8919TIP3    H250953   0.477   0.784  12.291 -0.0766 -0.4216  0.2943
 8920TIP3   OH250954   5.001   5.554  10.382 -0.1058  0.1013  0.2267
 8920TIP3    H150955   5.011   5.497  10.458  1.1494 -0.3158 -0.2228
 8920TIP3    H250956   5.031   5.500  10.308 -2.5159  0.0248 -0.7921
 8921TIP3   OH250957   0.596   4.576  11.904  0.2695  0.0117 -0.1306
 8921TIP3    H150958   0.567   4.486  11.894  0.6152  0.1138 -2.7587
 8921TIP3    H250959   0.685   4.569  11.939 -0.4860 -0.5120  1.8275
 8922TIP3   OH250960   5.202   4.978  10.809 -0.0887  0.1564 -0.1767
 8922TIP3    H150961   5.181   5.071  10.818  2.2732  0.7003  0.2382
 8922TIP3    H250962   5.181   4.941  10.895 -1.4101  0.1754 -0.4600
 8923TIP3   OH250963   4.056   6.118  11.271  0.6830  0.0249  0.3424
 8923TIP3    H150964   4.026   6.182  11.336 -1.1224  0.1299 -0.5295
 8923TIP3    H250965   4.004   6.039  11.290  1.3493 -0.4920  0.0615
 8924TIP3   OH250966   3.973   4.795  10.889 -0.5717  0.1036  0.1712
 8924TIP3    H150967   3.990   4.797  10.795 -1.3133 -2.3604 -0.0999
 8924TIP3    H250968   3.962   4.702  10.909 -0.6366  0.5769  2.6723
 8925TIP3   OH250969   4.304   6.454  11.902  0.2783  0.0386  0.1617
 8925TIP3    H150970   4.289   6.379  11.960  1.0112 -0.4736 -0.3022
 8925TIP3    H250971   4.395   6.480  11.919 -0.2164  1.3741  0.9407
 8926TIP3   OH250972   4.842   1.426  10.111 -0.4360  0.4434  0.5388
 8926TIP3    H150973   4.887   1.467  10.185  0.5711  0.9007 -0.2940
 8926TIP3    H250974   4.754   1.408  10.143  0.3501 -0.5868  2.2854
 8927TIP3   OH250975   1.069   3.043  11.839  0.1216  0.6810  0.3542
 8927TIP3    H150976   1.047   3.135  11.850 -0.0259  0.8885 -1.3610
 8927TIP3    H250977   1.009   2.997  11.898  0.3412  1.6710  1.3919
 8928TIP3   OH250978   5.826   3.232  10.767 -0.1272 -0.4108  0.7181
 8928TIP3    H150979   5.910   3.276  10.752 -0.6409  0.4191  0.1898
 8928TIP3    H250980   5.825   3.212  10.861  0.0455  0.8793  1.0067
 8929TIP3   OH250981   5.258   4.348  11.603 -0.8487  0.1510  0.0465
 8929TIP3    H150982   5.325   4.280  11.612  0.2411  0.8310 -2.2421
 8929TIP3    H250983   5.242   4.377  11.693  1.6436 -0.3245  0.7185
 8930TIP3   OH250984   3.084   2.469  10.172 -0.2261 -0.2967  0.1032
 8930TIP3    H150985   3.125   2.541  10.220  1.6519 -0.6879 -0.8650
 8930TIP3    H250986   2.994   2.468  10.205 -0.1658  2.1205  0.5457
 8931TIP3   OH250987   0.573   4.622  12.296  0.4959  0.2916  0.2697
 8931TIP3    H150988   0.594   4.663  12.212  0.8887 -1.4055 -0.5258
 8931TIP3    H250989   0.612   4.535  12.290 -0.8569 -0.4625  1.5711
 8932TIP3   OH250990   5.113   2.858  11.560  0.3690  0.4098 -0.0083
 8932TIP3    H150991   5.033   2.815  11.531 -1.3908  1.6618  2.6724
 8932TIP3    H250992   5.139   2.810  11.639  1.1766  1.1752  0.2076
 8933TIP3   OH250993   6.241   2.164  11.120 -0.3270  0.3042 -0.0762
 8933TIP3    H150994   6.329   2.179  11.086 -0.2815 -0.3416 -0.2564
 8933TIP3    H250995   6.251   2.166  11.215 -0.4030  1.8169 -0.0771
 8934TIP3   OH250996   5.442   0.160  10.284  0.4604 -0.0056 -0.8754
 8934TIP3    H150997   5.350   0.186  10.292  0.4107 -0.4965  0.3173
 8934TIP3    H250998   5.479   0.175  10.371  0.7571 -2.5624 -0.4945
 8935TIP3   OH250999   2.204   3.935  11.997  0.1916 -0.0683 -0.2604
 8935TIP3    H151000   2.137   3.984  12.045 -0.0209 -0.2920 -0.3293
 8935TIP3    H251001   2.155   3.872  11.945  0.4784 -0.4983 -0.0111
 8936TIP3   OH251002   2.158   5.051  11.581  0.8005  0.0462  0.5792
 8936TIP3    H151003   2.064   5.056  11.560  0.4728  0.4010  2.0462
 8936TIP3    H251004   2.197   5.122  11.530  0.5110 -0.9808 -1.1521
 8937TIP3   OH251005   2.499   2.036  12.187 -0.1558 -0.1492  0.1056
 8937TIP3    H151006   2.464   2.021  12.275  0.4183 -0.4146  0.2940
 8937TIP3    H251007   2.533   1.951  12.160  0.1301  0.0480 -0.1626
 8938TIP3   OH251008   0.894   3.611   9.220  0.3666 -0.0364 -0.2828
 8938TIP3    H151009   0.931   3.662   9.292 -0.3775 -0.2479  0.2614
 8938TIP3    H251010   0.800   3.608   9.239  0.2206 -0.4283 -1.0527
 8939TIP3   OH251011   6.236   0.790  11.121  0.4016  0.6222 -0.3283
 8939TIP3    H151012   6.152   0.832  11.105  0.9127  1.2952 -1.3383
 8939TIP3    H251013   6.300   0.847  11.078  1.2221 -0.7153 -0.9270
 8940TIP3   OH251014   2.921   0.854  11.084 -0.0005 -0.5625  0.3345
 8940TIP3    H151015   2.947   0.936  11.040  0.3468  0.3153  2.0837
 8940TIP3    H251016   2.996   0.796  11.070  0.9094  0.3354  1.2991
 8941TIP3   OH251017   1.126   1.947   9.349 -0.3158  0.1255 -0.1285
 8941TIP3    H151018   1.216   1.943   9.316 -0.4308 -1.0764 -0.3545
 8941TIP3    H251019   1.109   2.040   9.363  1.4956  0.2845  1.3823
 8942TIP3   OH251020   2.404   3.927  11.369  0.2547  0.1934  0.1688
 8942TIP3    H151021   2.447   3.978  11.301  1.2555 -0.8699 -0.0169
 8942TIP3    H251022   2.385   3.991  11.438  1.5090  0.8164 -0.0341
 8943TIP3   OH251023   0.545   0.563  11.750 -0.5539  0.0657 -0.3823
 8943TIP3    H151024   0.467   0.508  11.740  0.7501 -1.6642 -1.6344
 8943TIP3    H251025   0.540   0.626  11.677 -2.1395  1.8653  1.1558
 8944TIP3   OH251026   3.627   2.023  11.975  0.4912 -0.3513 -0.1981
 8944TIP3    H151027   3.700   2.073  11.937 -0.0474 -0.0327 -0.8284
 8944TIP3    H251028   3.669   1.950  12.021  1.2181 -0.0455 -0.3691
 8945TIP3   OH251029   2.541   5.672  10.913 -1.0183 -0.3592  0.4189
 8945TIP3    H151030   2.593   5.725  10.852  0.2903 -1.4458  0.5598
 8945TIP3    H251031   2.579   5.690  10.999 -2.4538  0.6757  0.8767
 8946TIP3   OH251032   2.934   4.438  12.297  0.0284 -0.0570  0.1393
 8946TIP3    H151033   2.932   4.406  12.206  1.5156  0.6685 -0.1769
 8946TIP3    H251034   2.952   4.361  12.350  0.1129 -0.3235 -0.2743
 8947TIP3   OH251035   6.722   1.161  10.665 -0.4789  0.0581 -0.8564
 8947TIP3    H151036   6.745   1.176  10.757 -1.5178 -0.4864 -0.4916
 8947TIP3    H251037   6.769   1.082  10.641 -1.2017 -0.5252 -0.3941
 8948TIP3   OH251038   0.214   1.904  10.373  0.4116  0.2663  0.1178
 8948TIP3    H151039   0.230   1.959  10.450 -0.7382  2.5651 -1.1506
 8948TIP3    H251040   0.119   1.895  10.370  0.4095  0.5354 -1.2011
 8949TIP3   OH251041   3.432   3.516  11.918  0.3891  0.0936 -0.1906
 8949TIP3    H151042   3.453   3.586  11.857  0.0122  1.3675  1.0655
 8949TIP3    H251043   3.345   3.539  11.952  0.1134 -1.1701  0.0128
 8950TIP3   OH251044   3.341   6.420  11.886  0.1944 -0.8147 -0.2363
 8950TIP3    H151045   3.340   6.513  11.908  2.6222 -0.5949 -0.7579
 8950TIP3    H251046   3.388   6.379  11.959 -0.5130 -1.6120 -0.2082
 8951TIP3   OH251047   4.181   2.314  11.606 -0.1350 -0.5650 -0.0102
 8951TIP3    H151048   4.174   2.391  11.662  0.8863 -0.1773 -0.3994
 8951TIP3    H251049   4.118   2.329  11.536  1.8802  1.2159 -1.5649
 8952TIP3   OH251050   2.504   0.167  11.144  0.1649  0.2128  0.5396
 8952TIP3    H151051   2.521   0.234  11.210 -2.1653 -0.8901  2.3909
 8952TIP3    H251052   2.416   0.135  11.164 -0.1554 -1.0494 -2.3834
 8953TIP3   OH251053   6.653   0.433  10.324 -0.6074 -0.2138  0.5774
 8953TIP3    H151054   6.648   0.338  10.331 -0.3033 -0.4023 -1.2648
 8953TIP3    H251055   6.745   0.451  10.306 -0.3926  0.5724  2.2977
 8954TIP3   OH251056   0.476   3.869   9.304  0.1243  0.5473 -0.1584
 8954TIP3    H151057   0.474   3.958   9.340 -1.4778  0.1455  0.8069
 8954TIP3    H251058   0.479   3.883   9.209  0.9715  1.6047 -0.0076
 8955TIP3   OH251059   6.192   4.172   9.879 -0.0579  0.8621  0.0543
 8955TIP3    H151060   6.233   4.105   9.825 -1.3500  0.6402 -0.7051
 8955TIP3    H251061   6.247   4.249   9.868  0.2364  0.5410 -0.8346
 8956TIP3   OH251062   2.015   2.314   9.349 -0.8546  0.3669 -0.0680
 8956TIP3    H151063   2.077   2.370   9.397 -2.4015  1.7783  0.3862
 8956TIP3    H251064   2.071   2.250   9.304  1.1832  2.9442 -1.5726
 8957TIP3   OH251065   5.330   3.548  11.454  0.0676  0.4050  0.3197
 8957TIP3    H151066   5.337   3.542  11.550 -0.4053 -0.2870  0.3169
 8957TIP3    H251067   5.285   3.468  11.428  0.6586  0.3427 -0.5376
 8958TIP3   OH251068   5.464   4.480  11.098  0.0847 -0.0052  0.6521
 8958TIP3    H151069   5.369   4.467  11.099 -0.1789  1.2175  4.2903
 8958TIP3    H251070   5.494   4.452  11.184  2.6412  1.9738  0.5355
 8959TIP3   OH251071   6.481   5.095   9.786 -0.0246 -0.3891  0.2414
 8959TIP3    H151072   6.465   5.080   9.879 -0.8927  3.5031  0.8944
 8959TIP3    H251073   6.406   5.056   9.742 -0.1796 -1.2917  1.2504
 8960TIP3   OH251074   3.323   6.421  10.161  0.1950 -0.3409  0.3809
 8960TIP3    H151075   3.343   6.514  10.149 -2.1620  0.1774  0.0726
 8960TIP3    H251076   3.358   6.379  10.082  0.5271  0.3959  0.1235
 8961TIP3   OH251077   1.031   3.216   9.434  0.1327  0.1863  0.4200
 8961TIP3    H151078   1.009   3.305   9.408  2.2138  0.8688  0.8848
 8961TIP3    H251079   0.971   3.196   9.506  1.5283  2.3344  2.2919
 8962TIP3   OH251080   1.043   4.696  10.600 -0.0109 -0.0848 -0.3831
 8962TIP3    H151081   1.018   4.679  10.691  0.3076  3.1364  0.4108
 8962TIP3    H251082   1.098   4.621  10.576  1.6055 -0.0943  2.7950
 8963TIP3   OH251083   0.440   4.951  12.252 -0.1931  0.8965 -0.1950
 8963TIP3    H151084   0.478   4.894  12.186  1.7025  0.0048  1.5439
 8963TIP3    H251085   0.347   4.927  12.253  0.1082 -0.4504 -1.1732
 8964TIP3   OH251086   5.770   5.247  11.952  0.1375 -0.8757 -0.0003
 8964TIP3    H151087   5.834   5.276  11.887 -1.6149 -0.2230 -1.5560
 8964TIP3    H251088   5.719   5.326  11.971 -1.2901 -1.7250 -0.1661
 8965TIP3   OH251089   6.277   4.734   9.369 -0.0026 -0.3144  0.2530
 8965TIP3    H151090   6.225   4.715   9.447 -0.1290  0.6349  0.4147
 8965TIP3    H251091   6.332   4.809   9.394 -1.7472  1.5804 -1.2593
 8966TIP3   OH251092   2.357   1.713   9.310 -0.0146 -0.2698 -0.2424
 8966TIP3    H151093   2.367   1.805   9.336  0.0289 -0.0129 -1.1349
 8966TIP3    H251094   2.444   1.675   9.325 -0.7376 -0.9234  2.8734
 8967TIP3   OH251095   0.002   2.744   9.662  0.3185 -0.1862 -0.1763
 8967TIP3    H151096  -0.048   2.725   9.582 -0.5160  0.0364  0.2710
 8967TIP3    H251097   0.084   2.697   9.651  0.8225  0.9672 -1.7963
 8968TIP3   OH251098   1.393   6.505  10.055  0.2416  0.1579  0.3280
 8968TIP3    H151099   1.313   6.533  10.010  0.6084  1.5127  0.4803
 8968TIP3    H251100   1.446   6.465   9.986  0.4389  1.4500 -0.3036
 8969TIP3   OH251101   3.240   4.165   9.770 -0.4368  0.2675 -0.2021
 8969TIP3    H151102   3.254   4.098   9.703  2.3023  1.7826 -1.2831
 8969TIP3    H251103   3.179   4.227   9.729  0.6393  0.7930 -1.0765
 8970TIP3   OH251104   6.505   4.632  10.941 -0.0340  0.0559 -0.0036
 8970TIP3    H151105   6.420   4.620  10.982 -0.8637 -0.4195 -1.7654
 8970TIP3    H251106   6.486   4.658  10.851  1.7053  3.1109  0.3465
 8971TIP3   OH251107   0.568   5.723  11.330  0.2492 -0.3658  0.3206
 8971TIP3    H151108   0.546   5.751  11.241 -1.4904  0.9062  1.0836
 8971TIP3    H251109   0.536   5.633  11.335  1.3959 -0.8434 -0.6718
 8972TIP3   OH251110   5.309   0.824  10.668 -0.9335 -0.0976  0.0790
 8972TIP3    H151111   5.262   0.870  10.600 -0.0238  1.7992  0.6747
 8972TIP3    H251112   5.342   0.892  10.726  1.9076 -1.3244  0.0858
 8973TIP3   OH251113   3.790   2.821   9.509 -0.3343  0.3541  0.2264
 8973TIP3    H151114   3.843   2.756   9.555 -1.6642 -2.0058 -1.3467
 8973TIP3    H251115   3.753   2.773   9.434 -2.4268  2.5962 -0.3133
 8974TIP3   OH251116   5.483   4.225   9.273  0.1191  0.1157  0.2784
 8974TIP3    H151117   5.543   4.290   9.236 -0.4818  0.8393  0.5366
 8974TIP3    H251118   5.397   4.268   9.271 -0.1286 -0.2979  1.3492
 8975TIP3   OH251119   2.130   3.164  10.860  0.0602 -0.1101 -0.0822
 8975TIP3    H151120   2.051   3.218  10.858  0.0187 -0.1741 -0.1676
 8975TIP3    H251121   2.142   3.144  10.953  0.0472  0.0042 -0.0552
 8976TIP3   OH251122   3.131   6.155   9.515 -0.1137  0.8264  0.4240
 8976TIP3    H151123   3.222   6.176   9.540  0.5349 -0.7859 -0.4291
 8976TIP3    H251124   3.091   6.125   9.597  0.7832 -0.4949  0.4149
 8977TIP3   OH251125   4.543   3.380  10.265  0.4603 -0.1760  0.6220
 8977TIP3    H151126   4.636   3.375  10.244  0.2652  0.8773 -0.5876
 8977TIP3    H251127   4.506   3.439  10.199 -0.5843  1.6317  2.7117
 8978TIP3   OH251128   0.855   3.076  11.109  0.0453  0.3525 -0.1041
 8978TIP3    H151129   0.913   3.048  11.180  0.6095  2.9592  0.5651
 8978TIP3    H251130   0.769   3.084  11.150  0.2375  1.1922  0.1726
 8979TIP3   OH251131   4.727   2.122  10.061  0.2651  0.4405 -0.3209
 8979TIP3    H151132   4.678   2.203  10.047  1.7306  1.1484 -1.7683
 8979TIP3    H251133   4.671   2.054  10.024 -0.2625  1.0331 -0.6411
 8980TIP3   OH251134   0.651   0.812  10.597 -0.4383 -0.0520  0.4180
 8980TIP3    H151135   0.587   0.770  10.654 -1.9964  0.4223 -0.9216
 8980TIP3    H251136   0.610   0.894  10.570  1.4925  1.1607  0.9409
 8981TIP3   OH251137   1.010   2.199  12.727 -0.2766 -0.5827  0.5687
 8981TIP3    H151138   0.941   2.194  12.793 -0.9268  0.7154  0.0262
 8981TIP3    H251139   1.036   2.108  12.712 -1.7018 -1.0719  0.9478
 8982TIP3   OH251140   0.675   1.962  11.384  0.3981 -0.2621  0.3561
 8982TIP3    H151141   0.754   1.971  11.331  0.4754 -0.5863  0.4130
 8982TIP3    H251142   0.605   1.997  11.330  0.6279  0.3121  0.4244
 8983TIP3   OH251143   5.611   2.316  10.331 -0.6564  0.0149 -0.0977
 8983TIP3    H151144   5.655   2.377  10.272 -1.6045  0.6062 -0.2095
 8983TIP3    H251145   5.582   2.245  10.273  0.2120 -0.4276 -0.0089
 8984TIP3   OH251146   6.742   1.332  11.303 -0.6357 -0.0815  0.0473
 8984TIP3    H151147   6.836   1.349  11.298 -0.5789 -0.6749 -1.6579
 8984TIP3    H251148   6.735   1.256  11.362  0.2996 -1.9376 -2.0628
 8985TIP3   OH251149   4.093   0.599  10.214 -0.1742 -0.0603  0.3662
 8985TIP3    H151150   4.045   0.649  10.281 -1.9074  0.3752 -1.1219
 8985TIP3    H251151   4.025   0.556  10.163  1.2037 -2.5744  0.4660
 8986TIP3   OH251152   2.314   0.188   9.304 -0.1195  0.1514  0.3826
 8986TIP3    H151153   2.335   0.270   9.260 -1.5238  0.3416  0.0109
 8986TIP3    H251154   2.392   0.133   9.292  0.9486  1.5060  0.8820
 8987TIP3   OH251155   5.493   2.256  11.569 -0.7189  0.0007 -0.8630
 8987TIP3    H151156   5.539   2.340  11.570  0.9989 -0.8899  0.3153
 8987TIP3    H251157   5.562   2.190  11.577 -1.7056 -1.7582 -4.4322
 8988TIP3   OH251158   4.333   6.050  11.206 -0.3619  0.6061  0.2365
 8988TIP3    H151159   4.327   6.130  11.259 -1.7399  0.3711  0.4879
 8988TIP3    H251160   4.243   6.037  11.174  0.1674 -0.0067 -1.0523
 8989TIP3   OH251161   6.319   6.381  11.804 -0.1397  0.6106 -0.4725
 8989TIP3    H151162   6.226   6.388  11.783 -0.0818  1.3984 -0.5119
 8989TIP3    H251163   6.329   6.294  11.841 -1.1035  0.9162  0.5593
 8990TIP3   OH251164   2.967   3.152  12.591 -0.1377 -0.6184  0.3116
 8990TIP3    H151165   2.896   3.209  12.562  0.4720 -0.0901 -0.1797
 8990TIP3    H251166   2.955   3.144  12.685  0.9517  2.0608  0.7735
 8991TIP3   OH251167   5.339   6.711  12.560 -0.5165 -0.7044  0.0047
 8991TIP3    H151168   5.274   6.772  12.596  0.9491  0.5449  0.6730
 8991TIP3    H251169   5.375   6.757  12.484  0.1851 -0.9814  0.1600
 8992TIP3   OH251170   6.049   4.194   9.114 -0.0340 -0.2258  0.0397
 8992TIP3    H151171   6.053   4.258   9.185  1.8014 -0.5600  0.2748
 8992TIP3    H251172   6.091   4.238   9.040 -0.6836 -0.3933 -0.4354
 8993TIP3   OH251173   5.488   3.228  10.263  0.9091  0.0094  0.6136
 8993TIP3    H151174   5.490   3.134  10.281  1.8731  0.1763  1.5138
 8993TIP3    H251175   5.576   3.259  10.287  1.0955  0.9062 -1.0748
 8994TIP3   OH251176   4.686   6.216   9.618  0.3261 -0.4807 -0.0543
 8994TIP3    H151177   4.601   6.183   9.591  0.2801 -0.7088  0.3663
 8994TIP3    H251178   4.673   6.310   9.631  0.3261 -0.3837 -0.7269
 8995TIP3   OH251179   0.708   6.062  10.491  0.0897 -0.2636  0.3172
 8995TIP3    H151180   0.798   6.094  10.485 -0.3480  1.0694  0.4515
 8995TIP3    H251181   0.654   6.140  10.476 -1.0440 -1.0309  0.2777
 8996TIP3   OH251182   1.635   6.176   9.650  0.3043 -0.3891  0.5064
 8996TIP3    H151183   1.722   6.188   9.613  0.0192 -0.9519 -0.3847
 8996TIP3    H251184   1.643   6.207   9.740  1.5291 -0.8228  0.5681
 8997TIP3   OH251185   2.022   2.183  12.054 -0.1926 -0.0992 -0.1714
 8997TIP3    H151186   2.013   2.088  12.055  2.4008 -0.4210  0.6583
 8997TIP3    H251187   1.982   2.210  11.971  0.7955 -2.1655 -1.4021
 8998TIP3   OH251188   5.026   5.795  11.119  0.3288 -0.6296  0.4133
 8998TIP3    H151189   5.090   5.726  11.136  0.4218 -0.4247  0.9368
 8998TIP3    H251190   5.053   5.867  11.177  0.8039  0.2126 -0.8289
 8999TIP3   OH251191   2.756   4.808  10.933  0.5078  0.0024 -0.1852
 8999TIP3    H151192   2.722   4.846  10.852 -0.0391  1.7113  0.8032
 8999TIP3    H251193   2.716   4.721  10.937 -3.0636  1.5169  0.3858
 9000TIP3   OH251194   6.175   5.577  11.704  0.7302  0.6496 -0.4206
 9000TIP3    H151195   6.194   5.485  11.683  0.0697  0.8498 -2.0785
 9000TIP3    H251196   6.088   5.575  11.744  0.9988  0.4878  0.1558
 9001TIP3   OH251197   0.397   4.662   9.415 -0.0141 -0.6563 -0.5005
 9001TIP3    H151198   0.384   4.718   9.492 -1.8622  1.0729 -1.9512
 9001TIP3    H251199   0.312   4.620   9.402  0.8340 -2.4428 -0.5295
 9002TIP3   OH251200   1.499   4.986  11.942 -0.7747  0.2791  0.0194
 9002TIP3    H151201   1.528   5.065  11.987 -0.2468  0.5360 -0.7462
 9002TIP3    H251202   1.500   5.010  11.849 -0.8395 -0.5484 -0.2024
 9003TIP3   OH251203   3.592   4.434  10.019 -0.0512 -0.1914  0.3852
 9003TIP3    H151204   3.687   4.427  10.030  0.2360 -3.5025 -2.5060
 9003TIP3    H251205   3.577   4.527  10.003  2.6231  0.4923  1.2667
 9004TIP3   OH251206   2.118   4.193   9.324 -0.3053 -0.1546 -0.5270
 9004TIP3    H151207   2.087   4.164   9.238 -0.5972 -0.6116 -0.2718
 9004TIP3    H251208   2.045   4.241   9.362 -0.6726 -1.0987  0.0087
 9005TIP3   OH251209   6.680   3.373  10.729 -0.1579  0.1049  0.0127
 9005TIP3    H151210   6.644   3.293  10.690  0.6711 -0.1031 -0.3343
 9005TIP3    H251211   6.648   3.444  10.673 -0.8354  0.0130  0.2790
 9006TIP3   OH251212   6.729   6.035  10.345  0.2204 -0.3169 -0.4955
 9006TIP3    H151213   6.664   5.969  10.321  0.3455 -0.5962 -0.0718
 9006TIP3    H251214   6.780   6.049  10.265 -0.0292 -0.4752 -0.6828
 9007TIP3   OH251215   5.576   6.353  11.173 -0.3555  0.1413  0.2506
 9007TIP3    H151216   5.630   6.278  11.149  0.9280  0.6016  1.5021
 9007TIP3    H251217   5.632   6.404  11.232 -0.7530  2.6741 -1.4000
 9008TIP3   OH251218   5.017   4.426   9.232 -0.0150  0.2557 -0.2029
 9008TIP3    H151219   4.979   4.378   9.305 -0.0209 -1.0723 -1.0373
 9008TIP3    H251220   4.957   4.499   9.217 -0.0316  0.5211  1.0745
 9009TIP3   OH251221   4.156   1.519   9.501  0.1913  0.1299 -0.2237
 9009TIP3    H151222   4.242   1.528   9.460 -0.0421  0.5083 -0.6276
 9009TIP3    H251223   4.160   1.577   9.577  0.7281 -0.7965  0.4796
 9010TIP3   OH251224   3.822   5.549   9.758 -0.0905  0.0698  0.2367
 9010TIP3    H151225   3.869   5.594   9.688 -0.2200  3.1651  1.9340
 9010TIP3    H251226   3.743   5.515   9.716  1.4390 -1.2108 -1.7364
 9011TIP3   OH251227   3.463   4.068  11.330  0.5034 -0.0219 -0.1713
 9011TIP3    H151228   3.478   4.124  11.254 -0.0803 -0.3635 -0.5460
 9011TIP3    H251229   3.550   4.039  11.357  0.7243  0.2266 -0.6167
 9012TIP3   OH251230   0.294   2.823  10.929 -0.1738  0.1380  0.1607
 9012TIP3    H151231   0.268   2.811  11.020  0.1203 -0.6350  0.1515
 9012TIP3    H251232   0.387   2.801  10.928 -0.1445  0.2799 -0.2966
 9013TIP3   OH251233   0.212   1.573  10.438  0.3301 -0.3594 -0.2319
 9013TIP3    H151234   0.160   1.493  10.439 -0.8382  0.3645  1.2871
 9013TIP3    H251235   0.219   1.598  10.531 -1.5176  2.6472 -0.7561
 9014TIP3   OH251236   4.906   1.772   9.127 -0.4553 -0.4509 -0.5834
 9014TIP3    H151237   4.953   1.689   9.137  0.0258 -0.0684  0.4940
 9014TIP3    H251238   4.952   1.817   9.056  1.7031  0.4639  1.2777
 9015TIP3   OH251239   5.365   5.114   9.527 -0.4348 -0.3209 -0.1232
 9015TIP3    H151240   5.299   5.149   9.587 -1.1580 -0.2898 -0.9239
 9015TIP3    H251241   5.324   5.037   9.489  0.8289 -1.6022  1.0001
 9016TIP3   OH251242   0.071   6.116  11.198  0.4757  0.1141 -0.0273
 9016TIP3    H151243   0.148   6.061  11.181 -0.6266 -2.4091  2.3227
 9016TIP3    H251244   0.089   6.157  11.283 -0.4746 -0.1015  0.3010
 9017TIP3   OH251245   4.096   5.347  10.960  0.0873 -1.0359 -0.0239
 9017TIP3    H151246   4.071   5.438  10.974 -1.0396 -1.0204 -1.7694
 9017TIP3    H251247   4.040   5.297  11.019  0.3022 -0.6346  0.5239
 9018TIP3   OH251248   2.297   2.381   9.285  0.1724  0.1794 -0.3340
 9018TIP3    H151249   2.392   2.372   9.280  0.1513  0.5047 -3.4042
 9018TIP3    H251250   2.264   2.291   9.284  0.4181  0.0882 -0.2473
 9019TIP3   OH251251   5.825   2.338  11.021  0.3192  0.3213 -0.1721
 9019TIP3    H151252   5.815   2.286  10.942  1.5929 -0.1923 -0.0172
 9019TIP3    H251253   5.837   2.274  11.091  0.5131  0.7945  0.2367
 9020TIP3   OH251254   4.715   1.751  11.543 -0.2662  0.2764 -0.1309
 9020TIP3    H151255   4.678   1.791  11.622  0.3926  0.4835  0.0794
 9020TIP3    H251256   4.756   1.824  11.496  1.7713 -0.2486  0.7154
 9021TIP3   OH251257   3.942   4.461  10.493 -0.5275  0.2898  0.2763
 9021TIP3    H151258   3.972   4.548  10.468  1.4639 -0.3393  0.3120
 9021TIP3    H251259   3.958   4.407  10.416 -0.8334 -0.2416  0.5848
 9022TIP3   OH251260   1.664   0.211  10.885 -0.2178 -0.1096  0.9683
 9022TIP3    H151261   1.579   0.229  10.845 -0.0020 -0.6576  0.2362
 9022TIP3    H251262   1.717   0.288  10.865 -0.2893 -0.1301  0.6998
 9023TIP3   OH251263   2.170   2.639   9.327  0.0460  0.4843  0.0674
 9023TIP3    H151264   2.219   2.667   9.250 -0.7069 -0.7381 -0.8833
 9023TIP3    H251265   2.176   2.544   9.327 -4.8547 -0.1319 -1.9788
 9024TIP3   OH251266   2.431   2.651  10.919  0.0384  0.4925 -0.3745
 9024TIP3    H151267   2.507   2.707  10.937  0.0516 -0.1401  1.9049
 9024TIP3    H251268   2.419   2.656  10.824  1.7262  2.1406 -0.5633
 9025TIP3   OH251269   3.731   5.487  10.330  0.5120 -0.0572 -0.1269
 9025TIP3    H151270   3.811   5.539  10.335  0.8248 -0.4475 -0.9317
 9025TIP3    H251271   3.665   5.548  10.297  0.8705 -0.1428 -1.0391
 9026TIP3   OH251272   3.038   4.320   9.999  0.4367 -0.0449 -0.3297
 9026TIP3    H151273   3.070   4.347   9.913 -1.9246 -2.0420 -1.9950
 9026TIP3    H251274   3.086   4.239  10.018  2.2061  1.2698  1.1567
 9027TIP3   OH251275   5.575   0.848  11.503  0.2291 -0.6036  0.1371
 9027TIP3    H151276   5.547   0.936  11.479 -0.7294 -1.0008 -0.2278
 9027TIP3    H251277   5.662   0.860  11.542 -0.0008  0.5223  0.3129
 9028TIP3   OH251278   1.922   6.052  10.017 -0.1534 -0.2743  0.0548
 9028TIP3    H151279   1.963   6.010   9.941  1.9671  1.9358 -0.1661
 9028TIP3    H251280   1.975   6.025  10.092 -0.0934  0.2672  0.2148
 9029TIP3   OH251281   0.929   2.923  12.076  0.6707  0.3284 -0.3893
 9029TIP3    H151282   1.000   2.902  12.137 -0.2003  1.7138  1.2025
 9029TIP3    H251283   0.852   2.936  12.132 -0.7296 -0.5731 -2.0063
 9030TIP3   OH251284   3.477   1.488  11.758 -0.4269  0.6229  0.4741
 9030TIP3    H151285   3.559   1.514  11.716 -0.0117 -0.0646  0.8402
 9030TIP3    H251286   3.485   1.394  11.771 -1.1432  0.5989  0.8093
 9031TIP3   OH251287   1.879   6.338  11.096 -0.6709 -0.0779 -0.1683
 9031TIP3    H151288   1.816   6.388  11.043 -0.1000  1.8345  0.8642
 9031TIP3    H251289   1.832   6.318  11.177 -1.0225 -1.6342 -0.7194
 9032TIP3   OH251290   5.890   0.459  11.203 -0.3447  0.2930  0.8055
 9032TIP3    H151291   5.861   0.373  11.234 -0.6186  0.3809  0.7924
 9032TIP3    H251292   5.898   0.512  11.283  2.1914 -0.4293  1.1152
 9033TIP3   OH251293   0.545   4.083   9.598  0.0053  0.0185  0.0080
 9033TIP3    H151294   0.595   4.003   9.620 -1.6601 -1.2560 -0.6532
 9033TIP3    H251295   0.461   4.051   9.567 -0.8379  2.0828  0.0180
 9034TIP3   OH251296   4.538   4.576  11.619  0.1878  0.3432 -0.0218
 9034TIP3    H151297   4.606   4.637  11.592  2.3253 -1.8322  0.1416
 9034TIP3    H251298   4.483   4.566  11.541  2.7804 -1.2921 -1.7960
 9035TIP3   OH251299   3.680   4.350   9.682  0.2550 -0.0338  0.0413
 9035TIP3    H151300   3.720   4.420   9.734  0.1670 -0.2328  0.3844
 9035TIP3    H251301   3.754   4.310   9.637  0.1857  0.9042 -0.9345
 9036TIP3   OH251302   4.120   2.926  11.599 -0.2533  0.2198  0.2716
 9036TIP3    H151303   4.069   2.980  11.538 -0.6150  0.0521  0.4242
 9036TIP3    H251304   4.078   2.940  11.684  1.3400  1.8951  0.8525
 9037TIP3   OH251305   1.063   4.942  11.139 -0.0368 -0.4949  0.7867
 9037TIP3    H151306   1.099   4.853  11.135 -0.6591 -0.7664  0.9809
 9037TIP3    H251307   1.071   4.975  11.049  1.6846 -0.1198  1.0436
 9038TIP3   OH251308   0.908   3.086  10.516  0.5165 -0.3289 -0.2291
 9038TIP3    H151309   0.916   3.015  10.580  1.2132 -0.9861 -1.0196
 9038TIP3    H251310   0.825   3.129  10.538  0.1400 -1.3094  0.3425
 9039TIP3   OH251311   3.185   5.239  11.852 -0.0845 -0.0679 -0.4143
 9039TIP3    H151312   3.123   5.303  11.818 -1.0456 -1.8283 -2.1672
 9039TIP3    H251313   3.135   5.158  11.858  1.1557 -0.7631  1.5225
 9040TIP3   OH251314   5.103   0.911  10.477 -0.1655  0.2952  0.0527
 9040TIP3    H151315   5.078   0.996  10.441 -0.6277 -0.3184 -1.1191
 9040TIP3    H251316   5.037   0.893  10.545  0.4455  1.2516  0.9319
 9041TIP3   OH251317   3.544   0.431  11.840 -0.1795 -0.3532 -0.3358
 9041TIP3    H151318   3.454   0.432  11.806 -0.5616 -0.5047  0.6264
 9041TIP3    H251319   3.534   0.449  11.933  0.9056  0.8545 -0.4289
 9042TIP3   OH251320   5.737   4.429  11.604  0.6968 -0.4579  0.5440
 9042TIP3    H151321   5.797   4.415  11.678 -0.3975  1.3947  1.8864
 9042TIP3    H251322   5.664   4.369  11.620  0.1802  0.3516  1.3615
 9043TIP3   OH251323   3.313   2.612  10.793  0.6032 -0.1325 -0.9690
 9043TIP3    H151324   3.329   2.698  10.833  0.0045 -0.7001  0.5809
 9043TIP3    H251325   3.397   2.566  10.802  0.0718 -0.8085  1.1775
 9044TIP3   OH251326   5.956   0.725   9.587 -0.4717 -0.1437 -0.1895
 9044TIP3    H151327   5.986   0.707   9.498  1.0065 -0.8600  0.4232
 9044TIP3    H251328   6.023   0.782   9.623 -2.6296  2.8559 -0.4965
 9045TIP3   OH251329   4.433   5.408  11.230 -0.0372 -0.3846  0.1220
 9045TIP3    H151330   4.494   5.341  11.263 -0.9908 -0.7848  1.1322
 9045TIP3    H251331   4.411   5.379  11.142 -0.5533 -1.5000  0.6053
 9046TIP3   OH251332   0.665   5.572  11.591 -0.5503  0.4937  0.1222
 9046TIP3    H151333   0.619   5.547  11.511  0.8760  2.3801 -1.3561
 9046TIP3    H251334   0.749   5.526  11.586  0.3672  2.1859 -0.5170
 9047TIP3   OH251335   6.282   4.088   9.403 -0.3585  0.1736 -0.5412
 9047TIP3    H151336   6.259   4.179   9.385 -0.6021  0.2971  0.3044
 9047TIP3    H251337   6.321   4.055   9.322  3.2265  2.1046  0.2146
 9048TIP3   OH251338   2.180   2.163  10.283 -0.5556 -0.1315 -0.3731
 9048TIP3    H151339   2.173   2.133  10.192 -0.5524 -1.5280  0.0666
 9048TIP3    H251340   2.195   2.083  10.334  1.1454  0.8029  0.6882
 9049TIP3   OH251341   0.797   4.911  12.208  0.3900  0.4729 -0.3345
 9049TIP3    H151342   0.844   4.902  12.291  2.5151 -1.6932 -1.6261
 9049TIP3    H251343   0.857   4.960  12.151  0.8173 -1.5917 -1.7732
 9050TIP3   OH251344   4.648   0.646  11.172 -0.0848  0.3896 -0.0784
 9050TIP3    H151345   4.707   0.572  11.159 -0.2406  0.1151  0.7043
 9050TIP3    H251346   4.610   0.662  11.086 -0.0643 -0.4579 -0.2575
 9051TIP3   OH251347   1.537   2.480  12.349  0.2151  0.4538 -0.0789
 9051TIP3    H151348   1.459   2.478  12.293 -1.3552 -0.6759  1.9977
 9051TIP3    H251349   1.524   2.557  12.405  0.1537 -0.1941  0.8190
 9052TIP3   OH251350   1.184   1.076  10.298  0.3488 -0.7578  0.3405
 9052TIP3    H151351   1.144   1.003  10.250  2.9319 -0.7906 -2.0841
 9052TIP3    H251352   1.227   1.034  10.373 -0.6121 -1.2780  0.6151
 9053TIP3   OH251353   3.277   3.133  12.578  0.3277  0.3363 -0.0432
 9053TIP3    H151354   3.200   3.187  12.597  0.6289  0.5518  0.5994
 9053TIP3    H251355   3.347   3.197  12.562  0.5279  0.1387  0.0517
 9054TIP3   OH251356   2.805   1.840  11.071  0.0771  0.1410 -0.6281
 9054TIP3    H151357   2.721   1.797  11.059 -0.8777  1.3752  1.1851
 9054TIP3    H251358   2.785   1.921  11.117  2.3836 -0.3754  1.5600
 9055TIP3   OH251359   6.682   1.506   9.717  0.1505 -0.5421  0.0558
 9055TIP3    H151360   6.745   1.452   9.764  1.5068  1.0242  0.1143
 9055TIP3    H251361   6.719   1.594   9.720 -1.3363  0.1632 -1.1728
 9056TIP3   OH251362   0.878   5.491  11.746 -0.1514  0.3306  0.4064
 9056TIP3    H151363   0.843   5.569  11.704  2.4388  0.6210 -1.4329
 9056TIP3    H251364   0.961   5.520  11.784  1.8192 -1.8343 -1.9392
 9057TIP3   OH251365   5.025   3.663  10.434 -0.4173 -0.5451  0.3041
 9057TIP3    H151366   5.103   3.718  10.428 -2.1805  2.0291 -0.4308
 9057TIP3    H251367   5.026   3.610  10.354  0.9036 -1.0888  0.6506
 9058TIP3   OH251368   3.176   5.699  10.988  0.1456  0.1580  0.8776
 9058TIP3    H151369   3.155   5.792  10.976 -2.1830 -0.2818  1.2259
 9058TIP3    H251370   3.194   5.691  11.082  1.0247  0.3552  0.7368
 9059TIP3   OH251371   2.323   2.309  11.082 -0.2457 -0.0100 -0.3472
 9059TIP3    H151372   2.300   2.295  10.990  0.9329 -3.3557 -0.3023
 9059TIP3    H251373   2.418   2.319  11.081 -0.2070 -0.2087  0.4787
 9060TIP3   OH251374   2.768   2.338  12.065  0.0649 -0.7953 -0.0403
 9060TIP3    H151375   2.759   2.338  11.970  1.1386 -3.4675 -0.2275
 9060TIP3    H251376   2.846   2.391  12.082 -1.7723  2.2027 -0.3106
 9061TIP3   OH251377   2.743   4.291  10.702 -0.2519  0.1812 -0.0133
 9061TIP3    H151378   2.728   4.321  10.612  0.4522  1.4799  0.2761
 9061TIP3    H251379   2.737   4.195  10.696 -1.7686  0.3041 -1.1352
 9062TIP3   OH251380   3.817   1.830  10.952  0.2866 -0.4098 -0.0193
 9062TIP3    H151381   3.757   1.756  10.960  1.3034 -1.6748 -2.8399
 9062TIP3    H251382   3.845   1.828  10.860  2.9136  1.4717  0.6344
 9063TIP3   OH251383   6.248   5.125   9.312 -0.3425  0.4161  0.2706
 9063TIP3    H151384   6.170   5.071   9.299 -0.6225  0.7360  0.6284
 9063TIP3    H251385   6.215   5.214   9.322 -0.0102  0.4198  1.4396
 9064TIP3   OH251386   1.999   1.919   9.323 -0.3374  0.5305  0.2486
 9064TIP3    H151387   2.021   1.900   9.232  0.1243  0.8163  0.2938
 9064TIP3    H251388   1.953   1.842   9.354 -0.1011  0.2482 -0.0982
 9065TIP3   OH251389   6.012   2.938  11.486  0.0616 -0.1171  0.3682
 9065TIP3    H151390   6.002   2.864  11.546 -2.3851 -1.1056 -1.1021
 9065TIP3    H251391   5.985   3.014  11.537 -0.8917 -0.7750  0.8775
 9066TIP3   OH251392   0.443   5.475  11.096  0.0648  0.6269 -0.1102
 9066TIP3    H151393   0.353   5.501  11.115 -0.1022  0.7855 -1.0585
 9066TIP3    H251394   0.465   5.523  11.017  0.6986 -0.0531 -0.3541
 9067TIP3   OH251395   5.113   0.191  12.363  0.0828  0.2405 -0.4771
 9067TIP3    H151396   5.082   0.101  12.363  1.6698 -0.3473 -1.5700
 9067TIP3    H251397   5.153   0.203  12.449 -2.2369  0.7364  0.6210
 9068TIP3   OH251398   3.443   2.206   9.896 -0.2175  0.1418 -0.3403
 9068TIP3    H151399   3.498   2.261   9.953 -1.8854  1.5969 -0.0381
 9068TIP3    H251400   3.504   2.142   9.859  1.2559  0.2263  1.7217
 9069TIP3   OH251401   3.467   4.200  10.062 -0.0106  0.3246  0.0667
 9069TIP3    H151402   3.492   4.288  10.091 -0.6152  0.6621 -0.4235
 9069TIP3    H251403   3.436   4.212   9.972 -0.6523 -0.2949  0.1978
 9070TIP3   OH251404   3.922   2.326  10.447 -0.2519  0.1342  0.5106
 9070TIP3    H151405   3.911   2.385  10.522  1.9994 -0.1421  1.1284
 9070TIP3    H251406   3.853   2.261  10.458  0.2957 -0.1564  2.6119
 9071TIP3   OH251407   2.783   4.628  10.568 -0.2379 -0.3362 -0.4354
 9071TIP3    H151408   2.802   4.602  10.479  3.3528 -1.1532  0.4235
 9071TIP3    H251409   2.769   4.723  10.563  0.5014 -0.2811 -1.7747
 9072TIP3   OH251410   2.885   1.160  11.609  0.2337  1.0074 -0.3623
 9072TIP3    H151411   2.978   1.174  11.588  0.5904  1.4145  1.3326
 9072TIP3    H251412   2.842   1.154  11.523  2.1318 -1.6443 -1.2637
 9073TIP3   OH251413   2.422   3.567  11.072 -0.5844 -0.6331 -0.1229
 9073TIP3    H151414   2.332   3.595  11.058 -1.6286 -2.6737  1.8368
 9073TIP3    H251415   2.439   3.504  11.002 -0.6928 -0.2787 -0.4681
 9074TIP3   OH251416   0.682   4.407   9.980  0.2618 -0.2634  0.2676
 9074TIP3    H151417   0.660   4.319   9.948 -0.1126  1.1801 -4.2137
 9074TIP3    H251418   0.602   4.457   9.969  1.0267  1.0979  0.7233
 9075TIP3   OH251419   3.540   1.350   9.997  0.2149 -0.2335 -0.2471
 9075TIP3    H151420   3.541   1.442  10.022 -0.9080 -0.3720  0.3810
 9075TIP3    H251421   3.545   1.351   9.902  0.6046  0.4551 -0.2284
 9076TIP3   OH251422   0.824   0.754  11.989 -0.0368 -0.6261  0.1413
 9076TIP3    H151423   0.914   0.745  12.019 -0.1541  0.7227  0.9962
 9076TIP3    H251424   0.786   0.819  12.048 -1.1932 -0.2266 -1.0045
 9077TIP3   OH251425   2.064   0.575  12.775  0.0613 -0.5297  0.4861
 9077TIP3    H151426   2.136   0.547  12.832  2.3776 -0.0840 -1.9844
 9077TIP3    H251427   2.026   0.650  12.820  1.1212 -0.7893  1.9061
 9078TIP3   OH251428   0.952   1.811  10.803 -0.0537 -0.5225  0.6603
 9078TIP3    H151429   0.880   1.770  10.850 -0.6190 -0.1780  0.1099
 9078TIP3    H251430   0.954   1.901  10.836 -1.3392  0.1293 -0.9212
 9079TIP3   OH251431   5.088   4.493  12.519 -0.0585  0.1909  0.1259
 9079TIP3    H151432   5.000   4.490  12.558 -0.2994 -0.0846 -0.4310
 9079TIP3    H251433   5.136   4.423  12.563 -0.3032 -0.0607 -0.0084
 9080TIP3   OH251434   3.405   3.964  10.553 -0.6240 -0.3453  0.6356
 9080TIP3    H151435   3.453   4.044  10.575  1.2927 -1.5307  0.9941
 9080TIP3    H251436   3.320   3.975  10.596 -0.6231  1.6985  0.2384
 9081TIP3   OH251437   3.828   2.997   9.753  0.2523  0.0596 -0.8815
 9081TIP3    H151438   3.851   2.972   9.664  2.7315 -2.7159  0.3579
 9081TIP3    H251439   3.773   2.926   9.785  0.3141  0.4432  0.1322
 9082TIP3   OH251440   5.816   5.485  12.645  0.5695  0.4768 -0.3989
 9082TIP3    H151441   5.776   5.571  12.659 -2.2749 -0.8658  0.4240
 9082TIP3    H251442   5.782   5.431  12.716  0.2439 -1.9751 -2.3058
 9083TIP3   OH251443   3.387   2.284  11.997  0.4402  0.3143 -0.5101
 9083TIP3    H151444   3.384   2.306  12.090 -0.3976  1.9394 -0.8855
 9083TIP3    H251445   3.433   2.200  11.993  1.8009  0.9359  1.2340
 9084TIP3   OH251446   3.989   0.555  10.512  0.5496  0.0094 -0.3375
 9084TIP3    H151447   3.998   0.498  10.589 -0.9456  0.5879  0.2861
 9084TIP3    H251448   3.920   0.514  10.460 -0.5840  1.2738  0.1451
 9085TIP3   OH251449   3.049   5.185  11.174 -0.2899  0.1208 -1.1253
 9085TIP3    H151450   3.074   5.220  11.259  0.1502 -1.5305 -0.5362
 9085TIP3    H251451   2.971   5.233  11.149 -0.7910  0.1929  0.5194
 9086TIP3   OH251452   3.275   3.106  10.954 -0.4307  0.4515  0.3479
 9086TIP3    H151453   3.290   3.011  10.954  1.4694  0.7016  0.9822
 9086TIP3    H251454   3.187   3.116  10.989 -1.1917 -1.1241 -0.9558
 9087TIP3   OH251455   4.433   2.924  10.936 -0.2195 -0.3777 -0.0974
 9087TIP3    H151456   4.391   2.926  11.022 -2.2354  1.3323 -1.0113
 9087TIP3    H251457   4.384   2.857  10.887 -1.5976  1.2025 -0.9835
 9088TIP3   OH251458   5.129   3.233  10.076 -0.1012  0.0525  0.0599
 9088TIP3    H151459   5.137   3.282  10.158  0.6750 -1.7487  1.1453
 9088TIP3    H251460   5.052   3.269  10.033 -0.4645  1.1303  1.5489
 9089TIP3   OH251461   6.557   4.393   9.850  0.2800 -0.2021 -0.0653
 9089TIP3    H151462   6.596   4.430   9.771  0.3438 -1.2891 -0.5559
 9089TIP3    H251463   6.463   4.390   9.832  0.1057  1.0479  0.5437
 9090TIP3   OH251464   1.002   0.327  10.595  0.4879 -0.5285 -0.0817
 9090TIP3    H151465   1.026   0.420  10.600 -0.4464 -0.3419  1.6044
 9090TIP3    H251466   0.909   0.325  10.618  1.0488 -2.1044  2.4355
 9091TIP3   OH251467   5.857   4.657   9.979 -0.0982  0.3708 -0.0894
 9091TIP3    H151468   5.767   4.671  10.007 -1.1537 -1.6490 -2.0931
 9091TIP3    H251469   5.901   4.624  10.057 -1.9827 -1.7316  0.1979
 9092TIP3   OH251470   4.123   4.307  11.894  0.2804 -0.3408 -0.3139
 9092TIP3    H151471   4.206   4.343  11.864  0.1249 -0.4260 -0.8765
 9092TIP3    H251472   4.068   4.305  11.815  0.6719 -2.9183 -0.6272
 9093TIP3   OH251473   4.386   6.493  10.194  0.4453  0.5071 -0.5873
 9093TIP3    H151474   4.340   6.521  10.273  1.0426 -0.1598  0.0125
 9093TIP3    H251475   4.322   6.438  10.148 -0.2708  1.7522 -1.1133
 9094TIP3   OH251476   3.137   1.054  11.159  0.1263 -0.6971  0.2226
 9094TIP3    H151477   3.215   0.999  11.156 -0.0518 -0.9362 -0.1564
 9094TIP3    H251478   3.168   1.141  11.136  0.3979 -0.6475  0.7513
 9095TIP3   OH251479   5.608   1.818   9.677  0.0360  0.0219  0.1430
 9095TIP3    H151480   5.680   1.800   9.737  0.1945 -0.8612 -0.2999
 9095TIP3    H251481   5.540   1.755   9.701 -0.6922  0.9870  0.7012
 9096TIP3   OH251482   6.581   3.679  12.201  0.1861 -0.3387 -0.0871
 9096TIP3    H151483   6.673   3.692  12.177 -0.0894  1.4307 -0.3737
 9096TIP3    H251484   6.584   3.632  12.285  1.3453 -0.4894 -0.1989
 9097TIP3   OH251485   3.204   4.886  12.827 -0.3437 -0.3333 -0.4616
 9097TIP3    H151486   3.128   4.873  12.883 -0.8976  0.1804 -1.0893
 9097TIP3    H251487   3.172   4.936  12.752  0.4383 -0.7960 -1.1300
 9098TIP3   OH251488   4.861   6.013   9.478  0.0997 -0.5090 -0.1799
 9098TIP3    H151489   4.949   6.031   9.444 -0.2883 -1.6225 -1.8640
 9098TIP3    H251490   4.835   6.095   9.520 -0.1995  1.7947 -4.3851
 9099TIP3   OH251491   5.681   5.737   9.746  0.1425 -0.1528 -0.1254
 9099TIP3    H151492   5.721   5.653   9.726 -2.5917 -1.4541 -0.6090
 9099TIP3    H251493   5.664   5.777   9.660  0.0475  0.1836  0.0485
 9100TIP3   OH251494   6.136   4.870  13.115 -0.3917 -0.1143 -0.2222
 9100TIP3    H151495   6.116   4.904  13.203  1.6685 -0.3207  0.3606
 9100TIP3    H251496   6.150   4.949  13.062 -0.5250 -0.0051 -0.0976
 9101TIP3   OH251497   6.250   2.162  12.333 -0.1676  0.3249  0.3641
 9101TIP3    H151498   6.328   2.212  12.359  0.3776 -0.7022  0.7700
 9101TIP3    H251499   6.275   2.070  12.344 -0.6637 -0.1137 -1.7460
 9102TIP3   OH251500   1.464   3.168  10.454  0.0566 -0.4700  0.0155
 9102TIP3    H151501   1.452   3.241  10.514 -0.2701 -0.0959 -0.5090
 9102TIP3    H251502   1.482   3.093  10.512 -0.8656 -0.2431  0.6097
 9103TIP3   OH251503   4.143   6.500  12.195  0.0092 -0.4197  0.5762
 9103TIP3    H151504   4.191   6.577  12.226  0.0713 -1.1179  2.3327
 9103TIP3    H251505   4.208   6.430  12.194 -0.2987 -0.7058  0.0613
 9104TIP3   OH251506   2.955   6.294   9.983  0.3029 -0.3582 -0.6993
 9104TIP3    H151507   3.022   6.318   9.919  0.5065 -1.8152 -1.0642
 9104TIP3    H251508   2.979   6.342  10.063  0.8678  0.3466 -1.2840
 9105TIP3   OH251509   1.835   0.092  11.925  0.1664 -0.3455  0.0519
 9105TIP3    H151510   1.824   0.181  11.891 -0.7691  0.1641  1.5928
 9105TIP3    H251511   1.781   0.089  12.004 -0.6033 -2.5817 -0.4619
 9106TIP3   OH251512   2.747   0.813  11.289 -0.3148  0.7575 -0.3138
 9106TIP3    H151513   2.658   0.817  11.253 -0.4656  1.3771  0.1128
 9106TIP3    H251514   2.803   0.801  11.212 -0.8880 -1.7953 -0.4225
 9107TIP3   OH251515   5.104   3.470  12.075  0.8809 -0.5316 -0.3052
 9107TIP3    H151516   5.170   3.498  12.012  0.9717 -1.2330 -0.5329
 9107TIP3    H251517   5.143   3.488  12.160  0.7140  0.5208 -0.4400
 9108TIP3   OH251518   2.175   1.480   9.729 -0.2769 -0.4878 -0.0439
 9108TIP3    H151519   2.154   1.545   9.796  0.8168 -0.3246  0.1665
 9108TIP3    H251520   2.157   1.524   9.646  3.3409  1.3207 -0.0707
 9109TIP3   OH251521   5.325   2.603   9.874  0.3801  0.0791  0.0700
 9109TIP3    H151522   5.279   2.599   9.790  1.3305  0.4245 -0.4732
 9109TIP3    H251523   5.255   2.605   9.939 -0.4223 -3.3925 -0.5134
 9110TIP3   OH251524   2.008   5.356  10.152  0.3638  0.0597  0.4631
 9110TIP3    H151525   1.989   5.356  10.058 -0.2528 -2.6867  0.4956
 9110TIP3    H251526   2.075   5.289  10.162  2.4608  2.2012  1.7244
 9111TIP3   OH251527   6.681   6.326  10.305  0.4308  0.2152  0.4537
 9111TIP3    H151528   6.705   6.240  10.339  1.2515 -0.6890 -2.1798
 9111TIP3    H251529   6.667   6.311  10.212 -2.1236  2.4260  0.3636
 9112TIP3   OH251530   6.114   0.091  11.187 -0.7954 -0.0772 -0.1409
 9112TIP3    H151531   6.118   0.075  11.093  0.0307 -1.7903  0.1509
 9112TIP3    H251532   6.058   0.021  11.221 -0.3758 -0.0035  0.7368
 9113TIP3   OH251533   2.101   5.801  12.640 -0.1798  0.7477  0.4436
 9113TIP3    H151534   2.021   5.844  12.609  0.3808  0.4863 -1.5361
 9113TIP3    H251535   2.121   5.737  12.572  0.5170 -0.7465  1.9911
 9114TIP3   OH251536   3.079   1.379   9.494  0.2698  0.1399  0.0217
 9114TIP3    H151537   3.139   1.341   9.430  0.9907  2.3778 -0.7003
 9114TIP3    H251538   3.056   1.465   9.459 -1.9927  0.0909  1.1537
 9115TIP3   OH251539   1.888   3.360  11.880 -0.0204  0.3547 -0.6356
 9115TIP3    H151540   1.982   3.374  11.891 -0.0729  1.7757 -1.6887
 9115TIP3    H251541   1.869   3.283  11.933  1.3491  1.3016  1.3797
 9116TIP3   OH251542   4.896   5.625   9.576  0.4797 -0.4271 -0.5068
 9116TIP3    H151543   4.904   5.619   9.481 -1.1572 -2.0889 -0.5831
 9116TIP3    H251544   4.857   5.542   9.602 -2.4032  1.2936  1.2021
 9117TIP3   OH251545   0.903   1.360   9.501 -0.0565 -0.3006  0.6049
 9117TIP3    H151546   0.909   1.406   9.584  0.2575 -0.3551  0.6132
 9117TIP3    H251547   0.918   1.268   9.522  3.4592 -0.0040  0.1011
 9118TIP3   OH251548   2.694   0.517   9.340  0.5783  0.8792  0.1179
 9118TIP3    H151549   2.607   0.556   9.345  0.0292 -0.3414  0.2317
 9118TIP3    H251550   2.746   0.582   9.293 -1.4291 -0.0456 -3.8067
 9119TIP3   OH251551   4.973   2.425  10.207 -0.0020  0.1422  0.1045
 9119TIP3    H151552   5.062   2.461  10.207 -0.3960  1.1722  1.5201
 9119TIP3    H251553   4.922   2.486  10.154 -0.0876  0.1668  0.2138
 9120TIP3   OH251554   6.247   3.684  12.560  0.1508  0.1372  0.1193
 9120TIP3    H151555   6.270   3.607  12.508  0.3714  0.3899 -0.1573
 9120TIP3    H251556   6.322   3.696  12.619  0.1420  0.1758  0.1228
 9121TIP3   OH251557   0.686   3.396  11.065  0.1043  0.1720 -0.5029
 9121TIP3    H151558   0.626   3.377  10.992 -2.2632  1.5759  0.9270
 9121TIP3    H251559   0.669   3.327  11.128 -1.6489  1.6669  0.7716
 9122TIP3   OH251560   3.557   3.768  11.488 -0.0949 -0.5278 -0.5214
 9122TIP3    H151561   3.483   3.710  11.507 -2.5132  2.8847  1.8330
 9122TIP3    H251562   3.609   3.768  11.568 -0.0100  0.3262 -0.5659
 9123TIP3   OH251563   0.229   3.196  11.657  0.9369  0.7761 -0.9661
 9123TIP3    H151564   0.248   3.248  11.735  1.2293  1.8374 -1.7310
 9123TIP3    H251565   0.285   3.118  11.666 -0.8778 -0.3944  1.1232
 9124TIP3   OH251566   6.059   5.606  11.281  0.3479 -0.1429  0.3064
 9124TIP3    H151567   5.991   5.673  11.291  0.3656  0.2112 -1.5473
 9124TIP3    H251568   6.017   5.536  11.231  0.7852 -0.8314  0.8795
 9125TIP3   OH251569   5.512   1.706  10.244  0.1973  0.4795  0.4550
 9125TIP3    H151570   5.551   1.690  10.158  2.0796  2.8460  0.7815
 9125TIP3    H251571   5.425   1.742  10.224  0.8627  1.6188 -0.5163
 9126TIP3   OH251572   0.824   2.039  10.412 -0.1800  0.2676  0.5751
 9126TIP3    H151573   0.853   2.110  10.355 -0.3820  0.0379  0.1822
 9126TIP3    H251574   0.903   2.012  10.459  0.1668 -0.0932 -0.1994
 9127TIP3   OH251575   4.314   0.248  12.597  0.0461 -0.0222  0.3422
 9127TIP3    H151576   4.401   0.209  12.602 -0.5382 -1.4114  0.2238
 9127TIP3    H251577   4.321   0.315  12.529  1.2245  0.4837  0.9404
 9128TIP3   OH251578   6.311   3.604  12.142 -0.0276 -0.2504  0.1633
 9128TIP3    H151579   6.398   3.637  12.117  0.1062 -0.3921  0.4445
 9128TIP3    H251580   6.329   3.521  12.186 -0.2877 -0.1407  0.4727
 9129TIP3   OH251581   2.313   1.174  10.094 -0.1981 -0.4054 -0.2785
 9129TIP3    H151582   2.380   1.126  10.143  1.4995 -0.4164 -2.4383
 9129TIP3    H251583   2.353   1.258  10.074 -0.9723 -0.2657 -1.3130
 9130TIP3   OH251584   1.519   2.436  10.125 -0.5186  0.3489  0.0517
 9130TIP3    H151585   1.502   2.492  10.050  0.1336  0.3860 -0.0755
 9130TIP3    H251586   1.613   2.443  10.139 -0.6712  0.5440  1.0319
 9131TIP3   OH251587   6.051   3.039  10.298 -0.2958  0.2065 -0.2666
 9131TIP3    H151588   5.966   2.996  10.295  0.4582 -1.6095  1.6751
 9131TIP3    H251589   6.110   2.973  10.335  2.5655  0.4993 -3.7286
 9132TIP3   OH251590   5.727   1.493   9.880 -0.2334 -0.2719  0.0402
 9132TIP3    H151591   5.736   1.549   9.802 -1.0123  2.0193  1.4840
 9132TIP3    H251592   5.795   1.525   9.940 -0.3384 -1.2754  0.7084
 9133TIP3   OH251593   0.943   4.327  10.945  0.0073  0.3233 -0.2417
 9133TIP3    H151594   0.900   4.292  10.867  0.2472 -0.3665 -0.0688
 9133TIP3    H251595   1.033   4.293  10.940 -0.5034 -1.4332  1.3610
 9134TIP3   OH251596   4.775   0.070  10.443  0.1997 -0.1446  0.2546
 9134TIP3    H151597   4.833   0.139  10.477 -0.2862  0.6631 -0.5329
 9134TIP3    H251598   4.718   0.049  10.517 -1.5716  2.3691 -0.2923
 9135TIP3   OH251599   4.463   5.867  12.047 -0.5859 -0.7396 -0.4552
 9135TIP3    H151600   4.419   5.870  12.132 -1.3490  1.8409 -0.8382
 9135TIP3    H251601   4.555   5.856  12.067 -0.6646  0.6172  0.7883
 9136TIP3   OH251602   0.653   3.639   9.378  0.2218 -0.1729 -0.5340
 9136TIP3    H151603   0.599   3.571   9.418  0.6792 -0.1638  0.1113
 9136TIP3    H251604   0.589   3.698   9.337 -0.2428 -0.3389 -0.0641
 9137TIP3   OH251605   2.384   6.470  11.614  0.6675 -0.1992  0.0451
 9137TIP3    H151606   2.307   6.525  11.604  0.4109 -0.7836 -1.4722
 9137TIP3    H251607   2.352   6.381  11.600  1.5425 -0.4861 -0.2199
 9138TIP3   OH251608   3.011   0.904  11.373 -0.7755 -0.8560 -0.0289
 9138TIP3    H151609   3.049   0.934  11.290  0.8689 -1.5303  0.4353
 9138TIP3    H251610   2.921   0.879  11.351 -1.2359  1.4360 -1.0537
 9139TIP3   OH251611   6.078   2.575  10.291 -0.1073 -0.4508 -0.1343
 9139TIP3    H151612   6.018   2.504  10.313 -0.8083  0.4518  1.0702
 9139TIP3    H251613   6.023   2.641  10.248  0.1313  0.1329  0.4277
 9140TIP3   OH251614   6.197   0.295  12.041 -0.0189 -0.4058 -0.2614
 9140TIP3    H151615   6.285   0.275  12.074 -0.1202 -0.5106 -0.0540
 9140TIP3    H251616   6.144   0.218  12.065  0.0845 -0.8258 -1.3556
 9141TIP3   OH251617   6.291   1.074   9.984 -0.6852  0.2872  0.3171
 9141TIP3    H151618   6.233   1.006  10.018 -2.3852  0.4177 -2.0452
 9141TIP3    H251619   6.379   1.042  10.002 -1.4416 -0.9308  2.1688
 9142TIP3   OH251620   1.227   2.747   9.799 -0.2000  0.2472 -0.2147
 9142TIP3    H151621   1.301   2.783   9.847 -1.3561  0.2125  1.7036
 9142TIP3    H251622   1.176   2.823   9.773 -3.2255  0.3655  4.7801
 9143TIP3   OH251623   1.155   6.328   9.410  0.4208 -0.0357  0.0655
 9143TIP3    H151624   1.197   6.259   9.461  1.4646 -1.1444 -2.1375
 9143TIP3    H251625   1.069   6.339   9.451 -0.6102 -4.0290 -0.5223
 9144TIP3   OH251626   5.218   1.554   9.514 -0.1763  0.4721 -0.4529
 9144TIP3    H151627   5.156   1.620   9.481 -1.3007 -1.1857 -1.8545
 9144TIP3    H251628   5.201   1.477   9.459  1.8966 -0.6193  0.3626
 9145TIP3   OH251629   5.760   1.467  11.797  0.0137  0.0024 -0.5838
 9145TIP3    H151630   5.693   1.449  11.863  1.1320  0.9276  0.8813
 9145TIP3    H251631   5.712   1.497  11.720 -1.4328 -2.5814 -0.7702
 9146TIP3   OH251632   6.135   4.914  10.001 -0.6320 -0.5627  0.0054
 9146TIP3    H151633   6.190   4.990  10.021 -0.1151 -0.9960  0.2390
 9146TIP3    H251634   6.065   4.918  10.066  0.3291 -1.2341  1.1140
 9147TIP3   OH251635   6.739   4.263  11.437 -0.1662  0.1570 -0.5896
 9147TIP3    H151636   6.818   4.215  11.460  1.1220  1.7345 -1.4877
 9147TIP3    H251637   6.727   4.247  11.344 -1.3152 -0.6113 -0.3242
 9148TIP3   OH251638   5.520   1.548   9.460 -0.0158  0.0308 -0.3881
 9148TIP3    H151639   5.463   1.568   9.386  0.1396  1.2539 -0.2127
 9148TIP3    H251640   5.542   1.634   9.496  0.0395 -0.5361  0.9808
 9149TIP3   OH251641   1.806   3.174  12.055 -0.7600 -0.2965 -0.1809
 9149TIP3    H151642   1.852   3.190  12.137 -1.2145  0.1013 -0.0017
 9149TIP3    H251643   1.794   3.079  12.052 -1.1864 -0.2710  0.4593
 9150TIP3   OH251644   2.876   4.528   9.083  0.1120 -0.2383 -0.1974
 9150TIP3    H151645   2.848   4.500   8.995  2.1127 -0.6272 -0.7474
 9150TIP3    H251646   2.873   4.448   9.135 -0.1949 -0.1888 -0.1355
 9151TIP3   OH251647   1.747   1.087   9.539 -0.5443 -0.2011  0.4849
 9151TIP3    H151648   1.830   1.109   9.496 -0.4406  2.0756  1.7192
 9151TIP3    H251649   1.688   1.159   9.517 -1.1494 -0.0912  2.3050
 9152TIP3   OH251650   0.577   3.662  10.220 -0.6856 -0.0217 -0.0578
 9152TIP3    H151651   0.650   3.709  10.179 -1.0730 -0.8987 -1.8756
 9152TIP3    H251652   0.523   3.731  10.259 -1.0977  1.0986 -2.4127
 9153TIP3   OH251653   4.332   2.708  10.838 -0.1341  0.7525 -0.1778
 9153TIP3    H151654   4.345   2.666  10.752  0.9855  2.3133 -0.8182
 9153TIP3    H251655   4.273   2.648  10.885 -0.3880 -0.3876 -1.8432
 9154TIP3   OH251656   2.025   4.268  10.404  0.1885  0.2400 -0.2639
 9154TIP3    H151657   2.074   4.308  10.332  1.5266 -1.6141 -0.4614
 9154TIP3    H251658   1.954   4.220  10.361  0.2734  0.1037 -0.2522
 9155TIP3   OH251659   3.775   6.603  10.742  0.1630 -0.5724 -0.1413
 9155TIP3    H151660   3.743   6.665  10.808  0.1484  0.9834 -1.5576
 9155TIP3    H251661   3.749   6.517  10.776  0.7445  0.0918  2.2000
 9156TIP3   OH251662   3.237   1.809  10.964  0.6765  0.3896  0.1016
 9156TIP3    H151663   3.181   1.758  11.023  0.4550 -0.9615 -1.2209
 9156TIP3    H251664   3.240   1.896  11.004 -0.2394 -0.2147  1.5836
 9157TIP3   OH251665   0.255   5.574  10.398 -0.2435  0.5145  0.6692
 9157TIP3    H151666   0.255   5.658  10.354 -2.6596  0.7686  1.0348
 9157TIP3    H251667   0.188   5.523  10.353 -0.6476 -0.2820  2.1015
 9158TIP3   OH251668   0.658   5.029  11.646  0.1209  0.4137  0.6034
 9158TIP3    H151669   0.595   5.069  11.707 -1.6925  0.0581 -0.9556
 9158TIP3    H251670   0.652   4.935  11.665 -0.7397  0.2621 -0.3324
 9159TIP3   OH251671   3.387   6.228   9.962 -0.0836  0.2365  0.4097
 9159TIP3    H151672   3.330   6.174   9.907 -1.0797  1.6489  0.0116
 9159TIP3    H251673   3.454   6.261   9.903 -0.3530  0.6439  0.3295
 9160TIP3   OH251674   0.141   4.732  10.046  0.1648 -0.3988  0.4833
 9160TIP3    H151675   0.236   4.739  10.047  0.1564  0.2758  2.8628
 9160TIP3    H251676   0.120   4.677  10.122 -1.3985  0.8784  1.0436
 9161TIP3   OH251677   2.674   4.226  11.984  0.2923  0.2404 -0.4071
 9161TIP3    H151678   2.630   4.268  12.059 -0.1067 -0.4289 -0.2616
 9161TIP3    H251679   2.763   4.263  11.985  1.2435 -1.7723  2.1176
 9162TIP3   OH251680   4.323   2.175  11.113  0.1399 -0.3845  0.4383
 9162TIP3    H151681   4.324   2.172  11.018  2.2427  3.3264  0.1647
 9162TIP3    H251682   4.238   2.214  11.135 -0.3491 -1.2496  0.1334
 9163TIP3   OH251683   5.605   3.862   9.539  0.1318 -0.0868  0.3657
 9163TIP3    H151684   5.518   3.823   9.530  0.4177 -0.5648 -0.4399
 9163TIP3    H251685   5.647   3.848   9.454  0.3135  1.8643  0.0851
 9164TIP3   OH251686   2.734   5.344  12.170 -0.2030 -0.6700  0.5186
 9164TIP3    H151687   2.805   5.403  12.197  0.3154 -1.6091  1.2624
 9164TIP3    H251688   2.656   5.384  12.208 -0.3850  1.2551 -1.6439
 9165TIP3   OH251689   2.851   3.739  13.250 -0.5142  0.9246 -0.3491
 9165TIP3    H151690   2.783   3.671  13.257  0.2768  0.2494  1.3552
 9165TIP3    H251691   2.823   3.807  13.312  0.8988  0.1067  1.2662
 9166TIP3   OH251692   4.667   3.412  12.131  0.3099 -0.3020  0.0442
 9166TIP3    H151693   4.596   3.476  12.119  0.0559 -0.1955  1.8363
 9166TIP3    H251694   4.735   3.440  12.070  0.0710  1.5119  0.5480
 9167TIP3   OH251695   2.823   4.776   9.488  0.5764 -0.0940 -0.1367
 9167TIP3    H151696   2.805   4.868   9.469  0.7909 -0.4693 -2.3811
 9167TIP3    H251697   2.804   4.731   9.406 -1.2908 -2.3277  1.4091
 9168TIP3   OH251698   4.853   4.251  12.437 -0.2032 -0.4072 -0.6392
 9168TIP3    H151699   4.894   4.212  12.514 -2.4685 -1.3210  0.2115
 9168TIP3    H251700   4.819   4.335  12.468 -1.7950 -1.1130 -0.3537
 9169TIP3   OH251701   4.369   4.396  11.845  0.3587 -0.2395 -0.3767
 9169TIP3    H151702   4.412   4.336  11.783  0.3238  0.1768 -0.8122
 9169TIP3    H251703   4.384   4.483  11.808  0.3190  0.0163  0.1947
 9170TIP3   OH251704   4.266   4.700  10.114 -0.1436 -0.4327  0.3796
 9170TIP3    H151705   4.200   4.758  10.154 -0.5203  0.7418 -1.7862
 9170TIP3    H251706   4.217   4.620  10.093 -1.8383  1.3426 -3.6184
 9171TIP3   OH251707   1.080   3.671  11.063  0.3564 -0.9191  0.3981
 9171TIP3    H151708   1.158   3.638  11.020  1.3870 -0.7499  2.0576
 9171TIP3    H251709   1.098   3.764  11.079  0.1942 -1.0663  1.5393
 9172TIP3   OH251710   0.638   2.277   9.804  0.1161  0.4378  0.1675
 9172TIP3    H151711   0.666   2.283   9.895  0.8685 -1.2541  0.0906
 9172TIP3    H251712   0.574   2.205   9.803  0.3030  0.2649 -0.6613
 9173TIP3   OH251713   2.808   5.741  10.712  0.2547 -0.0157  0.2153
 9173TIP3    H151714   2.831   5.834  10.701 -0.8985  0.4741  1.5432
 9173TIP3    H251715   2.847   5.716  10.796 -0.8783 -0.1964  0.7193
 9174TIP3   OH251716   5.044   2.400  11.693  0.0583 -0.2122  0.3062
 9174TIP3    H151717   4.954   2.425  11.671  0.1947  0.5486  0.5636
 9174TIP3    H251718   5.055   2.428  11.784  0.7363  0.2364  0.0981
 9175TIP3   OH251719   4.075   1.714  11.537 -0.0193 -0.2102  0.1636
 9175TIP3    H151720   4.034   1.630  11.516 -0.9944  0.4740 -0.7943
 9175TIP3    H251721   4.002   1.771  11.562  0.4806  0.6993 -0.4055
 9176TIP3   OH251722   3.358   4.920  10.756  0.3709  0.6446  0.1606
 9176TIP3    H151723   3.310   4.922  10.673  1.2460 -0.1890 -0.3982
 9176TIP3    H251724   3.290   4.919  10.823 -0.4605 -1.4346 -0.6199
 9177TIP3   OH251725   0.582   3.458   9.789  0.4621 -0.0282  0.5042
 9177TIP3    H151726   0.547   3.486   9.704 -0.3486 -0.7129  0.5992
 9177TIP3    H251727   0.652   3.521   9.808  0.3114  0.4380 -0.4288
 9178TIP3   OH251728   4.688   3.148  12.687 -0.1982 -0.4844  0.6238
 9178TIP3    H151729   4.655   3.237  12.679 -0.5257 -0.7962 -3.7606
 9178TIP3    H251730   4.780   3.159  12.713 -0.5250  1.0246  1.2652
 9179TIP3   OH251731   4.900   5.900  11.909 -1.1847  0.9340 -0.0468
 9179TIP3    H151732   4.910   5.957  11.832  0.4785  1.3888  0.4619
 9179TIP3    H251733   4.950   5.821  11.886  1.7365  2.1756  1.5590
 9180TIP3   OH251734   4.151   0.211  12.935  0.0429  0.2990  0.0539
 9180TIP3    H151735   4.235   0.255  12.943 -0.6073  1.9582 -1.4604
 9180TIP3    H251736   4.087   0.282  12.939 -1.1009 -0.5563 -1.8576
 9181TIP3   OH251737   4.830   4.853  12.933  0.0264  0.3643  0.0676
 9181TIP3    H151738   4.843   4.780  12.873 -0.1073  0.4561 -0.0728
 9181TIP3    H251739   4.759   4.825  12.990  1.3613 -0.5014  1.4014
 9182TIP3   OH251740   4.212   6.041  11.543 -0.1798  0.7941 -0.3016
 9182TIP3    H151741   4.130   6.068  11.584 -0.8672  0.1241 -1.1884
 9182TIP3    H251742   4.202   6.066  11.451  0.8725  1.2651 -0.3023
 9183TIP3   OH251743   0.279   4.077  11.837  0.2672 -0.2748  0.2580
 9183TIP3    H151744   0.372   4.094  11.849  0.9034 -2.9419 -0.3159
 9183TIP3    H251745   0.240   4.164  11.826  2.5246  0.9704  1.3450
 9184TIP3   OH251746   2.728   3.264  11.259  1.1778  0.1709  0.6449
 9184TIP3    H151747   2.796   3.325  11.231  1.8617 -1.1111 -0.6356
 9184TIP3    H251748   2.761   3.178  11.234 -0.4513 -0.5909  0.9546
 9185TIP3   OH251749   3.694   4.664  11.680  0.5524 -0.4811  0.0199
 9185TIP3    H151750   3.645   4.746  11.676  1.0968 -0.2264 -2.2033
 9185TIP3    H251751   3.639   4.607  11.734 -0.0844  1.1384  1.1757
 9186TIP3   OH251752   1.249   1.510  10.902 -0.0440  1.0517  0.5156
 9186TIP3    H151753   1.213   1.428  10.869  2.1115 -0.7353  2.3300
 9186TIP3    H251754   1.207   1.522  10.988  0.4444  1.2721  0.7252
 9187TIP3   OH251755   3.079   3.947  10.899  0.2807  0.2169  0.0704
 9187TIP3    H151756   3.106   3.880  10.962  0.1184 -0.5107 -0.6221
 9187TIP3    H251757   3.006   3.907  10.852 -0.4035  1.2189  0.2378
 9188TIP3   OH251758   0.943   0.746   9.884 -0.5927 -0.4740 -0.0245
 9188TIP3    H151759   0.925   0.740   9.790  0.0400 -1.4317 -0.1032
 9188TIP3    H251760   0.882   0.812   9.916 -0.6313  0.0684 -1.1556
 9189TIP3   OH251761   0.130   2.122  10.803  0.2948 -0.0649 -0.1460
 9189TIP3    H151762   0.111   2.201  10.853 -0.8238  0.3940 -1.2602
 9189TIP3    H251763   0.125   2.051  10.867 -1.2741  0.4845  0.3847
 9190TIP3   OH251764   0.342   4.379   9.914  0.2955 -0.5123 -0.1288
 9190TIP3    H151765   0.364   4.411   9.826  1.9756 -1.3855 -0.0671
 9190TIP3    H251766   0.370   4.450   9.972 -0.5007 -0.0787 -0.2556
 9191TIP3   OH251767   0.593   3.023   9.887 -0.8801  0.3731 -0.5327
 9191TIP3    H151768   0.639   3.107   9.893 -2.0667  0.9541  1.1152
 9191TIP3    H251769   0.612   2.992   9.798 -0.3959  2.3693 -1.1833
 9192TIP3   OH251770   4.269   6.365   9.425  0.1522  0.2849  0.2480
 9192TIP3    H151771   4.362   6.346   9.411  0.3823 -0.4627  2.4233
 9192TIP3    H251772   4.244   6.419   9.350  1.8561 -1.0083 -1.3503
 9193TIP3   OH251773   6.032   0.071  12.060 -0.3495 -0.5255 -0.6074
 9193TIP3    H151774   6.074   0.050  12.144 -1.4726 -0.2708  0.0376
 9193TIP3    H251775   5.939   0.054  12.075 -0.5452 -0.5973 -1.8485
 9194TIP3   OH251776   4.841   4.036  11.624  0.3150  0.1991  0.0316
 9194TIP3    H151777   4.928   4.075  11.629  0.5275 -0.3974  1.4679
 9194TIP3    H251778   4.794   4.073  11.699  0.0863 -1.2213  0.6254
 9195TIP3   OH251779   6.664   6.607   9.791 -0.0006  0.2552  0.1494
 9195TIP3    H151780   6.733   6.547   9.762  0.2672 -0.9229  2.8925
 9195TIP3    H251781   6.707   6.666   9.852 -0.8758  1.3865 -0.2937
 9196TIP3   OH251782   1.058   2.116   9.874 -0.2766 -0.2440  0.4178
 9196TIP3    H151783   1.130   2.173   9.849 -0.7409  0.4614  0.6690
 9196TIP3    H251784   0.995   2.173   9.917 -0.4054 -1.0775  1.3798
 9197TIP3   OH251785   6.456   1.533  10.061  0.2649  0.6654 -0.0617
 9197TIP3    H151786   6.428   1.526  10.153  1.7065 -0.5608  0.3273
 9197TIP3    H251787   6.418   1.456  10.019 -0.3260  1.1847 -0.4955
 9198TIP3   OH251788   3.523   2.969  10.366 -0.4597  0.4389 -0.1133
 9198TIP3    H151789   3.441   3.004  10.402 -1.1562 -1.6805  0.4910
 9198TIP3    H251790   3.547   2.898  10.425  0.4421 -0.6385 -1.7111
 9199TIP3   OH251791   3.720   1.458   9.281  0.0008 -0.9868 -0.1906
 9199TIP3    H151792   3.646   1.437   9.338  0.5156 -1.2049  0.4175
 9199TIP3    H251793   3.736   1.378   9.231 -0.5746 -0.7322 -0.7832
 9200TIP3   OH251794   0.713   5.523  12.009  0.0866 -0.2075  0.0666
 9200TIP3    H151795   0.749   5.434  12.003 -1.6135 -0.9468  0.3231
 9200TIP3    H251796   0.769   5.574  11.950  1.1078 -1.4270 -0.0972
 9201TIP3   OH251797   1.568   4.182  12.438 -0.8936  0.0504  0.4963
 9201TIP3    H151798   1.517   4.192  12.357  1.7155  1.2467 -1.1287
 9201TIP3    H251799   1.546   4.259  12.490 -1.4767  0.0354  0.2837
 9202TIP3   OH251800   2.398   5.899  10.333 -0.0983  0.5988  1.0125
 9202TIP3    H151801   2.398   5.910  10.428  2.2678  0.6683  1.0778
 9202TIP3    H251802   2.396   5.804  10.320 -1.3009  0.5974  1.0667
 9203TIP3   OH251803   6.190   5.408  11.405  0.2674  1.0714 -0.9387
 9203TIP3    H151804   6.127   5.341  11.377  2.6296 -0.9628 -1.7929
 9203TIP3    H251805   6.145   5.491  11.392 -2.3855 -0.2733 -0.9916
 9204TIP3   OH251806   4.167   4.945  12.071 -0.4035 -0.2685  0.2562
 9204TIP3    H151807   4.075   4.943  12.098  0.3111 -0.3637  3.0238
 9204TIP3    H251808   4.180   5.033  12.037 -1.3760 -0.0175  0.4994
 9205TIP3   OH251809   1.480   0.830  11.350  0.3709 -0.5317  0.2376
 9205TIP3    H151810   1.400   0.829  11.402  0.0955 -0.1665 -0.1687
 9205TIP3    H251811   1.522   0.914  11.372  0.3820 -0.4925  0.0684
 9206TIP3   OH251812   4.267   3.336  11.744 -0.1298 -0.1417  0.0026
 9206TIP3    H151813   4.352   3.293  11.738 -0.4601 -1.0194  1.1716
 9206TIP3    H251814   4.223   3.315  11.661  0.7332  0.2247 -0.5548
 9207TIP3   OH251815   6.706   0.980   9.554  0.0257 -0.2580  0.0270
 9207TIP3    H151816   6.767   0.971   9.481  2.8174  0.1668  2.0985
 9207TIP3    H251817   6.684   1.073   9.556 -1.7025 -0.5864 -1.3856
 9208TIP3   OH251818   3.080   1.665  11.400  0.7431 -0.0896 -0.3501
 9208TIP3    H151819   3.135   1.724  11.349 -0.4498  1.0270 -0.4092
 9208TIP3    H251820   3.121   1.663  11.487  0.8947  0.7105 -0.3946
 9209TIP3   OH251821   0.412   4.119  10.136  0.4512 -0.0308  0.0754
 9209TIP3    H151822   0.336   4.081  10.093  1.4853 -0.1100 -1.8332
 9209TIP3    H251823   0.381   4.203  10.169 -0.3677  0.1833 -1.1555
 9210TIP3   OH251824   5.183   1.782  10.311 -0.2939  0.3119 -0.1085
 9210TIP3    H151825   5.142   1.863  10.340 -1.8802 -0.9676  1.4175
 9210TIP3    H251826   5.123   1.746  10.246  0.7087  0.6172 -1.2470
 9211TIP3   OH251827   4.292   5.218  13.098  0.2502  0.8719  0.4304
 9211TIP3    H151828   4.221   5.243  13.039  0.5824 -1.0160 -0.8589
 9211TIP3    H251829   4.248   5.192  13.179 -0.2652  2.7095  0.7853
 9212TIP3   OH251830   1.887   5.234   9.561 -0.0295 -0.0701  0.1681
 9212TIP3    H151831   1.812   5.278   9.521 -0.5488  0.6093  1.8054
 9212TIP3    H251832   1.962   5.289   9.539 -0.1185 -0.2894 -0.7461
 9213TIP3   OH251833   4.539   6.682  12.413  0.7321  0.5087  0.3893
 9213TIP3    H151834   4.624   6.711  12.380 -0.1989  3.0128 -0.0271
 9213TIP3    H251835   4.532   6.722  12.499 -0.4483  1.2457 -0.0293
 9214TIP3   OH251836   1.907   5.157  12.475 -0.0987 -0.0546 -0.1558
 9214TIP3    H151837   1.875   5.234  12.522 -1.2277  0.4201 -1.6061
 9214TIP3    H251838   2.002   5.169  12.469 -0.2245  1.0510 -0.0408
 9215TIP3   OH251839   4.642   1.758   9.192 -0.4011  0.0440  0.0099
 9215TIP3    H151840   4.735   1.767   9.171 -0.3147  0.5765  0.6166
 9215TIP3    H251841   4.599   1.749   9.107 -0.0541  2.1866 -0.4569
 9216TIP3   OH251842   3.865   3.585  10.466  0.5131  0.2177 -0.2537
 9216TIP3    H151843   3.788   3.533  10.487  0.9022 -0.8937 -1.4391
 9216TIP3    H251844   3.858   3.601  10.372  2.1325 -0.6143 -0.5469
 9217TIP3   OH251845   4.079   6.701  12.005  0.2922  0.0408  0.4380
 9217TIP3    H151846   4.133   6.622  12.010 -0.1066 -0.2395  0.3526
 9217TIP3    H251847   4.049   6.714  12.095  0.8953  0.4802  0.5830
 9218TIP3   OH251848   5.604   5.120  11.510  0.3364  0.1868  0.2276
 9218TIP3    H151849   5.668   5.190  11.497  0.3210  0.0063 -0.8821
 9218TIP3    H251850   5.528   5.164  11.546  0.3838  0.7196 -0.3143
 9219TIP3   OH251851   2.836   0.411  11.863  0.1271  0.2317 -0.0916
 9219TIP3    H151852   2.743   0.433  11.859 -0.0684 -0.0591  1.8874
 9219TIP3    H251853   2.839   0.328  11.910  1.2989 -0.6739 -1.6940
 9220TIP3   OH251854   0.234   4.356  11.001 -0.2909 -0.2681  0.3094
 9220TIP3    H151855   0.196   4.273  11.029  1.6503 -1.4469 -0.3837
 9220TIP3    H251856   0.164   4.400  10.954 -1.3861 -1.4630  0.7702
 9221TIP3   OH251857   3.491   6.663   9.991 -0.1089 -0.1801  0.6612
 9221TIP3    H151858   3.489   6.755   9.967 -0.4919 -0.4185 -0.2383
 9221TIP3    H251859   3.562   6.625   9.939  0.4354 -0.2857  1.4568
 9222TIP3   OH251860   1.084   3.145  10.282 -0.4045 -0.2209  0.1275
 9222TIP3    H151861   1.054   3.228  10.319 -2.1932 -0.2496 -1.1309
 9222TIP3    H251862   1.035   3.078  10.331  0.6124 -0.5195  0.7577
 9223TIP3   OH251863   3.182   3.611  11.971  0.1971 -0.2944  0.1770
 9223TIP3    H151864   3.121   3.662  11.917 -0.3154 -1.9541 -0.8752
 9223TIP3    H251865   3.131   3.537  12.002  1.0055 -0.3453  1.4579
 9224TIP3   OH251866   0.015   5.870  12.209 -0.1751  0.6067  0.0148
 9224TIP3    H151867   0.039   5.926  12.136  1.3868 -1.5292 -1.2421
 9224TIP3    H251868   0.097   5.855  12.256 -1.1170  1.7980  2.1690
 9225TIP3   OH251869   3.195   4.946  10.968  0.4228  0.0865 -0.2052
 9225TIP3    H151870   3.144   4.896  11.031  2.4605  0.5674  1.9565
 9225TIP3    H251871   3.192   5.036  10.999  0.8860  0.4685 -1.2112
 9226TIP3   OH251872   6.403   1.335  10.298 -0.1154 -0.4715  0.4313
 9226TIP3    H151873   6.360   1.249  10.296  1.2284 -1.1989  1.1235
 9226TIP3    H251874   6.333   1.396  10.320 -1.2410 -1.2716 -0.7760
 9227TIP3   OH251875   5.209   5.788   9.366 -0.0612 -0.3340 -0.9216
 9227TIP3    H151876   5.114   5.784   9.373 -0.2469  2.8103 -0.2568
 9227TIP3    H251877   5.241   5.755   9.451 -0.3414 -3.3713 -1.8682
 9228TIP3   OH251878   3.890   1.482   9.817 -0.4296  0.0178  0.5108
 9228TIP3    H151879   3.823   1.547   9.839 -0.0359  1.0471 -1.1223
 9228TIP3    H251880   3.878   1.412   9.881 -2.5818  0.5053  0.7156
 9229TIP3   OH251881   1.214   3.385  12.086 -0.2464  0.0004  0.1942
 9229TIP3    H151882   1.133   3.346  12.120  0.8329 -1.5610  1.1247
 9229TIP3    H251883   1.227   3.342  12.002 -0.6499  0.6612 -0.2156
 9230TIP3   OH251884   3.088   3.028  10.721 -0.0969 -0.4683  0.2318
 9230TIP3    H151885   3.064   3.110  10.764 -0.7876 -0.7300  0.3610
 9230TIP3    H251886   3.032   2.962  10.763  1.2270 -1.1962  0.9213
 9231TIP3   OH251887   5.433   1.592   9.184  0.1188 -0.1671  0.5685
 9231TIP3    H151888   5.475   1.678   9.191 -0.9010  0.2838  1.2395
 9231TIP3    H251889   5.482   1.548   9.114  1.6450  0.3782  1.2473
 9232TIP3   OH251890   5.317   6.140  11.530  0.3984  0.2737  0.0285
 9232TIP3    H151891   5.359   6.148  11.616 -0.0518  0.5561  0.2231
 9232TIP3    H251892   5.389   6.120  11.470  0.8683  1.1388  0.2927
 9233TIP3   OH251893   5.384   3.630   9.684  0.7432 -0.0343  0.4333
 9233TIP3    H151894   5.391   3.648   9.591  0.1964 -1.0287  0.1785
 9233TIP3    H251895   5.407   3.712   9.727  1.2968  0.3506 -0.5640
 9234TIP3   OH251896   1.181   1.182   9.755  0.0326 -0.2026 -0.0977
 9234TIP3    H151897   1.217   1.242   9.821 -1.9859 -0.3907  1.2753
 9234TIP3    H251898   1.225   1.098   9.772 -0.1562 -0.1392  0.7688
 9235TIP3   OH251899   0.478   5.898  10.577  0.3663 -0.1332  0.5796
 9235TIP3    H151900   0.490   5.803  10.570  0.0688 -0.1864  0.7903
 9235TIP3    H251901   0.553   5.935  10.531  0.5888 -0.4727  0.6651
 9236TIP3   OH251902   2.381   4.027   9.672  0.6955  0.2141  0.1982
 9236TIP3    H151903   2.456   3.974   9.696  0.5001  0.7423  2.1238
 9236TIP3    H251904   2.316   3.964   9.640  1.9990 -0.2136 -1.8064
 9237TIP3   OH251905   6.367   0.351  10.277 -0.1298 -0.6411 -0.3495
 9237TIP3    H151906   6.364   0.342  10.181  2.8470 -2.7166 -0.3943
 9237TIP3    H251907   6.424   0.280  10.305 -1.8760 -0.8342  3.1492
 9238TIP3   OH251908   4.685   0.322  10.951 -0.1556  0.7971  0.0660
 9238TIP3    H151909   4.755   0.315  10.886 -1.3013 -1.4268 -1.0079
 9238TIP3    H251910   4.676   0.234  10.988 -1.4441  1.3598  1.2042
 9239TIP3   OH251911   5.114   3.578   9.898 -0.5373  0.0277 -0.5092
 9239TIP3    H151912   5.066   3.631   9.834 -1.3673 -0.0871 -0.0007
 9239TIP3    H251913   5.205   3.579   9.867 -0.5423  1.7043 -0.5354
 9240TIP3   OH251914   6.588   0.852  10.417  0.3089 -0.1245  0.4674
 9240TIP3    H151915   6.660   0.790  10.413 -0.1302 -0.5970 -0.2807
 9240TIP3    H251916   6.625   0.935  10.386  0.1231 -0.7625 -1.5541
 9241TIP3   OH251917   1.165   4.475   9.408 -0.1824  0.5745  0.3740
 9241TIP3    H151918   1.092   4.486   9.347  0.5531 -0.0064 -0.6303
 9241TIP3    H251919   1.135   4.408   9.470 -0.4919  0.3222 -0.0472
 9242TIP3   OH251920   0.743   6.621  10.448 -0.3019  0.2526 -0.6512
 9242TIP3    H151921   0.805   6.690  10.422  0.7942 -0.7787 -0.8926
 9242TIP3    H251922   0.673   6.626  10.384  0.9855 -0.4302 -2.1946
 9243TIP3   OH251923   2.035   3.087  10.597 -0.2269  0.2069 -0.1419
 9243TIP3    H151924   1.941   3.072  10.583 -0.6025  1.6437  0.5520
 9243TIP3    H251925   2.049   3.067  10.690 -0.1116  1.0924  0.0429
 9244TIP3   OH251926   3.270   2.183   9.397  0.0188 -0.4982  0.6469
 9244TIP3    H151927   3.333   2.214   9.332 -0.6600  1.9892  1.0724
 9244TIP3    H251928   3.320   2.121   9.451  1.8215  0.6445  0.3737
 9245TIP3   OH251929   4.396   1.647  11.034 -0.0559 -0.9641  0.1971
 9245TIP3    H151930   4.344   1.575  10.997 -2.2309 -0.0603  1.3146
 9245TIP3    H251931   4.449   1.679  10.960 -2.8596 -0.3981 -1.7099
 9246TIP3   OH251932   6.684   0.866  10.827 -0.0217 -0.7101 -0.1247
 9246TIP3    H151933   6.595   0.870  10.793  0.9065 -1.8696 -3.0033
 9246TIP3    H251934   6.702   0.954  10.859 -2.0667 -0.3868  0.2284
 9247TIP3   OH251935   4.057   6.054  12.843 -0.3993  0.2238 -0.6502
 9247TIP3    H151936   4.057   5.992  12.917 -0.7382 -2.3754 -2.6738
 9247TIP3    H251937   3.966   6.059  12.817 -0.1891  0.5119 -1.3400
 9248TIP3   OH251938   0.647   4.972   9.973 -0.4837  0.6638  0.4942
 9248TIP3    H151939   0.668   4.979   9.880  0.4511 -2.5254  0.3412
 9248TIP3    H251940   0.683   5.051  10.012  0.6821  1.2517 -1.5990
 9249TIP3   OH251941   6.079   6.080  12.003  0.2038  0.0743  0.0929
 9249TIP3    H151942   6.024   6.100  12.079  1.9461 -0.5360  1.5844
 9249TIP3    H251943   6.023   6.028  11.945 -0.8477 -0.3462  1.4465
 9250TIP3   OH251944   4.753   2.504  10.449 -0.0769 -0.0850 -0.0003
 9250TIP3    H151945   4.831   2.448  10.449  0.8840  1.1325 -1.9194
 9250TIP3    H251946   4.787   2.592  10.433 -1.8494  0.4256 -1.3320
 9251TIP3   OH251947   1.679   2.355  11.140  0.5270  0.0711 -0.3853
 9251TIP3    H151948   1.720   2.441  11.143 -2.6001  1.7003 -0.9870
 9251TIP3    H251949   1.586   2.371  11.150 -0.5185 -2.9464 -3.2801
 9252TIP3   OH251950   3.730   5.043   9.510 -0.5109  0.1932 -0.2386
 9252TIP3    H151951   3.702   4.953   9.526 -2.1295  0.5779 -0.7516
 9252TIP3    H251952   3.826   5.038   9.509 -0.5606 -1.7736 -1.6343
 9253TIP3   OH251953   5.714   1.132  10.465  0.5915 -0.5671 -0.7720
 9253TIP3    H151954   5.738   1.046  10.499  3.3229 -0.6294 -2.5155
 9253TIP3    H251955   5.770   1.193  10.514 -1.5030  0.3465  0.6351
 9254TIP3   OH251956   2.342   4.900  11.235  0.2075 -0.4295 -0.4087
 9254TIP3    H151957   2.284   4.970  11.205  0.9472  0.3242 -0.1245
 9254TIP3    H251958   2.430   4.929  11.209  0.6699 -0.6121  0.8899
 9255TIP3   OH251959   6.023   0.147  11.597 -0.1494  1.1873 -0.0072
 9255TIP3    H151960   6.027   0.100  11.680  1.2334  0.4170 -0.4771
 9255TIP3    H251961   6.047   0.237  11.619  2.8529  0.4475  0.0969
 9256TIP3   OH251962   2.620   0.672  12.714  0.0585  0.0623  0.5102
 9256TIP3    H151963   2.701   0.637  12.675  0.2842  0.6313  0.4565
 9256TIP3    H251964   2.558   0.600  12.708  0.9458 -0.8629  1.7709
 9257TIP3   OH251965   4.232   1.517   9.994 -0.3950  0.0710  0.1219
 9257TIP3    H151966   4.224   1.572   9.917  1.9704  0.2083 -0.0999
 9257TIP3    H251967   4.258   1.432   9.961  2.7133  0.6517  0.7670
 9258TIP3   OH251968   0.831   1.726  10.366 -0.1785  0.2381 -0.2114
 9258TIP3    H151969   0.884   1.754  10.291 -0.0938 -0.2968 -0.3608
 9258TIP3    H251970   0.796   1.807  10.402 -0.2081  0.5055 -0.8205
 9259TIP3   OH251971   2.700   2.078  11.188 -0.0773 -0.1219 -0.2567
 9259TIP3    H151972   2.662   2.125  11.262  0.1834 -1.2990  0.6453
 9259TIP3    H251973   2.753   2.144  11.143  0.7436  0.3239  1.3032
 9260TIP3   OH251974   6.536   5.954  12.304 -0.8804  0.2905 -0.0057
 9260TIP3    H151975   6.560   6.039  12.267 -0.1000  0.9957  1.9526
 9260TIP3    H251976   6.609   5.896  12.281  0.4283  1.1483  1.6944
 9261TIP3   OH251977   0.474   4.308  12.081  0.0806  0.5700 -0.0261
 9261TIP3    H151978   0.491   4.292  12.174  0.3640  1.4511  0.0776
 9261TIP3    H251979   0.394   4.360  12.080 -0.2917  0.0015 -0.3134
 9262TIP3   OH251980   4.261   4.671  11.971 -0.3398  0.4030 -0.4716
 9262TIP3    H151981   4.218   4.659  11.886  1.4913  2.0717 -1.7116
 9262TIP3    H251982   4.219   4.749  12.007 -1.6572 -0.7431  0.5763
 9263TIP3   OH251983   3.905   5.960   9.607  0.7493 -0.1774  0.5062
 9263TIP3    H151984   3.986   5.992   9.648  0.3942  0.1287  0.9804
 9263TIP3    H251985   3.849   5.937   9.681  0.1434  0.2591  0.1874
 9264TIP3   OH251986   4.396   1.280  10.802  0.7336  0.0039  0.0866
 9264TIP3    H151987   4.370   1.193  10.832  0.7774 -0.0726 -0.0944
 9264TIP3    H251988   4.346   1.340  10.857  0.4145 -0.1388 -0.0426
 9265TIP3   OH251989   4.737   5.343  10.274 -0.1861 -0.4869  0.2379
 9265TIP3    H151990   4.816   5.329  10.326  0.3857 -0.6870 -0.6646
 9265TIP3    H251991   4.738   5.436  10.253 -0.0262 -0.5515 -0.0384
 9266TIP3   OH251992   2.999   4.588  11.928  0.1266  0.0297 -0.0553
 9266TIP3    H151993   2.950   4.670  11.939 -0.4712 -0.4687  1.2027
 9266TIP3    H251994   3.057   4.584  12.005  1.1087 -0.1002 -0.7826
 9267TIP3   OH251995   1.641   0.080  12.127  0.8122 -0.5391 -0.1061
 9267TIP3    H151996   1.561   0.066  12.178 -0.5871 -2.4391 -2.6517
 9267TIP3    H251997   1.626   0.163  12.082  0.8751 -0.2351  0.4202
 9268TIP3   OH251998   5.580   3.546  10.962  0.2114  0.0055  0.0616
 9268TIP3    H151999   5.573   3.453  10.942  1.2359 -0.0144 -0.3027
 9268TIP3    H252000   5.538   3.556  11.047  0.2447 -0.8213  0.1819
 9269TIP3   OH252001   0.350   1.661   9.809 -0.1084 -0.1294  0.2883
 9269TIP3    H152002   0.419   1.645   9.745  0.9176  1.2290  1.0064
 9269TIP3    H252003   0.320   1.573   9.834 -0.4471 -0.7011 -1.8836
 9270TIP3   OH252004   6.713   1.257   9.600 -0.2235  0.6375 -0.0255
 9270TIP3    H152005   6.696   1.344   9.637  0.2641  0.6258  0.2498
 9270TIP3    H252006   6.781   1.220   9.657 -0.2163  0.1917 -0.3144
 9271TIP3   OH252007   3.558   4.459  11.796  0.1274  0.7841 -1.0208
 9271TIP3    H152008   3.532   4.435  11.707  2.0680  1.3862 -1.8151
 9271TIP3    H252009   3.491   4.421  11.852 -1.1438  0.3779 -2.7377
 9272TIP3   OH252010   2.466   3.995  10.485 -0.5642  0.4770  0.0940
 9272TIP3    H152011   2.526   3.959  10.420  1.0114  0.8693  1.2660
 9272TIP3    H252012   2.380   3.993  10.443  0.0927 -1.0922 -1.2503
 9273TIP3   OH252013   0.779   4.349  13.137 -0.1124  0.0770 -0.1033
 9273TIP3    H152014   0.752   4.439  13.121 -1.0937 -0.1139  0.3779
 9273TIP3    H252015   0.874   4.349  13.123 -0.2912  0.8555 -1.5746
 9274TIP3   OH252016   0.648   0.255  11.136 -0.3068 -0.5325 -0.5687
 9274TIP3    H152017   0.587   0.264  11.208  0.6381 -0.9660  0.3123
 9274TIP3    H252018   0.600   0.206  11.069 -1.1142 -0.3319 -0.1439
 9275TIP3   OH252019   4.364   6.342  12.158 -0.3988 -0.1674  0.0830
 9275TIP3    H152020   4.333   6.252  12.144 -2.5222  0.8401 -2.5372
 9275TIP3    H252021   4.459   6.335  12.155 -0.4642 -1.9551 -3.6851
 9276TIP3   OH252022   2.349   4.691  11.414  0.1301 -0.3698 -0.4012
 9276TIP3    H152023   2.330   4.744  11.337  1.1488  0.0735 -0.3587
 9276TIP3    H252024   2.298   4.732  11.484  1.3226  0.9126 -0.2489
 9277TIP3   OH252025   0.975   5.099   9.664  0.2213  1.2730 -0.1789
 9277TIP3    H152026   0.957   5.039   9.591  0.7818  1.5097 -0.5208
 9277TIP3    H252027   1.036   5.163   9.627 -0.6695  2.2859  0.0745
 9278TIP3   OH252028   2.624   5.132  11.934  0.0081  0.4154 -0.5760
 9278TIP3    H152029   2.683   5.165  12.001  1.0521  0.9226 -1.7112
 9278TIP3    H252030   2.655   5.042  11.917  0.5119  0.6995 -1.2093
 9279TIP3   OH252031   5.237   6.308  10.273 -0.1302  0.0848 -0.1190
 9279TIP3    H152032   5.194   6.392  10.288 -1.4749 -0.6475  0.2893
 9279TIP3    H252033   5.263   6.279  10.360 -0.6750 -0.4290 -0.1210
 9280TIP3   OH252034   2.490   3.251  11.441  0.2465  0.0812  0.2128
 9280TIP3    H152035   2.565   3.286  11.490 -1.5701  2.2776  1.6240
 9280TIP3    H252036   2.470   3.318  11.376  1.1167 -1.7383 -2.0965
 9281TIP3   OH252037   6.480   2.546  12.044  0.3898  0.4026  0.4470
 9281TIP3    H152038   6.499   2.616  12.107 -0.2959 -0.8546  2.1397
 9281TIP3    H252039   6.486   2.465  12.096  0.4255 -0.7435 -1.2668
 9282TIP3   OH252040   4.894   3.363  11.037 -0.2593 -0.5847 -0.5294
 9282TIP3    H152041   4.912   3.353  11.130 -1.2150  4.3607  0.4917
 9282TIP3    H252042   4.968   3.414  11.004 -0.5681 -1.1547 -2.2198
 9283TIP3   OH252043   2.565   3.842   9.719  0.4750  0.4610 -0.4567
 9283TIP3    H152044   2.520   3.760   9.739  0.3659  0.8234  0.8549
 9283TIP3    H252045   2.658   3.819   9.720  0.4181  0.1761 -1.0084
 9284TIP3   OH252046   0.477   5.471  11.387  1.1009 -0.0927 -0.0698
 9284TIP3    H152047   0.453   5.384  11.419  0.4535 -0.2856 -1.0115
 9284TIP3    H252048   0.402   5.498  11.333  1.4059  0.9366 -0.0019
 9285TIP3   OH252049   2.549   2.916  11.668 -0.4187 -0.6241  0.1896
 9285TIP3    H152050   2.572   2.932  11.576 -0.3007 -0.5832  0.2258
 9285TIP3    H252051   2.631   2.931  11.716 -0.7116  0.3282  0.4125
 9286TIP3   OH252052   4.728   5.072   9.472  0.5288 -0.3349  0.3501
 9286TIP3    H152053   4.667   5.010   9.430  0.9320  0.3480 -1.3392
 9286TIP3    H252054   4.674   5.149   9.490  0.5747 -0.2542  0.1468
 9287TIP3   OH252055   2.076   0.047  10.829  0.3074  0.0446 -0.4290
 9287TIP3    H152056   2.107   0.104  10.759  0.0032  1.2326  0.3639
 9287TIP3    H252057   2.035   0.107  10.892  1.6931 -0.8093  1.3800
 9288TIP3   OH252058   5.597   4.578   9.819 -0.2932 -0.5471 -0.4899
 9288TIP3    H152059   5.573   4.576   9.911  0.2383  1.4349 -0.2746
 9288TIP3    H252060   5.607   4.486   9.795 -1.8559 -1.1704  1.0262
 9289TIP3   OH252061   4.666   5.073  12.316 -0.2701 -0.1625  0.4200
 9289TIP3    H152062   4.711   5.036  12.239  1.2718  0.6243  0.9047
 9289TIP3    H252063   4.639   5.160  12.288  1.1002  0.4778  1.0285
 9290TIP3   OH252064   2.134   6.698  10.298 -0.1226  0.6003 -0.7099
 9290TIP3    H152065   2.210   6.643  10.312 -0.4310 -0.2658 -2.2268
 9290TIP3    H252066   2.163   6.786  10.321  0.8680  0.0541  0.1805
 9291TIP3   OH252067   5.259   5.654   9.596  0.2727 -0.3130  0.2059
 9291TIP3    H152068   5.180   5.659   9.649  0.9841  1.7468  1.1981
 9291TIP3    H252069   5.322   5.606   9.650  0.4180  0.1311  0.4351
 9292TIP3   OH252070   1.183   5.798  10.171 -0.1428 -0.2390 -0.1321
 9292TIP3    H152071   1.132   5.876  10.147  0.1741  0.1674  0.5126
 9292TIP3    H252072   1.119   5.739  10.210 -0.5945 -0.7501 -1.5655
 9293TIP3   OH252073   4.227   0.404  10.386 -0.1141 -0.0062 -0.1057
 9293TIP3    H152074   4.212   0.421  10.479  1.0177 -0.9722  0.2702
 9293TIP3    H252075   4.163   0.460  10.342 -0.3200  0.8679  1.2275
 9294TIP3   OH252076   1.893   5.660  10.638 -0.1565  0.0790  0.7614
 9294TIP3    H152077   1.901   5.750  10.670 -0.3770  0.7482 -0.9530
 9294TIP3    H252078   1.903   5.667  10.543 -0.3342 -1.6970  0.5721
 9295TIP3   OH252079   5.703   0.094  10.226 -0.4791  0.0191 -0.3125
 9295TIP3    H152080   5.788   0.132  10.248 -0.4046 -1.2269  1.7152
 9295TIP3    H252081   5.640   0.161  10.250 -0.2207 -0.2021  1.0222
 9296TIP3   OH252082   4.522   0.064  12.668 -0.0554  0.1584  0.5167
 9296TIP3    H152083   4.578   0.106  12.733 -0.8532  1.2518  0.5237
 9296TIP3    H252084   4.484  -0.011  12.714 -1.1126  1.2840  1.5564
 9297TIP3   OH252085   4.290   2.337  10.461  0.5489 -0.0951 -0.2341
 9297TIP3    H152086   4.335   2.420  10.446 -0.1905  0.0340 -2.1491
 9297TIP3    H252087   4.221   2.357  10.524 -0.0590  0.9594 -1.1902
 9298TIP3   OH252088   3.536   5.376  11.492 -0.6978 -0.5199 -0.0022
 9298TIP3    H152089   3.474   5.310  11.462 -0.2961 -1.3533  0.9288
 9298TIP3    H252090   3.505   5.400  11.580  0.5961 -1.3926  0.7294
 9299TIP3   OH252091   6.209   3.834  12.059  0.3142 -0.4186  0.9288
 9299TIP3    H152092   6.232   3.876  12.142 -0.8218 -2.2508  2.2582
 9299TIP3    H252093   6.221   3.741  12.075  0.8684 -0.7805 -1.2665
 9300TIP3   OH252094   6.386   1.410  11.303 -0.1788 -1.0003  0.0716
 9300TIP3    H152095   6.437   1.410  11.384 -0.1620 -0.8427  0.0628
 9300TIP3    H252096   6.451   1.400  11.234 -0.0311  0.3440 -0.0072
 9301TIP3   OH252097   5.358   6.206  11.227  0.8272 -0.1980  0.2424
 9301TIP3    H152098   5.292   6.259  11.272  0.5140 -0.4783  0.1168
 9301TIP3    H252099   5.425   6.268  11.201  0.4864  0.1296  0.1373
 9302TIP3   OH252100   3.683   0.258  10.055 -0.5891  0.4784 -0.1465
 9302TIP3    H152101   3.617   0.228  10.118  0.4764 -0.0901  0.7342
 9302TIP3    H252102   3.632   0.299   9.985 -1.7923  2.0260  1.5199
 9303TIP3   OH252103   1.065   3.556  11.324 -0.0204 -0.0436 -0.4713
 9303TIP3    H152104   1.154   3.529  11.348 -0.1250 -0.5793 -0.6748
 9303TIP3    H252105   1.074   3.592  11.236  0.6811  3.5325  0.8575
 9304TIP3   OH252106   5.637   2.311   9.234 -0.0640  0.0517  0.4636
 9304TIP3    H152107   5.696   2.348   9.300  0.9002  0.6540 -0.6990
 9304TIP3    H252108   5.580   2.384   9.210  0.7926  0.3786 -0.6714
 9305TIP3   OH252109   1.465   0.393  11.140  0.0189 -0.0302  0.1394
 9305TIP3    H152110   1.489   0.467  11.084 -0.4243  0.3885  0.4915
 9305TIP3    H252111   1.516   0.407  11.220  0.9768 -0.8581 -0.3050
 9306TIP3   OH252112   2.260   5.681  11.016 -0.3272 -0.1044 -0.3407
 9306TIP3    H152113   2.304   5.659  11.098 -0.2532 -2.5725 -0.9612
 9306TIP3    H252114   2.167   5.669  11.034 -0.2344 -1.9025 -0.9086
 9307TIP3   OH252115   2.444   3.849  13.167  0.0787  0.2728 -0.2852
 9307TIP3    H152116   2.484   3.935  13.164  1.7123 -0.4380 -0.1209
 9307TIP3    H252117   2.381   3.854  13.238  0.6123  1.1544  0.1443
 9308TIP3   OH252118   4.943   3.780  10.820 -0.0323 -0.8162  0.4275
 9308TIP3    H152119   4.926   3.861  10.869 -1.6432 -0.5423 -0.5168
 9308TIP3    H252120   4.882   3.716  10.858  0.6533 -1.3695  0.6125
 9309TIP3   OH252121   2.914   6.134  11.349 -0.1022 -0.0442 -1.0160
 9309TIP3    H152122   2.986   6.074  11.367  1.4944  1.9141 -0.5908
 9309TIP3    H252123   2.909   6.137  11.253 -0.4234 -1.0682 -1.0439
 9310TIP3   OH252124   6.371   3.739   9.314 -0.5294  0.0954  0.0274
 9310TIP3    H152125   6.303   3.763   9.376 -0.4201  1.7341 -0.4207
 9310TIP3    H252126   6.441   3.701   9.367 -0.7626  0.7453  0.8230
 9311TIP3   OH252127   2.351   4.744   9.517 -0.4758 -0.6216 -0.2215
 9311TIP3    H152128   2.356   4.700   9.602  0.8866  1.1746  0.7061
 9311TIP3    H252129   2.392   4.829   9.532 -1.1377  0.1532 -2.4447
 9312TIP3   OH252130   4.487   6.198  11.883  0.1766  0.4785 -0.2713
 9312TIP3    H152131   4.526   6.146  11.953 -1.6812  0.3279  0.7061
 9312TIP3    H252132   4.393   6.198  11.902 -0.1194  2.4319 -1.4313
 9313TIP3   OH252133   5.410   3.217  12.166 -0.0831  0.6343 -0.0007
 9313TIP3    H152134   5.377   3.253  12.084 -0.7914  1.2322  0.5310
 9313TIP3    H252135   5.452   3.134  12.141 -0.4848  0.6972 -0.9217
 9314TIP3   OH252136   3.641   5.192  12.321  0.1924  0.0493 -0.0638
 9314TIP3    H152137   3.590   5.140  12.258  0.5625  0.0434 -0.3597
 9314TIP3    H252138   3.676   5.264  12.269 -0.1348  0.4784  0.3002
 9315TIP3   OH252139   1.050   2.524  11.099  0.2766  0.4197  0.4505
 9315TIP3    H152140   1.135   2.491  11.126 -1.0834 -1.3714  3.0505
 9315TIP3    H252141   1.003   2.447  11.066 -0.6486  1.1624 -0.0318
 9316TIP3   OH252142   6.680   1.935  10.372 -0.4112 -0.2444  0.4143
 9316TIP3    H152143   6.681   2.018  10.419 -0.9585 -0.3873  0.6867
 9316TIP3    H252144   6.670   1.960  10.280 -0.6107 -0.0056  0.4986
 9317TIP3   OH252145   1.211   2.977  11.058 -0.1035  0.3399  0.4287
 9317TIP3    H152146   1.203   3.038  11.131  0.1713 -0.7121  1.3615
 9317TIP3    H252147   1.181   2.893  11.093 -0.5531 -0.0593 -0.8502
 9318TIP3   OH252148   2.190   2.167  11.304 -0.0827 -0.6837 -0.5192
 9318TIP3    H152149   2.225   2.182  11.217 -2.4009 -0.9364 -1.5632
 9318TIP3    H252150   2.160   2.253  11.334  1.3235 -0.4617  0.3841
 9319TIP3   OH252151   6.086   0.901   9.961  0.5345  0.1967 -0.0177
 9319TIP3    H152152   6.005   0.920   9.912  0.7871 -0.3237 -0.6464
 9319TIP3    H252153   6.056   0.889  10.052  0.1214  1.6592  0.0747
 9320TIP3   OH252154   6.604   2.123  11.173 -0.2368  0.6787 -0.8162
 9320TIP3    H152155   6.684   2.111  11.225 -0.1755  0.8681 -0.8619
 9320TIP3    H252156   6.611   2.058  11.103 -0.7131 -0.1256 -0.1281
 9321TIP3   OH252157   4.399   5.791  12.590 -0.1190  0.3764 -0.5658
 9321TIP3    H152158   4.307   5.783  12.616 -0.0578 -1.0382 -0.7369
 9321TIP3    H252159   4.417   5.712  12.539  1.5790 -0.0942  0.6800
 9322TIP3   OH252160   5.939   6.463  11.513  0.4270 -0.5933 -0.0417
 9322TIP3    H152161   5.992   6.526  11.464  0.6406 -0.5803  0.1996
 9322TIP3    H252162   5.979   6.378  11.494  1.1441 -0.4888  0.8916
 9323TIP3   OH252163   1.666   3.477   9.835 -0.1138  0.4411 -0.0569
 9323TIP3    H152164   1.732   3.416   9.867 -1.0181 -0.0563  0.9248
 9323TIP3    H252165   1.607   3.425   9.782 -2.0081 -0.0529  2.3488
 9324TIP3   OH252166   6.622   0.000  11.277  0.0805 -0.4157 -0.0238
 9324TIP3    H152167   6.583  -0.076  11.233 -1.8303 -0.1611  1.1151
 9324TIP3    H252168   6.634   0.065  11.207 -3.7587  0.3406 -0.2193
 9325TIP3   OH252169   0.785   1.006  11.263  0.1822 -0.6389  0.4184
 9325TIP3    H152170   0.876   0.983  11.243 -0.0166 -1.3327  0.2743
 9325TIP3    H252171   0.734   0.967  11.191 -0.1329  0.7736 -0.1648
 9326TIP3   OH252172   0.402   3.851  10.283  0.1075  0.3584 -0.0517
 9326TIP3    H152173   0.375   3.921  10.343 -0.2340  1.3848 -1.3633
 9326TIP3    H252174   0.421   3.896  10.201 -0.2776 -1.1220 -0.9815
 9327TIP3   OH252175   3.939   5.595  10.930 -0.5224 -0.3718 -0.6551
 9327TIP3    H152176   3.914   5.664  10.991  1.5146  1.0447 -1.3141
 9327TIP3    H252177   3.985   5.641  10.860 -0.2943 -2.2771 -1.8189
 9328TIP3   OH252178   4.981   3.676   9.648  0.2768  0.6802  0.2649
 9328TIP3    H152179   4.905   3.674   9.589 -1.3895 -0.6371  2.2943
 9328TIP3    H252180   5.007   3.585   9.655 -1.1315  0.3909  3.3222
 9329TIP3   OH252181   3.639   3.690  10.735 -0.1085 -0.5405  0.0186
 9329TIP3    H152182   3.693   3.768  10.744 -0.6758  0.0316 -1.2651
 9329TIP3    H252183   3.611   3.670  10.825  0.6642  0.2687  0.4562
 9330TIP3   OH252184   0.839   2.726  10.389 -0.6420 -0.0110 -0.0671
 9330TIP3    H152185   0.775   2.728  10.461 -0.1124  0.8647  0.3881
 9330TIP3    H252186   0.919   2.693  10.429 -1.1963 -2.7807 -0.9996
 9331TIP3   OH252187   6.515   6.544  11.690  0.0814  0.0166  0.1148
 9331TIP3    H152188   6.453   6.482  11.726  0.9760 -0.7068  0.4576
 9331TIP3    H252189   6.575   6.562  11.762  2.0126 -1.5870 -0.9769
 9332TIP3   OH252190   0.534   5.880  10.222  0.2971  0.0913  0.9932
 9332TIP3    H152191   0.580   5.831  10.155 -0.0050  0.0680  0.7984
 9332TIP3    H252192   0.560   5.971  10.208  0.8071 -0.0001  1.3143
 9333TIP3   OH252193   3.108   5.950  10.906  0.0517 -0.0320 -0.0543
 9333TIP3    H152194   3.072   5.944  10.818  0.3988  0.7086 -0.2479
 9333TIP3    H252195   3.067   6.028  10.944  1.2371  0.6704 -0.1846
 9334TIP3   OH252196   3.602   6.073  11.942 -0.4915  0.0084  0.3649
 9334TIP3    H152197   3.512   6.085  11.974 -0.6027  1.9768 -0.5245
 9334TIP3    H252198   3.648   6.152  11.971  1.4599 -1.6919  2.2250
 9335TIP3   OH252199   1.339   5.072  10.841  0.4585 -0.2985 -0.2178
 9335TIP3    H152200   1.332   5.028  10.757  1.8823  0.5607 -0.8225
 9335TIP3    H252201   1.248   5.082  10.871 -0.0966 -0.2917 -1.8293
 9336TIP3   OH252202   6.736   4.189   9.605 -0.3134 -0.0106 -0.4064
 9336TIP3    H152203   6.719   4.169   9.513  1.1555  2.6628 -1.3634
 9336TIP3    H252204   6.662   4.150   9.652 -1.5668 -0.6972 -2.7845
 9337TIP3   OH252205   0.635   3.965  10.766  0.2691 -0.2146 -0.0854
 9337TIP3    H152206   0.623   3.870  10.769  0.3935 -0.2391 -0.3351
 9337TIP3    H252207   0.551   4.000  10.796  0.0177 -0.3994 -0.5595
 9338TIP3   OH252208   5.196   2.191  10.665 -0.0068 -0.3382 -0.3378
 9338TIP3    H152209   5.233   2.235  10.589  2.1772  1.3520  1.5825
 9338TIP3    H252210   5.118   2.242  10.687 -0.7878 -0.9779 -1.5072
 9339TIP3   OH252211   4.886   6.375  10.920  0.0775  0.1992  0.0710
 9339TIP3    H152212   4.842   6.324  10.852 -0.6426 -1.5332  1.7513
 9339TIP3    H252213   4.962   6.323  10.944  1.3575  1.6774 -0.6250
 9340TIP3   OH252214   2.530   0.710  10.056 -0.7209 -0.4366 -0.3646
 9340TIP3    H152215   2.444   0.751  10.069 -0.1182  0.9447 -0.4873
 9340TIP3    H252216   2.558   0.741   9.969  0.8461  1.0157  0.5766
 9341TIP3   OH252217   6.467   1.637  10.638 -0.0616  0.3500  0.2245
 9341TIP3    H152218   6.409   1.648  10.713 -0.9684 -0.7691 -0.2907
 9341TIP3    H252219   6.499   1.548  10.645 -1.5394 -0.3858 -1.6397
 9342TIP3   OH252220   5.934   1.234   9.825 -0.0635 -0.2913  0.2934
 9342TIP3    H152221   6.013   1.231   9.878 -0.0626  1.4464  0.4358
 9342TIP3    H252222   5.959   1.281   9.746 -0.6884 -0.7043 -0.1674
 9343TIP3   OH252223   1.405   0.147  11.345  0.0019  0.1620  0.4059
 9343TIP3    H152224   1.314   0.117  11.347 -0.3806  1.2573  1.5356
 9343TIP3    H252225   1.449   0.090  11.282 -1.8958  0.8490 -1.6551
 9344TIP3   OH252226   5.519   5.294   9.387 -0.6633  0.5188  0.0364
 9344TIP3    H152227   5.446   5.354   9.375 -1.2290 -0.2155 -0.3009
 9344TIP3    H252228   5.483   5.224   9.443 -0.8233 -0.8542 -1.7018
 9345TIP3   OH252229   6.134   5.203  10.261 -0.0820  0.0088 -0.6440
 9345TIP3    H152230   6.138   5.142  10.335 -0.2669  2.4001  1.4793
 9345TIP3    H252231   6.215   5.254  10.269 -0.7998  1.2679 -1.1997
 9346TIP3   OH252232   2.921   5.054   9.482 -0.0611  0.0770  0.6758
 9346TIP3    H152233   2.977   5.124   9.446  0.4851 -1.8658 -2.7247
 9346TIP3    H252234   2.832   5.091   9.479  0.1617  0.5778 -1.4592
 9347TIP3   OH252235   2.207   0.011  12.571  1.2318  1.0258  0.0515
 9347TIP3    H152236   2.199  -0.010  12.664  0.3013  1.2939  0.0431
 9347TIP3    H252237   2.242  -0.068  12.531  2.6566  1.2566  0.7810
 9348TIP3   OH252238   0.653   3.548  10.493 -0.1679  0.1787 -0.1467
 9348TIP3    H152239   0.613   3.534  10.408 -1.6807 -1.4166  0.7535
 9348TIP3    H252240   0.599   3.615  10.535 -1.0887 -0.9337  0.5162
 9349TIP3   OH252241   6.712   1.083  11.405  0.6104  0.1773  0.2709
 9349TIP3    H152242   6.674   1.032  11.476 -0.8474  1.0787  0.1681
 9349TIP3    H252243   6.777   1.025  11.367  0.8088 -0.6381  1.7826
 9350TIP3   OH252244   6.384   3.610  10.127 -0.1979  0.0046 -0.3077
 9350TIP3    H152245   6.454   3.593  10.189  0.8707  3.6381 -0.2666
 9350TIP3    H252246   6.325   3.535  10.135  1.8128 -1.4534  2.2800
 9351TIP3   OH252247   6.614   2.862  11.410  0.1057  0.3534 -0.5315
 9351TIP3    H152248   6.642   2.927  11.346 -1.2932 -0.3449 -1.8903
 9351TIP3    H252249   6.571   2.794  11.359 -0.5273 -0.5232  1.0893
 9352TIP3   OH252250   3.650   4.668  12.320 -0.0231  0.0575  0.2281
 9352TIP3    H152251   3.646   4.574  12.334 -2.0193 -0.2143 -1.6336
 9352TIP3    H252252   3.589   4.705  12.383 -0.4461 -0.0767 -0.0950
 9353TIP3   OH252253   5.843   4.621  11.867  0.2393  0.3450  0.3676
 9353TIP3    H152254   5.907   4.632  11.937 -0.2263  0.9170  0.7078
 9353TIP3    H252255   5.885   4.660  11.790 -0.0056  1.4485  0.7735
 9354TIP3   OH252256   5.858   4.847   9.785 -0.4253  0.4549  0.7482
 9354TIP3    H152257   5.803   4.785   9.738  1.7742 -0.0247 -1.3859
 9354TIP3    H252258   5.883   4.802   9.866  2.1353 -2.1557 -1.2887
 9355TIP3   OH252259   0.051   5.194   9.530  0.3240 -0.0412  0.4860
 9355TIP3    H152260  -0.001   5.123   9.568  1.1861 -1.3377 -0.6504
 9355TIP3    H252261   0.007   5.274   9.559 -1.4569 -1.0524  0.7436
 9356TIP3   OH252262   2.294   4.347  11.587 -0.3353  0.3490  0.0873
 9356TIP3    H152263   2.366   4.398  11.551 -1.2313  1.1335 -0.6522
 9356TIP3    H252264   2.232   4.338  11.514 -2.4014  2.3432  1.4432
 9357TIP3   OH252265   0.601   3.078  11.537  0.0349  0.2475 -0.0010
 9357TIP3    H152266   0.632   2.988  11.533 -0.2119  0.1522  0.1688
 9357TIP3    H252267   0.509   3.070  11.563  0.0818  0.5563  0.2698
 9358TIP3   OH252268   0.165   4.806  12.555 -0.2456  0.1893 -0.4559
 9358TIP3    H152269   0.152   4.894  12.590 -1.4954  0.3883 -1.3387
 9358TIP3    H252270   0.247   4.776  12.595 -0.0963  1.5192  0.3046
 9359TIP3   OH252271   2.346   3.439   9.847 -0.3318 -0.2128  0.5683
 9359TIP3    H152272   2.253   3.451   9.832 -0.1681  0.2148 -0.1386
 9359TIP3    H252273   2.369   3.362   9.796 -0.3461 -0.4843  0.9638
 9360TIP3   OH252274   0.860   2.167  12.095  0.4301 -0.1917  0.0618
 9360TIP3    H152275   0.887   2.076  12.082  0.8354 -0.0033 -0.4351
 9360TIP3    H252276   0.766   2.161  12.112  0.3414 -0.6613 -0.5425
 9361TIP3   OH252277   1.624   3.146  11.493 -0.1291 -0.3154 -0.5407
 9361TIP3    H152278   1.675   3.124  11.571 -4.4556  0.8764  2.9826
 9361TIP3    H252279   1.604   3.062  11.453  0.5466 -1.1337  0.7642
 9362TIP3   OH252280   5.390   5.555   9.984 -0.5955  0.1220  0.1244
 9362TIP3    H152281   5.295   5.542   9.991 -0.8876  1.7605 -0.3475
 9362TIP3    H252282   5.411   5.525   9.896 -0.3443 -1.8380  0.8015
 9363TIP3   OH252283   6.390   1.823  12.416  0.3156  0.2278 -0.0364
 9363TIP3    H152284   6.295   1.834  12.420  0.3119  0.3345 -0.4281
 9363TIP3    H252285   6.403   1.754  12.351  0.5342  0.5811 -0.3698
 9364TIP3   OH252286   1.423   4.423  10.847  0.3921  0.0587 -0.4201
 9364TIP3    H152287   1.442   4.499  10.902  0.4490 -0.3553  0.1487
 9364TIP3    H252288   1.426   4.349  10.908  2.1137 -0.6200 -1.2744
 9365TIP3   OH252289   3.272   1.298  12.882  0.1906 -0.1144  0.3781
 9365TIP3    H152290   3.252   1.206  12.898 -1.0330 -0.0319 -0.5143
 9365TIP3    H252291   3.320   1.298  12.799 -0.6828  0.1033 -0.1481
 9366TIP3   OH252292   0.371   5.177  10.539 -0.1696 -0.0107 -0.2502
 9366TIP3    H152293   0.302   5.192  10.473  0.5373  1.0283 -0.7883
 9366TIP3    H252294   0.433   5.248  10.525  1.4715 -1.3917 -0.3460
 9367TIP3   OH252295   2.938   6.448  10.462 -0.3056  0.2625  0.5996
 9367TIP3    H152296   2.961   6.381  10.526  0.5439 -0.7973 -0.7679
 9367TIP3    H252297   2.905   6.521  10.514  0.3784 -0.5606  2.2352
 9368TIP3   OH252298   3.434   3.345   9.932 -0.4261  0.1020 -0.0218
 9368TIP3    H152299   3.467   3.255   9.924 -0.2348  0.3198 -2.7945
 9368TIP3    H252300   3.339   3.336   9.923 -0.3931  0.1802 -0.4648
 9369TIP3   OH252301   6.568   6.700  10.599 -0.0709 -0.6108 -0.4828
 9369TIP3    H152302   6.628   6.648  10.652 -0.4333 -0.3146  0.2205
 9369TIP3    H252303   6.565   6.654  10.515 -0.2732 -1.6352  0.0744
 9370TIP3   OH252304   3.222   1.502  12.025  0.3024 -0.5086  0.1780
 9370TIP3    H152305   3.221   1.597  12.028  0.4538 -0.4264 -1.3655
 9370TIP3    H252306   3.163   1.480  11.953  0.2039 -1.5879  0.5680
 9371TIP3   OH252307   2.233   0.684  11.047  0.9756 -0.5369 -0.0998
 9371TIP3    H152308   2.254   0.618  10.980  0.1763  0.2709 -1.1641
 9371TIP3    H252309   2.316   0.729  11.062  1.2619 -1.0154 -0.2098
 9372TIP3   OH252310   5.640   5.061  10.224 -0.2104 -0.2286  0.0034
 9372TIP3    H152311   5.591   5.030  10.299 -0.6678  0.6186  0.0733
 9372TIP3    H252312   5.648   5.156  10.238  1.3886 -0.3277 -0.0412
 9373TIP3   OH252313   4.153   6.042   9.748 -0.8392  0.1458 -0.6032
 9373TIP3    H152314   4.173   5.958   9.789 -0.4298 -0.0671 -1.2251
 9373TIP3    H252315   4.225   6.099   9.774 -0.3541 -0.1065 -1.3419
 9374TIP3   OH252316   5.564   0.353  11.065  0.3107 -0.1169 -0.2899
 9374TIP3    H152317   5.571   0.407  10.986 -0.6091 -0.4767 -0.6316
 9374TIP3    H252318   5.584   0.413  11.137 -0.0226  0.5063 -0.7082
 9375TIP3   OH252319   6.741   6.044  11.943  0.6450 -0.2399  0.6050
 9375TIP3    H152320   6.800   6.090  11.884  0.3197 -0.1994  0.3091
 9375TIP3    H252321   6.715   5.966  11.895 -0.2751  0.2101  0.3625
 9376TIP3   OH252322   4.691   4.202   9.939 -0.1507 -0.1091  0.3278
 9376TIP3    H152323   4.664   4.156  10.018  1.0586  0.3963  1.0726
 9376TIP3    H252324   4.745   4.275   9.971 -1.1903  1.2498 -0.8579
 9377TIP3   OH252325   2.045   3.954  10.264 -0.4708  0.7657 -0.8557
 9377TIP3    H152326   1.956   3.928  10.284  0.6652 -1.9674  1.2133
 9377TIP3    H252327   2.050   3.953  10.168 -2.1654 -0.9072 -0.9734
 9378TIP3   OH252328   0.277   2.491  11.445  0.1380 -0.2301  0.5561
 9378TIP3    H152329   0.329   2.500  11.365  1.9673 -3.9156  1.0937
 9378TIP3    H252330   0.311   2.558  11.504  0.6867  0.7184 -0.7884
 9379TIP3   OH252331   6.421   3.502  10.991 -0.4261 -0.3412 -0.1933
 9379TIP3    H152332   6.449   3.568  10.927 -0.6529  0.8779  0.9348
 9379TIP3    H252333   6.419   3.420  10.941  1.0817  0.2645 -1.3133
 9380TIP3   OH252334   3.627   2.581  11.730  0.4006 -0.5252  0.6849
 9380TIP3    H152335   3.644   2.616  11.817 -1.9704  0.7246  0.7330
 9380TIP3    H252336   3.544   2.534  11.739  0.0941 -0.3486 -0.8995
 9381TIP3   OH252337   0.540   4.544  10.689 -0.0711 -0.2192  0.0832
 9381TIP3    H152338   0.540   4.469  10.749  3.1275  0.3928  1.0032
 9381TIP3    H252339   0.608   4.524  10.625  1.5568  2.2498  0.9170
 9382TIP3   OH252340   0.699   5.973   9.716  0.0060 -0.3558  0.2501
 9382TIP3    H152341   0.749   5.967   9.634  0.1918 -3.6430  0.4378
 9382TIP3    H252342   0.617   5.927   9.696  0.5179 -2.2351  2.1331
 9383TIP3   OH252343   1.873   3.286   9.910 -1.0432  0.3764 -0.1594
 9383TIP3    H152344   1.902   3.251   9.994 -1.6821  0.6944  0.1973
 9383TIP3    H252345   1.856   3.208   9.856 -1.6769  0.1428  0.3627
 9384TIP3   OH252346   2.822   2.967  11.715 -0.2429 -0.1384  0.0212
 9384TIP3    H152347   2.913   2.994  11.716 -0.6571  1.4662  1.8083
 9384TIP3    H252348   2.825   2.872  11.703  1.6859 -0.1930  0.6060
 9385TIP3   OH252349   3.856   1.925  11.500 -0.0823  0.2384  0.3574
 9385TIP3    H152350   3.774   1.903  11.455 -2.4250  2.7397  3.0233
 9385TIP3    H252351   3.896   1.992  11.446 -0.0469 -0.5866 -0.6746
 9386TIP3   OH252352   5.491   2.232  10.863 -0.1188  0.4565  0.1981
 9386TIP3    H152353   5.458   2.147  10.835 -0.4413  1.1835 -1.7418
 9386TIP3    H252354   5.586   2.226  10.852 -0.2624  0.8314 -1.4488
 9387TIP3   OH252355   5.784   2.180  10.801  0.3746 -0.0645 -0.3108
 9387TIP3    H152356   5.785   2.184  10.706  1.2300  0.1499 -0.2953
 9387TIP3    H252357   5.856   2.123  10.824  0.6552  0.4936  0.2345
 9388TIP3   OH252358   5.185   3.692  12.272 -0.0092 -0.1609 -0.1154
 9388TIP3    H152359   5.181   3.635  12.349  0.0851  2.1514  1.6991
 9388TIP3    H252360   5.162   3.779  12.304  0.6475  1.0344 -2.5885
 9389TIP3   OH252361   4.015   2.432   9.293 -0.1950  0.0710 -0.1779
 9389TIP3    H152362   4.101   2.393   9.310 -0.1248 -0.2065 -1.1259
 9389TIP3    H252363   3.987   2.393   9.211 -1.3101  0.0459  0.2005
 9390TIP3   OH252364   2.267   3.727  12.492  0.0550 -0.5194 -0.1863
 9390TIP3    H152365   2.203   3.789  12.525 -0.1127 -0.9644  0.3513
 9390TIP3    H252366   2.248   3.719  12.399  0.5848  0.8173 -0.4194
 9391TIP3   OH252367   2.756   0.526  10.086  0.1454 -0.1694  0.1742
 9391TIP3    H152368   2.751   0.621  10.091  3.0402  0.2116 -1.6392
 9391TIP3    H252369   2.806   0.500  10.163  0.8439  0.0036 -0.2117
 9392TIP3   OH252370   5.389   5.081  11.327 -0.5590  0.1760  0.4062
 9392TIP3    H152371   5.355   5.134  11.255 -0.4433 -0.7108 -0.3229
 9392TIP3    H252372   5.386   5.139  11.404 -0.4419  1.2235 -0.3564
 9393TIP3   OH252373   2.400   6.251  11.151  0.0411  0.7187  0.1061
 9393TIP3    H152374   2.414   6.337  11.109  0.4915  0.7804  0.3804
 9393TIP3    H252375   2.305   6.243  11.156 -0.1209 -0.1293 -2.6693
 9394TIP3   OH252376   5.287   2.310  10.432 -0.2594 -0.2959  0.6104
 9394TIP3    H152377   5.367   2.321  10.380  0.3213 -0.4453  1.4645
 9394TIP3    H252378   5.230   2.257  10.377  0.1241  0.0255 -0.1131
 9395TIP3   OH252379   4.622   5.491  10.743  0.1134 -0.0959  0.7595
 9395TIP3    H152380   4.532   5.465  10.724  0.1169  0.4104  0.0540
 9395TIP3    H252381   4.625   5.585  10.725  1.0770 -0.3209 -0.3655
 9396TIP3   OH252382   3.519   4.036  11.813 -0.1436 -0.5841  0.0640
 9396TIP3    H152383   3.440   4.061  11.766  0.4272 -0.4521 -0.8382
 9396TIP3    H252384   3.521   4.093  11.890  0.1210  0.8061 -0.9465
 9397TIP3   OH252385   0.050   3.510  10.319 -0.1326 -0.6583 -0.4412
 9397TIP3    H152386  -0.011   3.437  10.327  0.0051 -0.6559  1.0835
 9397TIP3    H252387  -0.003   3.583  10.287 -0.5524 -1.1022 -0.7644
 9398TIP3   OH252388   3.950   1.863  10.688 -0.1688  0.2705 -0.0777
 9398TIP3    H152389   3.965   1.804  10.615 -0.6388  0.0655 -0.0132
 9398TIP3    H252390   3.994   1.945  10.663  2.3670 -0.7215  0.7549
 9399TIP3   OH252391   1.799   1.356  11.744 -0.0711  0.1670 -0.0932
 9399TIP3    H152392   1.760   1.436  11.779  0.7782  0.2888  0.6264
 9399TIP3    H252393   1.832   1.381  11.658  0.2816  0.6260  0.1698
 9400TIP3   OH252394   5.990   3.648  12.663 -0.0055 -0.1906  0.7275
 9400TIP3    H152395   6.078   3.649  12.625 -1.0665 -0.4066 -1.8964
 9400TIP3    H252396   5.955   3.562  12.640 -0.1085 -1.1728  3.9549
 9401TIP3   OH252397   1.822   6.629  12.240 -0.3581  0.3804  0.2322
 9401TIP3    H152398   1.896   6.676  12.278  1.6391 -0.9269 -1.8324
 9401TIP3    H252399   1.769   6.697  12.198  1.7892  1.0377 -1.6194
 9402TIP3   OH252400   6.059   2.969   9.850 -0.5921  0.1827 -0.6846
 9402TIP3    H152401   5.979   3.005   9.888  1.4461  2.3545  1.9570
 9402TIP3    H252402   6.051   2.874   9.860 -2.8741  0.3316 -0.7228
 9403TIP3   OH252403   1.768   2.612  11.127 -0.0799 -0.4314  0.2622
 9403TIP3    H152404   1.709   2.677  11.089  0.0969 -1.1099 -1.2654
 9403TIP3    H252405   1.792   2.647  11.212 -2.3281  0.0630  0.7322
 9404TIP3   OH252406   4.983   1.020   9.531  0.4354  0.0515 -0.4001
 9404TIP3    H152407   4.990   1.067   9.614  0.2561 -0.9250  0.1862
 9404TIP3    H252408   4.910   0.959   9.544 -1.0096  1.2952 -1.9899
 9405TIP3   OH252409   0.571   5.815  11.062  0.1435  0.8652  0.0553
 9405TIP3    H152410   0.494   5.788  11.012 -0.8861  2.1229  0.8863
 9405TIP3    H252411   0.623   5.865  10.999 -0.7109  1.6914 -0.0269
 9406TIP3   OH252412   1.916   2.597  11.654  0.5225 -0.4792  0.8118
 9406TIP3    H152413   1.996   2.647  11.637  1.2725 -1.6823  0.6259
 9406TIP3    H252414   1.942   2.534  11.721  0.0283 -1.5564  0.0223
 9407TIP3   OH252415   3.157   5.330  10.968  0.2140  1.0462  0.2439
 9407TIP3    H152416   3.122   5.318  11.057 -0.6787  0.3823 -0.1804
 9407TIP3    H252417   3.246   5.296  10.973  0.5147  1.9150  1.1252
 9408TIP3   OH252418   4.083   2.087  12.362 -0.5187 -0.5114 -0.4731
 9408TIP3    H152419   3.989   2.082  12.344 -0.9153 -0.6660  1.4058
 9408TIP3    H252420   4.115   1.997  12.351 -0.4691 -0.3700 -1.5957
 9409TIP3   OH252421   2.453   6.296   9.429 -0.2586  0.2516 -0.3966
 9409TIP3    H152422   2.441   6.364   9.362  1.5012  1.1486  0.1353
 9409TIP3    H252423   2.547   6.292   9.442 -0.4834 -0.7906  1.1531
 9410TIP3   OH252424   5.799   3.657  12.843 -0.8487  0.6443 -0.7605
 9410TIP3    H152425   5.825   3.729  12.901 -1.7453  1.0067 -0.7996
 9410TIP3    H252426   5.870   3.651  12.779 -0.6023  1.2666 -0.5489
 9411TIP3   OH252427   6.036   3.247  11.416  0.3091  0.5431 -0.1024
 9411TIP3    H152428   6.097   3.259  11.489 -1.0508  1.3507  0.9485
 9411TIP3    H252429   5.995   3.333  11.404 -1.8845 -0.3669  0.3942
 9412TIP3   OH252430   1.538   2.649  11.501 -0.2635  0.3977  0.3535
 9412TIP3    H152431   1.538   2.698  11.583  0.2301  0.8411  0.0982
 9412TIP3    H252432   1.465   2.588  11.509 -1.9694  2.2919  0.0396
 9413TIP3   OH252433   2.881   6.279   9.422  0.1248  0.1273 -0.3532
 9413TIP3    H152434   2.881   6.373   9.437 -0.4537 -0.1923  2.0003
 9413TIP3    H252435   2.973   6.255   9.420  0.3208  0.8749 -2.2766
 9414TIP3   OH252436   6.097   4.044  11.523 -0.4222  0.1667  0.1856
 9414TIP3    H152437   6.154   3.993  11.580 -0.8763 -1.4489 -0.7718
 9414TIP3    H252438   6.131   4.134  11.531  0.2981 -0.2058  2.0116
 9415TIP3   OH252439   3.351   6.024  11.880 -0.1334  0.3189  0.5588
 9415TIP3    H152440   3.354   6.050  11.788 -0.9574  1.4707  0.8340
 9415TIP3    H252441   3.259   6.004  11.896 -0.0263  0.2979  1.1698
 9416TIP3   OH252442   0.838   5.114  11.189  0.0097  0.2938  0.2511
 9416TIP3    H152443   0.914   5.056  11.175 -0.6937 -0.8319  0.9180
 9416TIP3    H252444   0.817   5.103  11.282 -1.5393 -0.1555 -0.1207
 9417TIP3   OH252445   6.485   0.730  10.655 -0.0973  0.0551 -0.1647
 9417TIP3    H152446   6.487   0.636  10.636  0.8913  0.0834 -0.2372
 9417TIP3    H252447   6.469   0.772  10.571  2.0790  0.0672 -0.6167
 9418TIP3   OH252448   3.978   1.678  10.485 -0.0172  0.1580 -0.3829
 9418TIP3    H152449   3.929   1.599  10.460  0.8921 -0.0436 -1.5870
 9418TIP3    H252450   4.069   1.651  10.482  0.3267  1.3495 -1.1329
 9419TIP3   OH252451   0.676   0.283  11.518 -0.2981 -0.3117  0.0044
 9419TIP3    H152452   0.659   0.222  11.590  0.5182 -0.2186  0.2759
 9419TIP3    H252453   0.720   0.357  11.559 -0.9064  0.2877 -0.3980
 9420TIP3   OH252454   3.495   1.174  11.843  0.1877 -0.3401  0.2957
 9420TIP3    H152455   3.537   1.089  11.860 -0.8824 -1.3681 -1.8137
 9420TIP3    H252456   3.508   1.189  11.750  0.6498  2.0532  0.6753
 9421TIP3   OH252457   5.806   6.356  10.573  0.6346  0.2837 -0.0031
 9421TIP3    H152458   5.880   6.385  10.520 -0.5609  1.5475 -1.0522
 9421TIP3    H252459   5.748   6.432  10.576 -0.3168 -0.4700  1.3519
 9422TIP3   OH252460   2.272   3.498  12.708 -0.1554 -0.0781  0.2099
 9422TIP3    H152461   2.334   3.434  12.674  0.0946  0.6076 -0.6886
 9422TIP3    H252462   2.310   3.583  12.683 -1.0116  0.3780  0.4116
 9423TIP3   OH252463   4.266   6.210  12.501  0.2741  0.3336  0.4199
 9423TIP3    H152464   4.321   6.159  12.442 -2.1385  1.1672 -2.7672
 9423TIP3    H252465   4.261   6.296  12.461 -2.3092  0.6419  1.2426
 9424TIP3   OH252466   6.053   4.553  10.768 -0.2610 -0.4955 -0.8776
 9424TIP3    H152467   5.959   4.534  10.760 -0.5756  0.4207  0.2830
 9424TIP3    H252468   6.060   4.646  10.751  0.0829 -0.0781  1.2329
 9425TIP3   OH252469   2.496   0.270  10.237 -0.0047  0.0734 -0.4365
 9425TIP3    H152470   2.534   0.250  10.323  0.0272 -3.2013 -1.0898
 9425TIP3    H252471   2.402   0.272  10.253 -0.0060 -0.6515 -0.3447
 9426TIP3   OH252472   5.950   5.875   9.783 -0.2916  0.3234  0.2393
 9426TIP3    H152473   5.972   5.959   9.823 -2.6790  0.7944  0.6735
 9426TIP3    H252474   5.874   5.893   9.728 -0.4260 -1.4179 -0.2009
 9427TIP3   OH252475   3.461   5.376   9.980 -0.3059  0.0004  0.0812
 9427TIP3    H152476   3.540   5.426   9.961  0.4390 -1.5349 -1.1195
 9427TIP3    H252477   3.482   5.328  10.060  0.5976 -1.5407 -1.0324
 9428TIP3   OH252478   1.973   6.135  10.930  0.1841 -0.1628 -0.1972
 9428TIP3    H152479   2.063   6.151  10.901 -0.0297 -1.0872 -1.4728
 9428TIP3    H252480   1.947   6.216  10.974  1.3420  0.4434 -0.5851
 9429TIP3   OH252481   4.069   2.562  11.402 -0.7004  0.4905 -0.4960
 9429TIP3    H152482   4.004   2.526  11.462 -1.4095  1.4760 -0.6460
 9429TIP3    H252483   4.044   2.528  11.316 -0.5860  0.2819 -0.4457
 9430TIP3   OH252484   3.117   3.235  12.324  0.9319 -0.1839  0.4835
 9430TIP3    H152485   3.083   3.174  12.390  0.4550 -1.4245 -0.8646
 9430TIP3    H252486   3.157   3.179  12.258  2.8383  1.1213  0.4704
 9431TIP3   OH252487   2.808   3.975  10.026 -0.1831 -0.1214 -0.6251
 9431TIP3    H152488   2.824   3.959   9.933  0.7173 -0.2745 -0.4536
 9431TIP3    H252489   2.887   4.020  10.056 -0.7377  0.5054 -0.0744
 9432TIP3   OH252490   0.718   4.759  10.978  0.4286  0.3050  0.2759
 9432TIP3    H152491   0.698   4.812  10.901  0.9293  0.1964  0.0625
 9432TIP3    H252492   0.633   4.739  11.017  0.2636  2.8150  1.4192
 9433TIP3   OH252493   5.800   6.123   9.936 -0.1782  0.1350  0.5113
 9433TIP3    H152494   5.854   6.187   9.891 -1.2230  0.9686  0.4067
 9433TIP3    H252495   5.855   6.091  10.008  0.7476  0.3117 -0.1099
 9434TIP3   OH252496   6.484   5.557  12.958 -0.1482  0.1996 -0.0979
 9434TIP3    H152497   6.424   5.509  12.902  0.4335 -0.0802 -0.4884
 9434TIP3    H252498   6.491   5.644  12.918 -0.1016  0.1524 -0.1918
 9435TIP3   OH252499   3.021   6.448  10.189  0.0754 -0.3041  0.2493
 9435TIP3    H152500   2.985   6.463  10.276  1.2683  0.0453  0.6965
 9435TIP3    H252501   3.112   6.423  10.204 -0.3087 -2.5982 -0.7781
 9436TIP3   OH252502   6.448   2.117  10.104  0.0447  0.1024  0.0509
 9436TIP3    H152503   6.457   2.192  10.163 -0.3924 -0.8647  1.3966
 9436TIP3    H252504   6.534   2.107  10.065  1.1603 -0.8090  2.5318
 9437TIP3   OH252505   6.468   2.546  11.309  0.1959 -0.3074 -0.0015
 9437TIP3    H152506   6.408   2.533  11.236  1.3177  0.2500 -1.0687
 9437TIP3    H252507   6.421   2.603  11.369 -1.1952 -1.7116  0.3125
 9438TIP3   OH252508   1.448   3.906  10.493 -0.1495 -0.0341 -0.1333
 9438TIP3    H152509   1.470   3.830  10.546 -0.8668  0.2351  0.5688
 9438TIP3    H252510   1.510   3.974  10.519  0.7836 -0.4923 -1.0820
 9439TIP3   OH252511   5.480   2.808   9.301 -0.5083  0.3477 -0.3559
 9439TIP3    H152512   5.451   2.846   9.384 -0.2732  1.1778 -0.6464
 9439TIP3    H252513   5.482   2.881   9.240  2.4413  0.4688 -0.2870
 9440TIP3   OH252514   6.377   1.575  11.786  0.0701  0.5675 -0.1550
 9440TIP3    H152515   6.400   1.547  11.874 -0.1176 -0.1592 -0.3336
 9440TIP3    H252516   6.296   1.528  11.766  1.9176 -2.0407 -2.0490
 9441TIP3   OH252517   2.750   5.337   9.381  0.2262  0.2126 -0.3867
 9441TIP3    H152518   2.839   5.355   9.351  0.2965 -0.4264 -0.5793
 9441TIP3    H252519   2.711   5.423   9.394 -0.0565  0.5830 -3.0614
 9442TIP3   OH252520   6.655   4.430  10.251  0.0999  0.2524 -0.1941
 9442TIP3    H152521   6.690   4.437  10.163  0.7242 -1.1479 -0.0859
 9442TIP3    H252522   6.564   4.402  10.239  0.0283  0.5791 -0.4082
 9443TIP3   OH252523   1.516   2.134  12.392 -0.5654 -0.9896 -0.1724
 9443TIP3    H152524   1.549   2.118  12.303  0.4529  0.0027  0.0088
 9443TIP3    H252525   1.440   2.190  12.379 -2.0293 -2.9542 -0.5629
 9444TIP3   OH252526   0.524   6.679  12.039  0.0868 -0.1069 -0.2432
 9444TIP3    H152527   0.476   6.726  12.107 -1.2780  2.0511 -2.5027
 9444TIP3    H252528   0.524   6.588  12.068 -3.2712  0.1747  1.1601
 9445TIP3   OH252529   1.990   5.667  11.105 -0.0190 -0.8465  0.0319
 9445TIP3    H152530   1.975   5.687  11.197  0.6926 -0.2820  0.0419
 9445TIP3    H252531   1.907   5.632  11.074 -0.2173 -1.1972  0.9257
 9446TIP3   OH252532   5.656   4.087  10.772  0.0216 -0.2357 -0.4371
 9446TIP3    H152533   5.702   4.133  10.843 -0.2904  1.3006 -1.1774
 9446TIP3    H252534   5.704   4.005  10.762 -0.8971 -1.2779  2.6156
 9447TIP3   OH252535   4.294   4.192  12.317 -0.0769 -0.0485  0.0528
 9447TIP3    H152536   4.288   4.231  12.405  1.0680 -0.3249  0.2666
 9447TIP3    H252537   4.336   4.260  12.264  0.8339 -0.5294  0.1432
 9448TIP3   OH252538   3.849   0.150  11.928 -0.1179 -0.1542  0.8237
 9448TIP3    H152539   3.805   0.164  12.012 -0.4076  1.2693  0.4601
 9448TIP3    H252540   3.942   0.159  11.948 -0.2633  2.2853  0.6786
 9449TIP3   OH252541   4.606   1.613  10.001 -0.4093 -0.0113  0.0077
 9449TIP3    H152542   4.602   1.705   9.976 -0.6207  0.0937  0.4174
 9449TIP3    H252543   4.550   1.607  10.079 -2.5168 -0.9661 -1.4602
 9450TIP3   OH252544   6.466   4.383   9.287 -0.2288  0.4066 -0.2569
 9450TIP3    H152545   6.467   4.416   9.197  1.1178  0.2357 -0.3233
 9450TIP3    H252546   6.495   4.456   9.340 -1.4822  0.6547  0.1173
 9451TIP3   OH252547   1.685   6.102  11.982 -0.1976  0.1927 -0.2924
 9451TIP3    H152548   1.702   6.063  12.068 -2.2074  0.3317  0.2316
 9451TIP3    H252549   1.760   6.077  11.929  0.8816 -0.2860  1.3705
 9452TIP3   OH252550   3.582   5.645  11.400  0.2666 -0.2086  0.1375
 9452TIP3    H152551   3.567   5.618  11.310 -0.4349  0.3023  0.0893
 9452TIP3    H252552   3.553   5.570  11.453 -2.7953  0.7886  0.0522
 9453TIP3   OH252553   2.217   2.614  11.074 -0.1068 -0.3565 -0.0470
 9453TIP3    H152554   2.241   2.576  11.159  0.0933  0.7298  0.3937
 9453TIP3    H252555   2.294   2.597  11.018  0.8110  1.1099  0.7170
 9454TIP3   OH252556   6.591   3.721   9.458 -0.1132  0.7227  0.1435
 9454TIP3    H152557   6.601   3.787   9.390  2.8478 -1.0146 -1.3155
 9454TIP3    H252558   6.636   3.758   9.534  0.4078  0.9609 -0.2720
 9455TIP3   OH252559   1.302   4.836  12.568 -0.1195  0.3121 -0.4703
 9455TIP3    H152560   1.327   4.928  12.566 -1.9285  0.8194 -0.6468
 9455TIP3    H252561   1.341   4.802  12.649  0.8287  1.1335 -0.5658
 9456TIP3   OH252562   1.282   6.304  11.235 -0.4691 -0.1375  0.1176
 9456TIP3    H152563   1.377   6.300  11.242 -0.4389  0.9993  0.6474
 9456TIP3    H252564   1.250   6.252  11.309 -0.2183  1.4118  1.3603
 9457TIP3   OH252565   6.149   3.407  10.172  0.4358  0.1294 -0.6028
 9457TIP3    H152566   6.095   3.485  10.155  1.6745  0.9755 -0.8283
 9457TIP3    H252567   6.168   3.372  10.085 -0.6339 -0.8025 -0.4709
 9458TIP3   OH252568   2.667   4.016   9.261 -0.5893 -0.3163  0.2474
 9458TIP3    H152569   2.572   4.004   9.264 -0.5473 -0.8765 -0.5093
 9458TIP3    H252570   2.689   4.049   9.348 -1.5373  0.2787  0.2814
 9459TIP3   OH252571   0.700   6.100  10.169 -0.4515  0.0273 -0.5570
 9459TIP3    H152572   0.733   6.144  10.090  0.9704  0.6386  0.3373
 9459TIP3    H252573   0.777   6.058  10.207 -1.2902 -1.0360  0.0383
 9460TIP3   OH252574   1.488   6.718  10.361  0.4597 -0.3486 -0.3709
 9460TIP3    H152575   1.401   6.750  10.385  0.2631  0.0185 -1.5248
 9460TIP3    H252576   1.544   6.743  10.435 -0.1495  0.5875 -0.2098
 9461TIP3   OH252577   6.584   6.557  12.194 -0.8224 -0.2900  0.3342
 9461TIP3    H152578   6.580   6.637  12.246  2.5709 -0.6761  1.4177
 9461TIP3    H252579   6.577   6.486  12.258  0.0999 -0.7898 -0.0924
 9462TIP3   OH252580   5.847   2.820  10.885  0.2233  0.2010  0.1447
 9462TIP3    H152581   5.891   2.748  10.929 -0.3727  0.5463  1.3742
 9462TIP3    H252582   5.837   2.791  10.794 -0.2346 -1.3846  0.6607
 9463TIP3   OH252583   2.728   5.243  10.392  0.1454  0.1384 -0.1430
 9463TIP3    H152584   2.757   5.245  10.483  1.9932 -1.2120 -0.6522
 9463TIP3    H252585   2.806   5.221  10.342 -1.3264 -1.6360 -1.8213
 9464TIP3   OH252586   1.309   3.156  11.926 -0.1647  0.2215 -0.1884
 9464TIP3    H152587   1.264   3.116  11.851  0.0049 -0.8196  0.2420
 9464TIP3    H252588   1.401   3.160  11.898 -0.3136  1.1494 -0.5713
 9465TIP3   OH252589   5.206   4.913   9.439 -0.4811 -0.0790 -0.1034
 9465TIP3    H152590   5.188   4.832   9.486  0.4236 -0.6985 -0.7821
 9465TIP3    H252591   5.181   4.895   9.348 -2.8947  1.3441  0.2049
 9466TIP3   OH252592   0.031   4.171  10.213  0.0066  0.0586 -0.4090
 9466TIP3    H152593   0.079   4.194  10.292 -0.2718  0.1107 -0.2532
 9466TIP3    H252594   0.021   4.254  10.166 -1.2576  0.3323  0.2968
 9467TIP3   OH252595   5.455   5.472  12.637 -0.2132 -0.3199  0.1651
 9467TIP3    H152596   5.489   5.552  12.597 -0.9832  0.9387  1.8746
 9467TIP3    H252597   5.372   5.456  12.592  0.5130 -0.8931 -1.0179
 9468TIP3   OH252598   5.553   1.619  11.189 -0.4157 -0.4253 -0.3957
 9468TIP3    H152599   5.540   1.712  11.211 -1.4905 -0.6508 -0.0189
 9468TIP3    H252600   5.479   1.597  11.133 -0.3397 -1.1369 -0.2226
 9469TIP3   OH252601   3.783   4.048  11.707  0.5448 -0.1196 -0.2735
 9469TIP3    H152602   3.780   3.962  11.747  0.2968 -0.2706 -0.6140
 9469TIP3    H252603   3.723   4.101  11.760  0.1973 -0.3252 -0.4547
 9470TIP3   OH252604   3.912   0.380  10.716 -0.2414 -0.0399  0.6746
 9470TIP3    H152605   3.937   0.334  10.796 -1.1936 -0.3219  0.8210
 9470TIP3    H252606   3.875   0.312  10.660 -2.2861  0.6062  1.1504
 9471TIP3   OH252607   0.707   2.364  10.818  0.5336 -0.2168 -0.5885
 9471TIP3    H152608   0.632   2.387  10.762  2.1829  1.7403 -2.1561
 9471TIP3    H252609   0.693   2.415  10.897  0.6819  0.9802 -1.3031
 9472TIP3   OH252610   3.030   4.686   9.649  0.1421  0.1552 -0.7254
 9472TIP3    H152611   2.960   4.710   9.588  0.2473  0.0275 -0.8973
 9472TIP3    H252612   3.091   4.760   9.646  0.2685  0.0423 -0.9582
 9473TIP3   OH252613   4.816   5.086  11.307 -0.1584  0.3388  0.4254
 9473TIP3    H152614   4.873   5.162  11.320  0.4030  0.1836 -0.9376
 9473TIP3    H252615   4.853   5.041  11.230 -0.4355 -1.3601  1.2430
 9474TIP3   OH252616   3.846   3.893   9.411 -0.7418  0.0006 -0.4920
 9474TIP3    H152617   3.852   3.800   9.433 -0.2345  0.2025  0.2607
 9474TIP3    H252618   3.762   3.922   9.447 -0.1908  0.1879  0.6994
 9475TIP3   OH252619   5.176   4.804  11.014  0.1440  0.1790  0.6221
 9475TIP3    H152620   5.169   4.709  11.024 -1.8448  0.2067  0.0407
 9475TIP3    H252621   5.155   4.839  11.101 -2.2608  0.0929  0.1606
 9476TIP3   OH252622   5.072   2.868   9.582  0.1770 -0.9175 -0.1706
 9476TIP3    H152623   5.042   2.829   9.500  0.2666  1.3000 -1.3188
 9476TIP3    H252624   5.009   2.937   9.601 -1.4263 -3.0524  3.1677
 9477TIP3   OH252625   6.327   2.503  10.631  0.1918 -0.1169 -0.0319
 9477TIP3    H152626   6.328   2.566  10.559 -1.2190  1.0470  0.9078
 9477TIP3    H252627   6.265   2.539  10.694  0.3801 -1.7709  1.1799
 9478TIP3   OH252628   1.001   5.387  10.684 -0.1851 -0.2032 -0.0256
 9478TIP3    H152629   0.973   5.397  10.775 -0.1093 -0.1482 -0.0086
 9478TIP3    H252630   0.933   5.332  10.644 -0.6222  0.4016 -0.1235
 9479TIP3   OH252631   6.437   5.812  12.536 -0.0945  0.2753  0.1618
 9479TIP3    H152632   6.364   5.870  12.556 -0.2371 -0.0782  0.6777
 9479TIP3    H252633   6.491   5.862  12.474 -0.5995  0.6622  0.0282
 9480TIP3   OH252634   5.579   1.309   9.586  0.6716 -0.0467  0.6518
 9480TIP3    H152635   5.561   1.335   9.677  1.5094  1.4847  0.4185
 9480TIP3    H252636   5.550   1.384   9.534  1.4643 -0.3236 -0.2218
 9481TIP3   OH252637   5.296   3.775  11.037  0.1976  0.6765  0.1861
 9481TIP3    H152638   5.379   3.728  11.052  1.0361  1.2810 -2.1112
 9481TIP3    H252639   5.262   3.737  10.956 -1.5058  0.8853  0.7598
 9482TIP3   OH252640   3.678   4.753   9.462  0.0540  0.1245  0.0592
 9482TIP3    H152641   3.765   4.712   9.465 -1.0516 -2.3253  0.8227
 9482TIP3    H252642   3.666   4.775   9.369  0.8176 -1.0622 -0.3444
 9483TIP3   OH252643   0.330   1.549  12.318 -0.2561 -0.1852 -0.0724
 9483TIP3    H152644   0.253   1.492  12.314  0.1213 -0.6970 -0.1757
 9483TIP3    H252645   0.398   1.493  12.355 -0.5237  0.9027  2.2397
 9484TIP3   OH252646   0.859   5.256   9.880  0.2667 -0.0264  0.1783
 9484TIP3    H152647   0.902   5.196   9.818  2.0483  0.1830  1.1509
 9484TIP3    H252648   0.878   5.220   9.966 -0.9197  0.5041  0.6913
 9485TIP3   OH252649   0.234   4.967  10.865 -0.1482 -0.3097  0.3799
 9485TIP3    H152650   0.280   4.959  10.781  0.1763 -0.8986  0.6084
 9485TIP3    H252651   0.260   4.889  10.914 -0.6051 -0.1410  0.8996
 9486TIP3   OH252652   1.010   2.886  11.563  0.3054 -0.3247  0.0458
 9486TIP3    H152653   1.062   2.814  11.599  0.2886  0.7315  2.3213
 9486TIP3    H252654   1.012   2.953  11.631 -0.0885  1.6585 -1.8092
 9487TIP3   OH252655   5.600   5.912   9.936  0.3431  0.2938  0.0106
 9487TIP3    H152656   5.674   5.971   9.923  3.8180 -3.1134  2.1148
 9487TIP3    H252657   5.600   5.857   9.857 -1.3225  1.4183 -0.8406
 9488TIP3   OH252658   5.434   5.571  10.480 -0.8765  0.3626 -0.2411
 9488TIP3    H152659   5.397   5.630  10.545 -2.1893 -2.0507  1.3206
 9488TIP3    H252660   5.390   5.594  10.398 -0.0870  2.6268 -0.0977
 9489TIP3   OH252661   4.308   2.367  12.246 -0.4206 -0.3284 -0.3978
 9489TIP3    H152662   4.386   2.312  12.244 -2.0118 -2.7460  0.3657
 9489TIP3    H252663   4.261   2.339  12.325 -1.5123  1.8974 -0.1844
 9490TIP3   OH252664   0.276   0.169  11.445  0.5995  0.0899 -0.6429
 9490TIP3    H152665   0.185   0.138  11.445  0.7490 -0.3530 -0.6467
 9490TIP3    H252666   0.317   0.122  11.517  0.6437  0.8377 -0.1670
 9491TIP3   OH252667   1.685   2.292  12.179  0.0668  0.1697 -0.3796
 9491TIP3    H152668   1.611   2.317  12.235 -0.7266  0.3251 -1.4619
 9491TIP3    H252669   1.757   2.349  12.208 -0.1487 -0.1408  0.8387
 9492TIP3   OH252670   0.499   1.560  11.488 -0.4721 -0.5132 -1.0195
 9492TIP3    H152671   0.560   1.580  11.559 -0.8196 -2.4240 -0.1152
 9492TIP3    H252672   0.522   1.622  11.418  0.8830  0.4021  0.1761
 9493TIP3   OH252673   3.624   2.280  11.129  0.2624  0.1714 -0.5103
 9493TIP3    H152674   3.555   2.346  11.126 -0.3725 -0.3364  1.2296
 9493TIP3    H252675   3.623   2.240  11.042 -1.6272  0.2388 -0.5730
 9494TIP3   OH252676   5.180   3.623  10.804  0.0456  0.4486  0.4227
 9494TIP3    H152677   5.100   3.674  10.799 -0.0848  0.4215  1.8895
 9494TIP3    H252678   5.233   3.654  10.730 -1.0691  0.8606 -0.2266
 9495TIP3   OH252679   3.421   6.155  11.340 -0.3151  0.2746 -0.2652
 9495TIP3    H152680   3.487   6.096  11.304 -0.4813  0.1551 -0.3774
 9495TIP3    H252681   3.383   6.198  11.264 -0.2135  0.5070 -0.1848
 9496TIP3   OH252682   2.650   0.526  11.189  0.9467  0.1663  0.9943
 9496TIP3    H152683   2.598   0.469  11.246 -0.0719  2.3395  2.4111
 9496TIP3    H252684   2.735   0.531  11.231  1.5983 -1.5298 -0.0349
 9497TIP3   OH252685   4.664   6.359  11.751  0.0960  0.2220 -0.5398
 9497TIP3    H152686   4.614   6.334  11.673 -0.2510  0.3344 -0.3548
 9497TIP3    H252687   4.620   6.315  11.824 -0.2311  0.9763 -0.2722
 9498TIP3   OH252688   4.462   6.194  11.539  0.0785  0.4115  0.0103
 9498TIP3    H152689   4.516   6.134  11.486 -0.5935  1.9976 -2.6465
 9498TIP3    H252690   4.388   6.140  11.568  0.3969 -0.4894 -0.7817
 9499TIP3   OH252691   4.983   0.058  10.190 -0.0477  0.0291 -0.2797
 9499TIP3    H152692   4.996   0.132  10.130 -0.0120 -1.0940 -1.7000
 9499TIP3    H252693   4.889   0.055  10.205  0.1691  2.2509  2.3373
 9500TIP3   OH252694   2.414   3.337  10.096  0.4562  0.3148  0.1282
 9500TIP3    H152695   2.500   3.319  10.058  0.3557 -0.4541  0.2559
 9500TIP3    H252696   2.359   3.360  10.020  0.4867 -0.3152 -0.0886
 9501TIP3   OH252697   4.184   0.257  11.365  0.0188  0.1787 -0.0762
 9501TIP3    H152698   4.194   0.347  11.334  1.4334  0.8038  2.0353
 9501TIP3    H252699   4.250   0.207  11.316 -0.5253  0.3305 -0.9890
 9502TIP3   OH252700   1.747   2.090  11.217  0.4981 -0.1624  0.8438
 9502TIP3    H152701   1.703   2.029  11.158 -0.5058  1.2030  0.1388
 9502TIP3    H252702   1.740   2.175  11.174  1.3035  0.5778  2.1087
 9503TIP3   OH252703   5.597   5.077  12.274  0.6082  0.0945  0.3884
 9503TIP3    H152704   5.564   5.098  12.187 -2.4479  1.5477  1.7225
 9503TIP3    H252705   5.595   5.161  12.321  2.0266 -0.6707  1.9003
 9504TIP3   OH252706   4.064   5.329   9.450 -0.1821 -0.5106 -0.4120
 9504TIP3    H152707   4.020   5.338   9.366  0.4347 -0.9450 -0.7861
 9504TIP3    H252708   4.006   5.374   9.512 -1.3674 -1.4450 -0.7993
 9505TIP3   OH252709   5.315   3.795   9.460  0.2929 -0.0571 -0.8241
 9505TIP3    H152710   5.307   3.854   9.385  1.6136  2.6684  1.0051
 9505TIP3    H252711   5.243   3.820   9.519  2.2614  1.6425  1.0632
 9506TIP3   OH252712   6.663   5.024  10.596 -0.1549 -1.0148 -0.0319
 9506TIP3    H152713   6.673   5.025  10.691  0.8249 -0.8023 -0.1277
 9506TIP3    H252714   6.614   4.944  10.577  0.0105 -1.2709  0.6147
 9507TIP3   OH252715   5.524   4.066  12.800  0.3663 -0.0070 -0.0418
 9507TIP3    H152716   5.512   4.147  12.849 -1.6960 -1.1065  1.4492
 9507TIP3    H252717   5.446   4.060  12.745  2.2670  0.8085 -3.0648
 9508TIP3   OH252718   3.234   6.676   9.921 -0.0080 -0.3104 -0.2839
 9508TIP3    H152719   3.200   6.709  10.004  0.5468 -1.5029  0.4384
 9508TIP3    H252720   3.328   6.665   9.936  0.3693  0.9244 -1.5715
 9509TIP3   OH252721   3.195   4.604  11.719  0.2872  0.5896  0.2177
 9509TIP3    H152722   3.177   4.670  11.653  0.2281  0.8200  0.4639
 9509TIP3    H252723   3.127   4.617  11.785  0.3278  0.3394  0.3097
 9510TIP3   OH252724   2.324   4.620   9.091 -0.7075  0.3957  0.4044
 9510TIP3    H152725   2.324   4.715   9.097  1.3688  0.3763  1.8907
 9510TIP3    H252726   2.286   4.590   9.174  0.9105  0.0007  1.0572
 9511TIP3   OH252727   6.219   1.533  10.384  0.5060  0.2018  0.2236
 9511TIP3    H152728   6.174   1.597  10.328  0.6601  0.5280  0.4660
 9511TIP3    H252729   6.184   1.548  10.471  0.6274  0.0320  0.3021
 9512TIP3   OH252730   5.078   1.876  12.242  0.0507 -0.0996  0.8523
 9512TIP3    H152731   5.075   1.801  12.182  0.8643  0.0816  0.5721
 9512TIP3    H252732   5.160   1.865  12.289  0.7312  1.2114  0.0072
 9513TIP3   OH252733   3.673   1.313  11.354  0.5236 -0.3071 -0.2717
 9513TIP3    H152734   3.749   1.367  11.377 -0.2208  1.5115 -1.7919
 9513TIP3    H252735   3.682   1.298  11.259 -0.3831 -1.1333 -0.2498
 9514TIP3   OH252736   1.280   0.180   9.997  0.2080 -1.0266  0.2740
 9514TIP3    H152737   1.205   0.205  10.051  1.3292  2.4753  0.4918
 9514TIP3    H252738   1.241   0.137   9.921 -1.8066 -1.4079  1.4327
 9515TIP3   OH252739   5.083   2.498  10.497  0.7226  0.0595 -0.3769
 9515TIP3    H152740   5.153   2.435  10.482  2.0563  1.3332  0.2489
 9515TIP3    H252741   5.090   2.560  10.425  0.0173 -0.0001 -0.4970
 9516TIP3   OH252742   1.226   3.301  10.086  0.2086 -0.4241  0.2027
 9516TIP3    H152743   1.143   3.272  10.124 -0.6714  2.5297  0.8666
 9516TIP3    H252744   1.268   3.351  10.156  1.7140 -0.3757 -0.6911
 9517TIP3   OH252745   6.101   0.422  10.244  0.8222 -0.0363  0.0561
 9517TIP3    H152746   6.085   0.329  10.261  0.6187  0.0911  0.5881
 9517TIP3    H252747   6.190   0.425  10.209  0.1466 -0.6342 -1.8292
 9518TIP3   OH252748   3.835   0.157  10.616  0.1425  0.3823 -0.2826
 9518TIP3    H152749   3.902   0.096  10.647  0.6880  1.1847  0.1742
 9518TIP3    H252750   3.761   0.102  10.592  0.6994 -0.4698 -0.0944
 9519TIP3   OH252751   6.572   1.043  11.876  0.3733  0.6033 -0.6144
 9519TIP3    H152752   6.576   1.133  11.908 -0.2197  0.1858  0.7459
 9519TIP3    H252753   6.594   0.990  11.953  1.6173 -0.3912 -1.6233
 9520TIP3   OH252754   1.772   1.946  11.820  0.0261  0.1786 -0.0830
 9520TIP3    H152755   1.821   2.025  11.795  0.7051  0.1956  1.2296
 9520TIP3    H252756   1.831   1.897  11.876 -0.3856 -1.3014 -0.8733
 9521TIP3   OH252757   4.396   0.862  11.118  0.5135 -0.4187 -0.6782
 9521TIP3    H152758   4.464   0.805  11.083  1.5336 -0.1276  0.7504
 9521TIP3    H252759   4.336   0.803  11.162  0.4683 -0.5645 -0.9319
 9522TIP3   OH252760   4.391   2.914   9.304 -0.0316  0.1667 -0.4910
 9522TIP3    H152761   4.464   2.853   9.291  0.2468  0.9195 -2.7447
 9522TIP3    H252762   4.313   2.860   9.293  0.1203 -0.5538  1.5060
 9523TIP3   OH252763   5.760   0.885   9.479 -0.2466  0.1106  0.1155
 9523TIP3    H152764   5.816   0.841   9.542  1.6362  3.1097  0.7233
 9523TIP3    H252765   5.741   0.970   9.518  0.0970  1.6689 -2.8199
 9524TIP3   OH252766   0.518   6.052  12.677  0.0308  0.0151 -0.8302
 9524TIP3    H152767   0.474   6.018  12.599 -1.2019  0.3916 -0.3275
 9524TIP3    H252768   0.448   6.059  12.742  0.9074  0.3643  0.0878
 9525TIP3   OH252769   3.888   5.072  10.295 -0.0961  0.1454  0.3783
 9525TIP3    H152770   3.903   5.148  10.238 -1.2214  0.9595  1.1382
 9525TIP3    H252771   3.793   5.070  10.308 -0.1773 -1.8449 -0.2154
 9526TIP3   OH252772   4.526   3.282   9.403  0.1327  0.1826  0.0720
 9526TIP3    H152773   4.614   3.250   9.386 -0.4833 -2.1287  0.7549
 9526TIP3    H252774   4.477   3.264   9.322  0.1054  0.6872 -0.0226
 9527TIP3   OH252775   3.740   2.171  11.348 -0.3417 -0.0933 -0.1167
 9527TIP3    H152776   3.658   2.131  11.377 -0.8175  1.1204  0.2774
 9527TIP3    H252777   3.715   2.223  11.272  0.2464 -0.4493 -0.5593
 9528TIP3   OH252778   3.340   4.638  11.039  0.4235  0.0277  0.1799
 9528TIP3    H152779   3.256   4.671  11.070  0.3442 -0.0399  0.0376
 9528TIP3    H252780   3.321   4.550  11.007  0.5988 -0.0845  0.3863
 9529TIP3   OH252781   6.064   3.086  11.158  0.0493  0.2835 -0.8625
 9529TIP3    H152782   6.147   3.133  11.153  1.7591 -2.4216 -0.5009
 9529TIP3    H252783   6.026   3.113  11.242  0.9044  1.0535 -0.7066
 9530TIP3   OH252784   2.365   1.467  11.486  0.2407  0.1345  0.1190
 9530TIP3    H152785   2.323   1.442  11.569 -1.0973  0.0403 -0.5660
 9530TIP3    H252786   2.454   1.432  11.494 -0.2239 -0.9310  1.0307
 9531TIP3   OH252787   5.171   1.954  10.073 -0.1127 -0.1798  0.1326
 9531TIP3    H152788   5.214   1.880  10.029  0.0526  1.0829 -1.9401
 9531TIP3    H252789   5.084   1.920  10.096 -0.9051 -0.4381 -2.8339
 9532TIP3   OH252790   1.541   0.314  11.665 -0.2186 -0.2806  0.3507
 9532TIP3    H152791   1.448   0.304  11.643 -0.2093  0.4351 -0.0448
 9532TIP3    H252792   1.543   0.313  11.761 -0.4196 -2.0746  0.3656
 9533TIP3   OH252793   0.473   4.588  10.065  0.2820 -0.2333  0.7657
 9533TIP3    H152794   0.539   4.613  10.130 -0.4670  1.7992  0.8131
 9533TIP3    H252795   0.451   4.670  10.020 -1.5418 -1.0139  0.1273
 9534TIP3   OH252796   4.135   2.209   9.976  0.0290 -0.8757  0.2482
 9534TIP3    H152797   4.088   2.251  10.049 -0.5680  0.0825 -0.6672
 9534TIP3    H252798   4.159   2.281   9.918 -0.1951 -1.7073 -0.9104
 9535TIP3   OH252799   3.611   4.083   9.795 -0.3274 -0.0616 -0.2924
 9535TIP3    H152800   3.676   4.055   9.860  1.2205 -0.4127 -1.9092
 9535TIP3    H252801   3.619   4.178   9.793 -1.0036  0.0232  0.6323
 9536TIP3   OH252802   3.322   3.241   9.533  0.5790  0.0900 -0.2693
 9536TIP3    H152803   3.314   3.146   9.544  0.2551  0.0913 -0.4794
 9536TIP3    H252804   3.237   3.268   9.498 -0.5627  0.8961  2.7903
 9537TIP3   OH252805   1.736   0.171  11.257  0.1740 -0.0523 -0.2215
 9537TIP3    H152806   1.819   0.145  11.218 -0.3388 -0.7097 -0.8963
 9537TIP3    H252807   1.731   0.266  11.243  0.4786 -0.1208 -0.8254
 9538TIP3   OH252808   3.230   2.403  11.551  0.5412 -0.1714  0.5260
 9538TIP3    H152809   3.140   2.374  11.542  0.9420 -1.2784 -0.1464
 9538TIP3    H252810   3.237   2.434  11.641 -0.8217  1.1087  0.2390
 9539TIP3   OH252811   3.126   0.594  12.156 -0.2887  0.2368  0.6262
 9539TIP3    H152812   3.176   0.628  12.231  0.7331  1.6530 -0.6207
 9539TIP3    H252813   3.040   0.571  12.193  1.1099 -2.0425  2.7980
 9540TIP3   OH252814   5.306   0.112  11.012 -0.1596  0.3047 -0.5177
 9540TIP3    H152815   5.358   0.100  11.091 -0.0462  0.0258 -0.6353
 9540TIP3    H252816   5.371   0.136  10.945 -0.1174 -0.5526 -0.7872
 9541TIP3   OH252817   2.661   3.326  10.495  0.2424 -0.5707  0.2085
 9541TIP3    H152818   2.683   3.365  10.410  0.3146 -0.9724  0.0401
 9541TIP3    H252819   2.590   3.381  10.528 -0.2944 -0.8491 -0.4508
 9542TIP3   OH252820   1.062   4.844  12.428 -0.5837 -0.2805 -0.8337
 9542TIP3    H152821   1.131   4.871  12.489 -0.4884 -2.2233 -0.0165
 9542TIP3    H252822   1.105   4.780  12.371 -0.7984  1.1601 -2.7018
 9543TIP3   OH252823   2.157   4.780  11.621  0.2207  0.2947  0.0760
 9543TIP3    H152824   2.113   4.749  11.700  0.1968 -1.2895 -0.5043
 9543TIP3    H252825   2.148   4.875  11.623 -1.4135  0.1576  1.0234
 9544TIP3   OH252826   4.996   5.906  10.199 -0.0320 -0.5283 -0.3618
 9544TIP3    H152827   5.023   5.983  10.150 -0.0393 -0.3144 -0.0281
 9544TIP3    H252828   4.903   5.894  10.176 -0.3305  0.2066  0.4408
 9545TIP3   OH252829   1.737   0.580  13.050 -0.2376 -0.5139  0.6392
 9545TIP3    H152830   1.766   0.586  12.959 -0.6144 -1.6336  0.4244
 9545TIP3    H252831   1.748   0.669  13.085 -1.0595  0.1890 -0.7928
 9546TIP3   OH252832   3.034   3.762  10.193 -0.7612 -0.7957  0.8645
 9546TIP3    H152833   3.102   3.792  10.253 -0.4781  1.9512 -0.6978
 9546TIP3    H252834   2.957   3.750  10.249  0.5811 -2.8324  2.4561
 9547TIP3   OH252835   5.833   3.617  10.914  0.3269  0.3643 -0.1772
 9547TIP3    H152836   5.831   3.648  11.005 -0.1091  2.8736 -0.9492
 9547TIP3    H252837   5.741   3.609  10.890  0.4416 -0.0348 -0.4864
 9548TIP3   OH252838   6.315   6.470  10.435 -0.2651 -0.5205 -0.6330
 9548TIP3    H152839   6.395   6.520  10.418 -0.9304  0.3063 -1.3938
 9548TIP3    H252840   6.330   6.432  10.522  0.5443  0.4288 -0.3314
 9549TIP3   OH252841   4.671   0.763  12.576 -0.6710 -0.0610  0.2834
 9549TIP3    H152842   4.644   0.751  12.667  0.2763 -3.4425  0.2486
 9549TIP3    H252843   4.598   0.730  12.525  0.5097 -2.4914  0.0244
 9550TIP3   OH252844   1.730   0.845  12.492 -0.4695  0.5252  0.0044
 9550TIP3    H152845   1.671   0.780  12.529 -0.1042 -0.4418 -1.0717
 9550TIP3    H252846   1.800   0.854  12.557 -1.1242  0.7272  0.6926
 9551TIP3   OH252847   3.223   3.055  12.150 -0.1979 -0.1756 -0.2679
 9551TIP3    H152848   3.154   3.022  12.092 -1.0600  1.2137 -0.0749
 9551TIP3    H252849   3.243   2.981  12.206 -1.1491 -0.7865 -0.6965
 9552TIP3   OH252850   0.758   6.009  10.815 -0.3566 -0.6553 -0.3254
 9552TIP3    H152851   0.780   6.102  10.824  1.5196 -1.0039 -0.9571
 9552TIP3    H252852   0.717   6.003  10.729  0.3858 -0.5464 -0.6930
 9553TIP3   OH252853   1.820   0.382  10.028 -0.1043 -0.2840 -0.0745
 9553TIP3    H152854   1.809   0.447   9.959  0.6871  0.2265  0.2671
 9553TIP3    H252855   1.731   0.369  10.062 -0.4703 -0.3933 -1.0349
 9554TIP3   OH252856   2.061   1.030   9.370 -0.2452 -0.2075  0.1456
 9554TIP3    H152857   2.037   1.006   9.281  1.0871 -1.1548  0.0172
 9554TIP3    H252858   2.157   1.028   9.371 -0.0963  2.8894  0.7714
 9555TIP3   OH252859   4.485   6.544  10.807  0.5106  0.4962 -0.0148
 9555TIP3    H152860   4.514   6.628  10.771  1.6438  0.5178  0.8973
 9555TIP3    H252861   4.517   6.544  10.897  0.2550 -0.7947  0.0991
 9556TIP3   OH252862   3.695   1.571  11.633 -0.0814 -0.2428 -0.0920
 9556TIP3    H152863   3.769   1.558  11.573 -0.4267 -0.9208 -0.3753
 9556TIP3    H252864   3.727   1.636  11.696  0.2838  0.5012 -1.0117
 9557TIP3   OH252865   4.987   3.387   9.637  0.2193  0.2858 -0.0309
 9557TIP3    H152866   5.047   3.318   9.665  2.4619  2.1656  0.0565
 9557TIP3    H252867   4.903   3.363   9.676  0.1015 -3.8416 -2.2665
 9558TIP3   OH252868   4.303   3.516   9.760 -0.1312  0.1333  0.1307
 9558TIP3    H152869   4.240   3.446   9.779 -0.0034  0.6302  2.7229
 9558TIP3    H252870   4.268   3.593   9.804  2.4497  0.3183  2.0827
 9559TIP3   OH252871   6.342   2.296  11.566  0.3111 -0.2993  0.1608
 9559TIP3    H152872   6.402   2.367  11.544  0.7065 -0.7708 -0.2959
 9559TIP3    H252873   6.359   2.229  11.500 -2.8896  0.7418 -1.9261
 9560TIP3   OH252874   2.817   2.788  12.192  0.4892 -0.5471 -1.0280
 9560TIP3    H152875   2.810   2.712  12.250  2.7176 -1.0526 -1.3341
 9560TIP3    H252876   2.737   2.785  12.139  0.0240 -2.0477 -0.3017
 9561TIP3   OH252877   4.259   6.077  10.890  0.1611 -0.0782 -0.0638
 9561TIP3    H152878   4.188   6.036  10.939  1.1877  0.0302  1.5944
 9561TIP3    H252879   4.313   6.003  10.860  1.4651 -0.0771  2.0741
 9562TIP3   OH252880   5.297   4.420   9.690 -0.2527  0.2677  0.1134
 9562TIP3    H152881   5.255   4.453   9.769  0.6727  0.4503  0.5466
 9562TIP3    H252882   5.309   4.498   9.635  1.3526  0.5917  0.8660
 9563TIP3   OH252883   4.723   2.888  12.728 -0.2294 -0.2398 -0.0925
 9563TIP3    H152884   4.706   2.982  12.720 -1.0361 -0.3995 -0.3170
 9563TIP3    H252885   4.699   2.868  12.818 -1.1685 -0.4468 -0.3809
 9564TIP3   OH252886   5.675   0.237  11.704  0.6339  0.0122  0.0215
 9564TIP3    H152887   5.633   0.151  11.704  0.6604 -0.0087 -0.8925
 9564TIP3    H252888   5.727   0.238  11.785  1.6900 -1.3513 -0.6074
 9565TIP3   OH252889   5.452   4.528  10.156  0.6429  0.2297  0.1099
 9565TIP3    H152890   5.380   4.493  10.208  0.3715 -0.3204 -0.6179
 9565TIP3    H252891   5.514   4.456  10.149 -0.0155 -0.2222 -1.5789
 9566TIP3   OH252892   1.608   2.028  12.053 -0.4791  0.7759  0.1450
 9566TIP3    H152893   1.634   2.118  12.071  0.4421  0.6173 -0.3358
 9566TIP3    H252894   1.678   1.993  11.997 -0.1044 -0.6659  1.4300
 9567TIP3   OH252895   0.200   6.595  12.186  0.3374  0.7953  0.2992
 9567TIP3    H152896   0.218   6.528  12.251  1.0604  0.0647 -0.6303
 9567TIP3    H252897   0.214   6.678  12.233  1.1023  0.2879  0.9990
 9568TIP3   OH252898   0.827   4.375  10.511 -0.1684 -0.4126 -0.2482
 9568TIP3    H152899   0.801   4.383  10.419  0.8167 -0.8525 -0.5768
 9568TIP3    H252900   0.923   4.378  10.509 -0.1378 -0.5545  0.7542
 9569TIP3   OH252901   3.241   1.410  11.385 -0.1693 -0.6919 -0.7256
 9569TIP3    H152902   3.240   1.480  11.449  0.3945 -0.3140 -1.1229
 9569TIP3    H252903   3.202   1.335  11.430  1.1834 -0.7490  0.4246
 9570TIP3   OH252904   6.506   1.886   9.440  0.3024  0.2940  0.1223
 9570TIP3    H152905   6.522   1.840   9.522 -0.6302  0.0495  0.1785
 9570TIP3    H252906   6.411   1.886   9.430  0.3951  0.3936 -0.9202
 9571TIP3   OH252907   4.477   5.032  13.171  0.0101 -0.1525 -0.0029
 9571TIP3    H152908   4.390   5.067  13.150  0.1119  0.0898 -0.0304
 9571TIP3    H252909   4.533   5.110  13.176  0.5849 -0.4118 -1.6932
 9572TIP3   OH252910   0.401   0.517  12.049  0.5867 -0.1291  0.4832
 9572TIP3    H152911   0.462   0.445  12.065  2.5221  0.6966 -2.4738
 9572TIP3    H252912   0.446   0.595  12.082  0.1693  0.2336  0.2097
 9573TIP3   OH252913   1.313   0.372  10.626 -0.0199  0.0159 -0.0211
 9573TIP3    H152914   1.337   0.289  10.667  1.3626  1.5250  2.4159
 9573TIP3    H252915   1.272   0.423  10.695 -2.9488  0.6518 -2.0203
 9574TIP3   OH252916   5.100   5.054  10.212 -0.6040  0.3422 -0.2713
 9574TIP3    H152917   5.047   4.977  10.232  1.4962 -0.9591  0.5073
 9574TIP3    H252918   5.078   5.117  10.281  0.1041 -0.8361  1.0770
 9575TIP3   OH252919   0.501   1.896   9.542  0.2074 -0.3008  0.1625
 9575TIP3    H152920   0.529   1.978   9.500 -1.2988 -0.2058 -0.7265
 9575TIP3    H252921   0.468   1.924   9.628  0.1615 -0.0464  0.0643
 9576TIP3   OH252922   6.154   6.115  11.689 -0.0350 -0.0295  0.1196
 9576TIP3    H152923   6.162   6.028  11.649 -0.1727 -0.1833  0.4277
 9576TIP3    H252924   6.179   6.175  11.619 -1.1028 -0.2476 -0.4716
 9577TIP3   OH252925   1.989   4.430  12.873 -0.1587  0.0934 -0.5096
 9577TIP3    H152926   1.921   4.403  12.811 -0.4828 -1.6492  0.5188
 9577TIP3    H252927   1.984   4.526  12.874 -3.8778  0.0448  0.8446
 9578TIP3   OH252928   0.555   0.506   9.335 -0.4546 -0.3580  0.4796
 9578TIP3    H152929   0.478   0.466   9.376 -0.4096 -1.6760 -0.6285
 9578TIP3    H252930   0.623   0.438   9.340  1.6375  1.6846  3.9396
 9579TIP3   OH252931   5.467   5.561   9.719  0.1020 -0.0711  0.3557
 9579TIP3    H152932   5.510   5.482   9.687  1.0970 -0.2732  2.0245
 9579TIP3    H252933   5.539   5.618   9.746 -0.6079  1.3161 -0.5479
 9580TIP3   OH252934   2.537   2.760   9.725  1.3288 -0.2580 -0.4605
 9580TIP3    H152935   2.631   2.751   9.739  1.4134 -0.3222 -1.0531
 9580TIP3    H252936   2.514   2.688   9.667  0.8827 -0.3354 -0.1933
 9581TIP3   OH252937   0.568   4.302  12.354  0.6038  0.7617  0.0151
 9581TIP3    H152938   0.660   4.300  12.327  0.0386 -1.2819 -2.0112
 9581TIP3    H252939   0.553   4.215  12.392 -0.8211  0.5291 -1.0157
 9582TIP3   OH252940   1.146   0.614  10.258  0.2344 -0.1437  0.0456
 9582TIP3    H152941   1.069   0.584  10.209  1.6994 -2.6312 -0.9619
 9582TIP3    H252942   1.215   0.623  10.192  1.0146  1.3133  1.0125
 9583TIP3   OH252943   5.137   5.700  11.879 -0.1020  0.4632  0.8811
 9583TIP3    H152944   5.160   5.760  11.809  1.8887 -0.1712  0.9193
 9583TIP3    H252945   5.217   5.649  11.894 -1.1531 -0.9229  2.1002
 9584TIP3   OH252946   0.403   0.785   9.912 -0.1715 -0.4720  0.4694
 9584TIP3    H152947   0.470   0.770   9.979  0.0598  0.7577  0.5442
 9584TIP3    H252948   0.328   0.818   9.961 -0.8042 -1.7400  0.3721
 9585TIP3   OH252949   3.902   4.135   9.568  0.3109  0.3750 -0.7116
 9585TIP3    H152950   3.954   4.066   9.609  1.1618  1.0495 -0.6299
 9585TIP3    H252951   3.853   4.090   9.499  0.5112 -0.3875 -0.3659
 9586TIP3   OH252952   4.329   5.595  10.806  0.0848  0.1166 -0.0746
 9586TIP3    H152953   4.320   5.516  10.754  0.8330  1.1915 -1.9441
 9586TIP3    H252954   4.266   5.656  10.770  0.6824  0.9269  0.2022
 9587TIP3   OH252955   2.793   4.493   9.587  0.1171  0.3478 -0.1224
 9587TIP3    H152956   2.822   4.446   9.509 -0.3164  0.2602 -0.2350
 9587TIP3    H252957   2.822   4.583   9.573 -1.1847  0.6550 -1.0527
 9588TIP3   OH252958   0.894   4.507  11.711 -0.1621 -0.1782 -0.4220
 9588TIP3    H152959   0.885   4.501  11.616 -1.6862 -1.5219 -0.2398
 9588TIP3    H252960   0.866   4.421  11.744  0.6369  0.1461  1.2269
 9589TIP3   OH252961   5.698   4.716  10.330 -0.0358  0.0093 -0.3940
 9589TIP3    H152962   5.764   4.647  10.326  0.3213  0.3930 -3.2828
 9589TIP3    H252963   5.634   4.684  10.393  1.8493 -1.3032  0.9696
 9590TIP3   OH252964   2.553   1.533  10.346 -0.0877 -0.0916  0.1982
 9590TIP3    H152965   2.574   1.611  10.397  0.3374  0.4691 -0.8098
 9590TIP3    H252966   2.620   1.469  10.372 -0.1691  0.0170  0.6934
 9591TIP3   OH252967   6.672   6.550  11.932  0.7633 -0.1165  0.0024
 9591TIP3    H152968   6.733   6.476  11.932 -0.3198 -1.0334 -0.5631
 9591TIP3    H252969   6.644   6.558  12.023  0.6329 -0.6292  0.0107
 9592TIP3   OH252970   2.958   2.584  11.281  0.5903  0.2660  0.0935
 9592TIP3    H152971   2.941   2.651  11.214  0.4720 -0.8399 -1.0092
 9592TIP3    H252972   3.045   2.607  11.316  0.4865  1.0758 -0.1652
 9593TIP3   OH252973   6.721   2.225  10.304 -0.1665  0.4037 -0.6167
 9593TIP3    H152974   6.657   2.294  10.286 -0.8476 -0.4529 -1.5913
 9593TIP3    H252975   6.802   2.256  10.262  0.0367  1.3717  0.4097
 9594TIP3   OH252976   6.162   3.911  10.805  0.4250 -0.1573  0.0463
 9594TIP3    H152977   6.069   3.895  10.818  0.6552 -1.5532  0.1432
 9594TIP3    H252978   6.174   3.913  10.710  0.1951  0.8244  0.0213
 9595TIP3   OH252979   6.495   2.164   9.523  0.6342  0.2110  0.5146
 9595TIP3    H152980   6.523   2.087   9.474 -0.9231 -1.1267  1.6085
 9595TIP3    H252981   6.530   2.151   9.611  0.0958  0.5879  0.7925
 9596TIP3   OH252982   5.681   2.505   9.843  0.2411 -0.5159  0.2645
 9596TIP3    H152983   5.664   2.587   9.889  1.4337 -1.1381  1.9162
 9596TIP3    H252984   5.613   2.445   9.873  0.6496 -0.7442  0.7409
 9597TIP3   OH252985   3.147   1.400  10.077  0.1340 -0.0163  0.2327
 9597TIP3    H152986   3.130   1.492  10.054  0.6585  0.1133  0.3481
 9597TIP3    H252987   3.174   1.359   9.995 -2.1693 -0.5974 -0.2979
 9598TIP3   OH252988   5.801   1.863  11.039  0.2596 -0.5194  0.1257
 9598TIP3    H152989   5.862   1.793  11.017 -0.1940 -0.7944 -0.2785
 9598TIP3    H252990   5.856   1.941  11.051  0.6668 -0.7150 -0.4553
 9599TIP3   OH252991   6.012   1.379  11.216  0.0442  0.0787  0.5553
 9599TIP3    H152992   5.934   1.429  11.240  1.2946  2.2800  0.3677
 9599TIP3    H252993   6.028   1.320  11.290 -0.0006  1.9198  2.1055
 9600TIP3   OH252994   0.611   6.194  11.094 -0.8166  0.2456 -1.1859
 9600TIP3    H152995   0.676   6.239  11.040  0.1285  0.6538  0.2392
 9600TIP3    H252996   0.527   6.227  11.062 -0.2712  0.6097 -2.2773
 9601TIP3   OH252997   1.736   6.161  10.667  0.2835  0.0548  0.3351
 9601TIP3    H152998   1.819   6.175  10.620 -0.0368  1.8371  0.2132
 9601TIP3    H252999   1.762   6.139  10.756  0.8829 -0.4712  0.0383
 9602TIP3   OH253000   4.343   3.194  11.111  0.1177  0.3962  0.1404
 9602TIP3    H153001   4.350   3.252  11.035 -1.5191 -0.4218 -0.6953
 9602TIP3    H253002   4.323   3.108  11.073 -1.5597  0.1287  1.5275
 9603TIP3   OH253003   4.819   1.639  11.309  0.1575 -0.2170  0.4620
 9603TIP3    H153004   4.775   1.661  11.391 -1.8350 -0.6332 -0.4430
 9603TIP3    H253005   4.815   1.543  11.305  1.4518 -0.2885  0.5004
 9604TIP3   OH253006   0.505   2.104  11.170 -0.3531 -0.0062  0.2157
 9604TIP3    H153007   0.466   2.017  11.158 -0.9069  0.0883  1.2582
 9604TIP3    H253008   0.442   2.151  11.225  0.7517  0.4920  1.0826
 9605TIP3   OH253009   2.557   0.179   9.644  0.0131 -0.4813  0.4576
 9605TIP3    H153010   2.576   0.089   9.670 -1.3504 -0.3972  1.8875
 9605TIP3    H253011   2.488   0.171   9.578 -0.1853 -0.4956  0.6640
 9606TIP3   OH253012   3.361   2.180  10.392 -0.1484 -0.2865 -0.2841
 9606TIP3    H153013   3.308   2.105  10.365 -0.7847  0.0733 -0.0658
 9606TIP3    H253014   3.297   2.250  10.406  0.2157 -0.2491  1.4148
 9607TIP3   OH253015   2.095   3.070   9.928  0.7116 -0.1460 -0.4012
 9607TIP3    H153016   2.074   2.991   9.978 -1.8604  0.8100  0.2160
 9607TIP3    H253017   2.092   3.141   9.992  2.0225  0.5871 -1.1146
 9608TIP3   OH253018   5.472   5.863  11.875  0.0505 -0.4951  0.4473
 9608TIP3    H153019   5.474   5.827  11.786  2.5795  2.6344 -0.9704
 9608TIP3    H253020   5.504   5.792  11.930 -1.3698 -2.4638 -1.0848
 9609TIP3   OH253021   0.483   5.405  10.430  0.2923  0.1748  0.7942
 9609TIP3    H153022   0.402   5.445  10.397 -0.7983 -2.0592  0.5855
 9609TIP3    H253023   0.553   5.456  10.389 -1.0079  0.5225 -1.1460
 9610TIP3   OH253024   6.532   6.037  11.245  0.2479 -0.0607 -0.3932
 9610TIP3    H153025   6.616   6.077  11.226  0.9698 -1.2333  0.1707
 9610TIP3    H253026   6.506   5.993  11.164 -0.2790  1.0512 -0.8424
 9611TIP3   OH253027   0.840   4.298  12.280  0.1378  0.2860 -0.2012
 9611TIP3    H153028   0.871   4.388  12.278 -1.4120  0.8457 -0.3518
 9611TIP3    H253029   0.891   4.254  12.212  2.0324  0.6260  0.9399
 9612TIP3   OH253030   6.406   6.581  11.157 -0.2437  0.1132 -0.3374
 9612TIP3    H153031   6.422   6.488  11.145  0.4580 -0.0070  1.2719
 9612TIP3    H253032   6.364   6.609  11.076  1.0373 -1.2395 -1.5237
 9613TIP3   OH253033   2.485   0.863  12.471  0.3523  0.2098  0.0172
 9613TIP3    H153034   2.509   0.773  12.453  1.2102  0.3758  0.2947
 9613TIP3    H253035   2.389   0.865  12.463  0.3750 -0.5979 -0.5045
 9614TIP3   OH253036   3.430   0.969  10.587  0.2832  0.6295 -0.4593
 9614TIP3    H153037   3.433   1.060  10.555  0.4113  1.3469  1.4645
 9614TIP3    H253038   3.517   0.953  10.623 -0.5674  0.8457  1.9242
 9615TIP3   OH253039   1.973   1.172  11.840  0.5011 -0.3691 -0.0605
 9615TIP3    H153040   1.886   1.192  11.807 -0.0572  0.1422  1.6283
 9615TIP3    H253041   2.032   1.222  11.784 -0.4695  1.2331  0.2842
 9616TIP3   OH253042   3.973   3.252  11.854 -0.1484 -0.4163 -0.0083
 9616TIP3    H153043   3.998   3.178  11.910 -1.6952 -1.0545 -0.1207
 9616TIP3    H253044   4.049   3.310  11.856  0.9758 -1.8374  0.3615
 9617TIP3   OH253045   2.709   4.536  10.826 -0.3586 -0.0350  0.2406
 9617TIP3    H153046   2.717   4.442  10.807 -2.9526 -0.5263  1.1415
 9617TIP3    H253047   2.724   4.578  10.742 -1.8124 -1.4844 -0.8177
 9618TIP3   OH253048   3.053   1.742  12.176  0.1305 -0.1586 -0.2898
 9618TIP3    H153049   2.999   1.740  12.255  0.3726 -0.6597 -0.1364
 9618TIP3    H253050   3.143   1.741  12.209  0.2433  0.6579 -0.5454
 9619TIP3   OH253051   2.208   3.100  11.724 -0.1832  0.7202  0.4782
 9619TIP3    H153052   2.214   3.169  11.791 -0.9400  0.4349  0.8532
 9619TIP3    H253053   2.294   3.058  11.726 -0.2144  0.6644  1.3334
 9620TIP3   OH253054   3.842   5.280  10.583  0.2288 -0.2580  0.1700
 9620TIP3    H153055   3.916   5.338  10.602 -0.0170  0.1344 -0.0415
 9620TIP3    H253056   3.828   5.290  10.489  0.6506 -1.2354 -0.0034
 9621TIP3   OH253057   3.943   5.641   9.530 -0.0763 -0.0996  0.5882
 9621TIP3    H153058   4.037   5.647   9.543  0.0449 -0.6676  0.0400
 9621TIP3    H253059   3.922   5.712   9.470 -0.2398  0.9483  1.8556
 9622TIP3   OH253060   6.159   0.535  10.615 -0.0208 -0.5495 -0.4908
 9622TIP3    H153061   6.246   0.522  10.577 -0.2426 -0.5780 -1.0045
 9622TIP3    H253062   6.172   0.530  10.709  0.7765  0.8381 -0.5031
 9623TIP3   OH253063   4.061   4.941  10.579 -0.3924 -0.5428 -0.5690
 9623TIP3    H153064   4.084   5.031  10.557 -1.4105 -0.2182 -0.3372
 9623TIP3    H253065   4.141   4.904  10.616  0.1426  0.1447 -1.0045
 9624TIP3   OH253066   4.384   4.183   9.873  0.2522 -0.1559  0.0507
 9624TIP3    H153067   4.354   4.104   9.828  0.3630 -1.6520  2.4353
 9624TIP3    H253068   4.443   4.225   9.810  1.0750 -2.5661 -0.9277
 9625TIP3   OH253069   3.196   5.554  12.462  0.0814 -0.4172 -0.1677
 9625TIP3    H153070   3.203   5.623  12.396 -1.3618 -0.0987 -0.0205
 9625TIP3    H253071   3.236   5.477  12.421  0.4953  0.1608 -0.8532
 9626TIP3   OH253072   3.091   6.108  10.470  0.0314  0.1497 -0.2656
 9626TIP3    H153073   3.154   6.036  10.477 -0.2855 -0.0653  0.4616
 9626TIP3    H253074   3.112   6.150  10.387  0.8243 -0.2136 -0.2561
 9627TIP3   OH253075   2.030   5.289  10.876  0.1538  0.3856  0.0296
 9627TIP3    H153076   2.034   5.326  10.964 -1.2225  1.2807 -0.2427
 9627TIP3    H253077   2.110   5.237  10.867  0.8958  1.2499  1.3707
 9628TIP3   OH253078   2.392   3.769  12.899 -0.4511  0.3501  0.0565
 9628TIP3    H153079   2.386   3.862  12.877 -0.6467  0.8043  1.8761
 9628TIP3    H253080   2.397   3.767  12.995 -1.0862 -1.5427  0.0972
 9629TIP3   OH253081   0.233   1.275  10.954  0.5149  0.2199  0.2607
 9629TIP3    H153082   0.318   1.233  10.942  1.2414  1.7124 -0.0051
 9629TIP3    H253083   0.226   1.288  11.049 -0.1350 -1.2922  0.4470
 9630TIP3   OH253084   5.588   6.618  10.957 -0.2983  0.3841 -0.0593
 9630TIP3    H153085   5.508   6.567  10.970  0.4330 -0.7947 -0.0386
 9630TIP3    H253086   5.565   6.705  10.989 -1.5531  0.0598  0.0111
 9631TIP3   OH253087   5.056   3.936  10.136  0.8738  0.0465  0.4244
 9631TIP3    H153088   5.133   3.903  10.183  0.8704 -0.6950 -0.0802
 9631TIP3    H253089   5.005   3.858  10.114  1.8062  0.1171 -2.4535
 9632TIP3   OH253090   1.765   3.181  13.024 -0.0714  0.2859 -0.3696
 9632TIP3    H153091   1.687   3.235  13.017 -0.1021  0.3134  0.1116
 9632TIP3    H253092   1.771   3.134  12.941 -1.3105 -0.6882  0.0741
 9633TIP3   OH253093   4.564   3.385  11.207 -0.2603 -0.2927 -0.1990
 9633TIP3    H153094   4.476   3.348  11.208  0.0140 -0.9479  0.9351
 9633TIP3    H253095   4.594   3.373  11.117 -1.0641 -0.6864 -0.4228
 9634TIP3   OH253096   5.755   4.276  10.466  0.6570 -0.6285  0.1756
 9634TIP3    H153097   5.742   4.300  10.374  1.6270 -0.0976  0.1665
 9634TIP3    H253098   5.690   4.207  10.482 -1.7147  1.4444 -0.0038
 9635TIP3   OH253099   3.290   0.624  12.714 -0.3026 -0.1018  0.0023
 9635TIP3    H153100   3.385   0.629  12.712 -0.3684  1.9038 -0.5706
 9635TIP3    H253101   3.261   0.706  12.674 -2.2744 -1.2291 -1.0460
 9636TIP3   OH253102   4.394   2.488  12.533  0.2079  0.0267 -0.2621
 9636TIP3    H153103   4.421   2.520  12.447  1.7464 -0.6917 -0.0755
 9636TIP3    H253104   4.309   2.446  12.517 -0.9019  2.3657 -0.8659
 9637TIP3   OH253105   1.749   4.221  11.164  0.0973 -0.0330 -0.2703
 9637TIP3    H153106   1.767   4.247  11.073  1.9721 -0.7318 -0.1299
 9637TIP3    H253107   1.668   4.268  11.186 -0.3363  0.2550 -2.2436
 9638TIP3   OH253108   0.421   3.156  12.065  0.4339 -0.1124  0.0964
 9638TIP3    H153109   0.428   3.065  12.094  1.7760 -0.1119 -0.1425
 9638TIP3    H253110   0.474   3.206  12.127  1.2476  0.2372 -0.8505
 9639TIP3   OH253111   6.690   1.130  10.307 -0.1354  0.1230  0.0753
 9639TIP3    H153112   6.728   1.129  10.219  0.1336 -0.4152  0.1894
 9639TIP3    H253113   6.604   1.170  10.296 -0.8296 -1.5003 -0.7465
 9640TIP3   OH253114   0.155   1.011   9.361  0.1568 -0.0923  0.2118
 9640TIP3    H153115   0.225   0.973   9.308  0.1824 -0.9708  0.8400
 9640TIP3    H253116   0.162   1.105   9.347  2.4324 -0.0118  1.3675
 9641TIP3   OH253117   2.585   2.291  11.337 -0.3997  0.1589 -0.5001
 9641TIP3    H153118   2.612   2.351  11.406  0.9208 -0.5094 -0.4171
 9641TIP3    H253119   2.515   2.239  11.377 -0.4533  0.5683 -0.0579
 9642TIP3   OH253120   5.116   0.540  10.578  0.1501  0.9098  0.2547
 9642TIP3    H153121   5.199   0.551  10.624  0.8307 -0.0013 -0.7182
 9642TIP3    H253122   5.104   0.445  10.574 -1.3558  1.0357  1.0929
 9643TIP3   OH253123   0.336   4.017  10.761 -0.3754 -0.4567 -0.2490
 9643TIP3    H153124   0.281   4.095  10.759  0.0123 -0.1881 -1.8947
 9643TIP3    H253125   0.277   3.947  10.790 -0.8333  0.3453  0.8182
 9644TIP3   OH253126   1.358   5.443  11.324 -0.5630  0.1116 -0.0482
 9644TIP3    H153127   1.278   5.436  11.375 -0.3861  1.3375  0.4148
 9644TIP3    H253128   1.355   5.531  11.285  0.7745  0.3652  0.3641
 9645TIP3   OH253129   2.797   2.258   9.468  0.2095  0.1625 -0.1256
 9645TIP3    H153130   2.870   2.278   9.411  0.5511  0.7710  0.5028
 9645TIP3    H253131   2.822   2.294   9.553  0.1149 -1.5239  0.6600
 9646TIP3   OH253132   2.139   3.871   9.171  0.0224  0.2144  0.0112
 9646TIP3    H153133   2.132   3.819   9.251  0.5041 -1.3454 -0.9260
 9646TIP3    H253134   2.059   3.923   9.169 -0.7768 -0.9561  0.6581
 9647TIP3   OH253135   5.917   4.529  10.278 -0.1106 -0.0264  0.0542
 9647TIP3    H153136   5.970   4.472  10.333  3.2128  0.6119 -2.2285
 9647TIP3    H253137   5.891   4.473  10.204 -0.5680  0.3153 -0.0476
 9648TIP3   OH253138   2.181   2.102   9.276 -0.4082  0.1475 -0.0831
 9648TIP3    H153139   2.257   2.052   9.303 -0.1074 -0.0607 -1.2599
 9648TIP3    H253140   2.107   2.043   9.292 -0.3458  0.3492  1.0559
 9649TIP3   OH253141   0.302   5.609  12.152 -0.0174  0.5811  0.3078
 9649TIP3    H153142   0.253   5.608  12.070 -1.4247  0.1659  1.1093
 9649TIP3    H253143   0.259   5.676  12.205 -0.1553 -0.2411  1.2747
 9650TIP3   OH253144   5.874   0.373  12.286  0.1053 -0.4587 -0.4241
 9650TIP3    H153145   5.783   0.352  12.265  0.1041 -1.0277  0.1422
 9650TIP3    H253146   5.904   0.424  12.210 -0.9779  0.6241 -0.1614
 9651TIP3   OH253147   4.347   5.902  10.184 -0.1927 -0.1721  0.2820
 9651TIP3    H153148   4.294   5.972  10.222  0.5377  0.1640  0.7032
 9651TIP3    H253149   4.340   5.914  10.089  0.3078  0.7712  0.3543
 9652TIP3   OH253150   2.040   3.045   9.646 -0.8702 -0.4414 -0.0066
 9652TIP3    H153151   2.025   2.957   9.611  0.4579 -1.0561  0.9129
 9652TIP3    H253152   2.040   3.033   9.741 -0.0222  0.4405  0.1128
 9653TIP3   OH253153   3.226   2.892  12.692 -0.1566 -0.5685  0.4710
 9653TIP3    H153154   3.247   2.978  12.655  0.2069 -1.6082 -1.9322
 9653TIP3    H253155   3.309   2.859  12.727 -0.4246  0.2699  1.9710
 9654TIP3   OH253156   0.672   4.959   9.690 -0.4845 -0.1941  0.4534
 9654TIP3    H153157   0.696   5.015   9.616 -0.2703 -0.8064  0.0447
 9654TIP3    H253158   0.734   4.886   9.685 -1.2984 -0.8960  0.4661
 9655TIP3   OH253159   6.649   6.291   9.273 -0.3493 -0.0464  0.1976
 9655TIP3    H153160   6.651   6.212   9.219  0.2796 -1.3389  2.0521
 9655TIP3    H253161   6.557   6.301   9.297 -0.4207 -0.2265  0.0021
 9656TIP3   OH253162   4.929   0.392   9.489  0.0363 -0.2941  0.2184
 9656TIP3    H153163   4.862   0.433   9.433 -0.2884 -0.9822  0.0987
 9656TIP3    H253164   4.885   0.377   9.572  0.9840  2.2903  1.3037
 9657TIP3   OH253165   1.076   6.194   9.764  0.1262 -0.2848  0.3624
 9657TIP3    H153166   1.016   6.248   9.713 -0.2554 -1.1136 -0.0934
 9657TIP3    H253167   1.099   6.122   9.705  0.8358 -0.4734  0.8572
 9658TIP3   OH253168   6.389   3.265  10.060 -0.4169  0.3744  0.2790
 9658TIP3    H153169   6.396   3.172  10.038  2.9571  0.3946  0.7659
 9658TIP3    H253170   6.362   3.307   9.978  2.3985 -0.6040 -1.2884
 9659TIP3   OH253171   5.238   4.812  10.594 -0.0546 -0.4619  0.4921
 9659TIP3    H153172   5.256   4.871  10.667 -0.9750  0.2130  0.1860
 9659TIP3    H253173   5.294   4.842  10.523 -0.7232  0.2386  0.2474
 9660TIP3   OH253174   0.136   3.505  12.383 -0.0276 -0.0914 -0.0745
 9660TIP3    H153175   0.133   3.411  12.402 -0.3580 -0.8040 -3.1085
 9660TIP3    H253176   0.055   3.540  12.421 -0.3845 -1.2368  0.2556
 9661TIP3   OH253177   3.541   6.552  12.798  0.3615  0.1619 -0.2892
 9661TIP3    H153178   3.621   6.514  12.834 -0.1947 -2.0974 -1.3041
 9661TIP3    H253179   3.493   6.478  12.761 -1.5857  1.6445 -0.9079
 9662TIP3   OH253180   3.497   6.491  12.436  0.5972  0.5385  0.1754
 9662TIP3    H153181   3.522   6.399  12.425 -0.7273  0.0083  1.3298
 9662TIP3    H253182   3.562   6.526  12.498  0.5272  0.1087  0.4968
 9663TIP3   OH253183   6.745   0.751  11.437 -0.0962  0.6901  0.8290
 9663TIP3    H153184   6.679   0.771  11.370  1.4135 -2.5735 -1.9807
 9663TIP3    H253185   6.823   0.799  11.410  0.6525 -0.9847 -0.2003
 9664TIP3   OH253186   5.447   2.021  10.671  0.8961 -0.7396  0.0625
 9664TIP3    H153187   5.476   1.976  10.592 -0.0024 -2.0035  0.4151
 9664TIP3    H253188   5.396   2.096  10.639  0.8309 -1.0496 -0.5618
 9665TIP3   OH253189   1.890   4.834  12.505  0.2163 -0.0762  0.1015
 9665TIP3    H153190   1.937   4.806  12.584 -1.6805 -1.6675  0.7551
 9665TIP3    H253191   1.959   4.854  12.442  1.8063 -2.2684  1.0057
 9666TIP3   OH253192   2.956   0.886   9.994  0.1123  0.4432  0.1825
 9666TIP3    H153193   3.042   0.907  10.028 -0.3186  1.7092  0.5527
 9666TIP3    H253194   2.970   0.869   9.901  0.9405 -0.7215  0.4879
 9667TIP3   OH253195   3.418   3.340  10.932  0.7194  0.3916 -0.1006
 9667TIP3    H153196   3.409   3.326  10.838  1.7358 -1.5031  0.0346
 9667TIP3    H253197   3.371   3.266  10.972 -0.4999  1.6682  0.9333
 9668TIP3   OH253198   3.623   2.374   9.609 -0.0729  0.5776 -0.1214
 9668TIP3    H153199   3.558   2.424   9.658 -0.8542  0.6741 -1.2027
 9668TIP3    H253200   3.662   2.314   9.673  0.3191  1.9921  1.0281
 9669TIP3   OH253201   5.205   0.102   9.795 -0.2693 -0.1971  0.5556
 9669TIP3    H153202   5.264   0.121   9.868  1.5005  0.5598 -1.0070
 9669TIP3    H253203   5.232   0.163   9.726 -2.0225 -0.7532 -0.6851
 9670TIP3   OH253204   3.981   1.943  11.998 -0.4472 -0.0765  0.1241
 9670TIP3    H153205   3.931   1.947  12.080  0.7289  0.0118  0.8747
 9670TIP3    H253206   4.054   1.884  12.019  0.5470  0.9185 -0.4745
 9671TIP3   OH253207   4.881   5.373   9.718 -0.0074 -0.4331 -0.1506
 9671TIP3    H153208   4.892   5.346   9.627 -1.5592 -2.5831  0.2260
 9671TIP3    H253209   4.853   5.294   9.763  2.5258  0.0813  2.6425
 9672TIP3   OH253210   6.403   3.211  10.894 -0.1782 -0.5758  0.2642
 9672TIP3    H153211   6.309   3.201  10.910 -0.4315 -0.0846 -0.8367
 9672TIP3    H253212   6.415   3.185  10.803  0.7158 -0.3685  0.3144
 9673TIP3   OH253213   4.749   0.385   9.790  0.4990  0.1058  0.6605
 9673TIP3    H153214   4.758   0.302   9.836 -1.1557  0.2978  1.4112
 9673TIP3    H253215   4.741   0.450   9.859 -1.9197  0.4139  0.1869
 9674TIP3   OH253216   0.890   5.608  10.550  0.4044 -0.0064 -0.1939
 9674TIP3    H153217   0.915   5.538  10.611  0.9895  0.0982 -0.3022
 9674TIP3    H253218   0.902   5.570  10.463 -0.4182 -0.1509 -0.2475
 9675TIP3   OH253219   6.569   1.075  11.172  0.4213  0.1455  0.4119
 9675TIP3    H153220   6.548   0.984  11.193 -0.9533  0.1917 -0.5950
 9675TIP3    H253221   6.610   1.110  11.251  0.9027 -1.3286  0.8252
 9676TIP3   OH253222   0.525   1.066  10.596  0.0441 -0.1084 -0.1451
 9676TIP3    H153223   0.501   1.121  10.522 -0.5656  0.4319  0.4456
 9676TIP3    H253224   0.592   1.117  10.642  0.8363 -0.6884 -0.6153
 9677TIP3   OH253225   6.303   6.670  10.715  0.6856  0.1546 -0.7019
 9677TIP3    H153226   6.396   6.674  10.693  1.1043 -0.3662  0.8840
 9677TIP3    H253227   6.281   6.577  10.710  0.4400  0.1900 -0.3354
 9678TIP3   OH253228   3.219   3.879  11.717  0.1794 -0.4528  0.6557
 9678TIP3    H153229   3.194   3.930  11.794  1.1588  0.1327  0.6103
 9678TIP3    H253230   3.142   3.828  11.695  0.2132 -1.4452  2.6537
 9679TIP3   OH253231   6.165   5.737  10.621  0.2463 -0.1790 -0.4039
 9679TIP3    H153232   6.089   5.789  10.595  1.2378  0.9883 -1.0672
 9679TIP3    H253233   6.175   5.673  10.551 -1.4699 -1.8711  0.8163
 9680TIP3   OH253234   4.833   1.799  10.682  0.0500 -0.6377 -0.2560
 9680TIP3    H153235   4.927   1.821  10.680 -0.4517  2.0895  1.1579
 9680TIP3    H253236   4.824   1.741  10.757  0.4550  0.2192  0.4846
 9681TIP3   OH253237   6.268   1.108  10.310 -0.2211  0.2042  0.2311
 9681TIP3    H153238   6.292   1.027  10.265 -3.2033 -0.0627 -1.0798
 9681TIP3    H253239   6.243   1.081  10.398 -0.2275 -0.1298  0.1260
 9682TIP3   OH253240   0.437   6.199  12.292  0.2094 -0.1252 -0.1385
 9682TIP3    H153241   0.403   6.285  12.318 -0.4783 -0.5675  0.4717
 9682TIP3    H253242   0.373   6.166  12.229 -0.0965 -0.6277  0.4203
 9683TIP3   OH253243   5.821   3.080  11.015  0.2406 -0.2090 -0.0849
 9683TIP3    H153244   5.832   3.000  10.965  3.7823  1.0618 -1.6728
 9683TIP3    H253245   5.900   3.086  11.069 -0.0024  2.0665  0.1333
 9684TIP3   OH253246   4.311   5.177   9.546  0.3214 -0.2204 -0.2279
 9684TIP3    H153247   4.342   5.267   9.536  0.5653 -0.1283  1.1570
 9684TIP3    H253248   4.273   5.155   9.460  3.1585  0.0432 -1.6577
 9685TIP3   OH253249   0.174   4.208  12.617 -0.3093  0.3005 -0.0180
 9685TIP3    H153250   0.192   4.293  12.657 -1.4114  0.1435  0.8582
 9685TIP3    H253251   0.206   4.144  12.681 -0.9395  0.0542  0.0588
 9686TIP3   OH253252   4.690   4.526  11.845  0.0423 -0.4131 -0.0802
 9686TIP3    H153253   4.607   4.550  11.805  0.3521 -0.0227 -0.4934
 9686TIP3    H253254   4.756   4.567  11.790  0.5566 -1.5691 -0.3595
 9687TIP3   OH253255   4.410   6.394  11.214  0.7900 -0.3124  0.4555
 9687TIP3    H153256   4.352   6.454  11.261  0.1587  0.5662 -1.3261
 9687TIP3    H253257   4.368   6.383  11.128  1.7630 -2.0091  0.1491
 9688TIP3   OH253258   0.143   5.022   9.100 -0.3980 -0.1749 -0.4239
 9688TIP3    H153259   0.191   5.081   9.042  0.7151 -1.1238 -0.5034
 9688TIP3    H253260   0.187   5.030   9.185 -2.3695  1.6466  0.5342
 9689TIP3   OH253261   6.464   2.929  11.008 -0.3627 -0.0733  0.1490
 9689TIP3    H153262   6.418   2.887  11.082 -1.7679  0.0574 -0.6179
 9689TIP3    H253263   6.425   3.016  11.003 -1.1238 -0.4687 -1.4375
 9690TIP3   OH253264   6.355   3.132  10.638 -0.2045  0.4400 -0.2551
 9690TIP3    H153265   6.265   3.105  10.655  0.1916 -0.5517  0.3418
 9690TIP3    H253266   6.356   3.157  10.545 -0.6410 -1.4505 -0.7962
 9691TIP3   OH253267   6.200   1.877  11.531  0.1897 -0.2424  0.0895
 9691TIP3    H153268   6.260   1.933  11.579  0.1968 -0.8313  0.7833
 9691TIP3    H253269   6.120   1.877  11.584  0.1369 -0.7583  0.0112
 9692TIP3   OH253270   4.031   5.437  10.690  0.5509 -0.0941 -0.7023
 9692TIP3    H153271   4.061   5.526  10.668 -1.3822  1.3365  1.8116
 9692TIP3    H253272   4.032   5.435  10.785 -1.8630 -1.8469 -0.6220
 9693TIP3   OH253273   1.927   4.431  11.211  0.9069  1.2615 -0.0377
 9693TIP3    H153274   1.904   4.511  11.163  0.2770 -0.3738 -2.6594
 9693TIP3    H253275   1.854   4.371  11.195  2.7191 -0.8996 -0.8452
 9694TIP3   OH253276   6.463   0.919   9.424 -0.0746  0.3911 -0.2455
 9694TIP3    H153277   6.535   0.948   9.480 -0.2894  1.2884 -0.4064
 9694TIP3    H253278   6.444   0.995   9.369 -1.6504  0.4475  0.3222
 9695TIP3   OH253279   4.064   5.579  12.277 -0.7814 -0.8149  0.1433
 9695TIP3    H153280   4.002   5.648  12.252 -0.7529 -0.9845 -0.4133
 9695TIP3    H253281   4.091   5.540  12.193  3.7771  2.3464 -0.1765
 9696TIP3   OH253282   6.628   4.913   9.966 -0.0303  0.3317 -0.4504
 9696TIP3    H153283   6.668   4.838   9.922 -0.2542 -0.6582  0.9615
 9696TIP3    H253284   6.554   4.876  10.014  2.7095  0.3511  4.4482
 9697TIP3   OH253285   6.137   5.674   9.852 -0.0938  0.5275 -0.2458
 9697TIP3    H153286   6.134   5.695   9.946  2.7181 -0.8341  0.2643
 9697TIP3    H253287   6.068   5.728   9.813 -0.4707  2.1515  2.3949
 9698TIP3   OH253288   6.346   4.325  10.947  0.1136 -0.8305 -0.1658
 9698TIP3    H153289   6.360   4.317  10.852 -2.5864  0.1381 -0.7155
 9698TIP3    H253290   6.287   4.254  10.969 -0.5565 -0.0959  0.4722
 9699TIP3   OH253291   5.274   3.357  11.159  0.4117  0.6429 -0.0180
 9699TIP3    H153292   5.218   3.423  11.119  0.5811  0.8469  0.0775
 9699TIP3    H253293   5.231   3.336  11.242 -1.5548 -1.9435 -1.5543
 9700TIP3   OH253294   3.341   2.485   9.362  0.2484 -0.1695  0.6212
 9700TIP3    H153295   3.311   2.574   9.342 -1.9365 -0.5542  1.8598
 9700TIP3    H253296   3.284   2.456   9.433  1.5153 -2.2499  0.8714
 9701TIP3   OH253297   4.898   3.660  11.216 -0.2105  0.0735 -0.0174
 9701TIP3    H153298   4.910   3.749  11.250 -1.1192  0.6039 -1.0404
 9701TIP3    H253299   4.803   3.646  11.217 -0.0533 -1.0800  0.5953
 9702TIP3   OH253300   3.745   5.726  10.658 -0.2106  0.6199 -0.4518
 9702TIP3    H153301   3.788   5.654  10.612 -0.2601  1.5810 -2.1025
 9702TIP3    H253302   3.729   5.693  10.747  0.0000 -1.2809 -1.0813
 9703TIP3   OH253303   4.165   4.951  11.058  0.0681 -0.2070  0.6067
 9703TIP3    H153304   4.256   4.921  11.054  0.6532  1.5357 -0.2161
 9703TIP3    H253305   4.113   4.878  11.025  1.1919 -1.1636  0.9285
 9704TIP3   OH253306   4.729   4.199  10.744 -0.2996 -0.2064  0.2678
 9704TIP3    H153307   4.650   4.193  10.796 -1.4320  0.8995 -1.2474
 9704TIP3    H253308   4.704   4.167  10.658  1.4145 -1.6112  0.2355
 9705TIP3   OH253309   4.230   3.052  12.259  0.1288 -0.3142 -0.0384
 9705TIP3    H153310   4.307   3.063  12.203 -0.2736 -0.1485 -0.5635
 9705TIP3    H253311   4.266   3.020  12.342  0.7633 -0.2490 -0.2799
 9706TIP3   OH253312   5.103   6.284  11.442 -1.1182  0.2591 -0.1890
 9706TIP3    H153313   5.065   6.305  11.527 -0.1986  0.3447  0.2141
 9706TIP3    H253314   5.182   6.234  11.462  0.1696  1.9118 -0.9025
 9707TIP3   OH253315   5.285   0.691  11.252 -0.0336 -0.2277  0.7140
 9707TIP3    H153316   5.269   0.628  11.183 -2.1844 -0.7795  1.6453
 9707TIP3    H253317   5.360   0.742  11.221  0.6850 -2.1049 -0.8248
 9708TIP3   OH253318   4.741   2.704   9.774  0.7687 -0.0213 -0.2917
 9708TIP3    H153319   4.671   2.724   9.837 -1.3592 -0.4273 -2.4134
 9708TIP3    H253320   4.773   2.790   9.746 -1.2087  0.2989 -1.7231
 9709TIP3   OH253321   5.934   4.020  11.306  0.2412 -0.2598 -0.1248
 9709TIP3    H153322   5.938   4.108  11.267 -1.2136 -0.7008 -1.3640
 9709TIP3    H253323   5.985   4.028  11.386 -0.9578  2.1267  0.5332
 9710TIP3   OH253324   0.937   4.965  10.524 -0.5395 -0.2840 -0.1905
 9710TIP3    H153325   0.901   5.047  10.557 -0.3408 -0.0745 -0.4864
 9710TIP3    H253326   0.993   4.933  10.595 -0.2446  0.0783 -0.2519
 9711TIP3   OH253327   3.142   0.522   9.448 -0.4501 -0.2740 -0.0958
 9711TIP3    H153328   3.143   0.578   9.370 -1.4184  0.4601  0.3970
 9711TIP3    H253329   3.217   0.551   9.499 -1.1044  0.8210  0.2947
 9712TIP3   OH253330   1.532   0.341  11.974 -0.2365  1.1763 -0.1066
 9712TIP3    H153331   1.438   0.342  11.991 -0.3495 -0.8861 -0.3975
 9712TIP3    H253332   1.566   0.414  12.026 -1.7065  0.4916  1.9455
 9713TIP3   OH253333   3.121   5.503  12.154  0.0647 -0.0409  0.0843
 9713TIP3    H153334   3.076   5.588  12.152 -1.7584 -0.9379  1.2230
 9713TIP3    H253335   3.122   5.475  12.062  0.3412  1.0168 -0.2544
 9714TIP3   OH253336   5.486   1.455  11.903 -0.0851 -0.0148 -0.1494
 9714TIP3    H153337   5.511   1.369  11.936  0.2380 -0.3391 -1.1847
 9714TIP3    H253338   5.398   1.443  11.869  0.2923 -0.1816 -1.1034
 9715TIP3   OH253339   3.263   1.936  10.296 -0.3668 -0.4529 -0.5951
 9715TIP3    H153340   3.201   1.871  10.329 -0.6833  0.6562  1.1456
 9715TIP3    H253341   3.349   1.905  10.325 -0.5219 -0.1273  0.2655
 9716TIP3   OH253342   2.262   2.677  12.616  0.3659  0.0526 -0.0853
 9716TIP3    H153343   2.254   2.614  12.545  0.8474 -0.5629  0.3916
 9716TIP3    H253344   2.254   2.624  12.696 -0.3385  0.7496  0.3301
 9717TIP3   OH253345   2.613   1.613   9.385  0.2046  0.1318  0.1000
 9717TIP3    H153346   2.646   1.529   9.418 -1.2359  0.5455  2.8073
 9717TIP3    H253347   2.683   1.675   9.403  0.5714 -0.1579 -0.2977
 9718TIP3   OH253348   2.759   6.436  11.821 -0.1858  0.1029 -0.4757
 9718TIP3    H153349   2.671   6.468  11.805 -0.3604  0.7244  1.4481
 9718TIP3    H253350   2.748   6.343  11.841 -0.5363  0.3725  0.6356
 9719TIP3   OH253351   1.233   5.221  10.095  1.0176 -0.3206  0.3657
 9719TIP3    H153352   1.250   5.245  10.186  0.8753  0.8764  0.0833
 9719TIP3    H253353   1.240   5.303  10.046 -2.1275 -0.3100 -0.2599
 9720TIP3   OH253354   3.213   6.004   9.847  0.2537 -0.5951  0.0609
 9720TIP3    H153355   3.133   6.033   9.804  0.5228  0.2162  0.0835
 9720TIP3    H253356   3.255   5.946   9.783  0.0548 -0.3594 -0.2882
 9721TIP3   OH253357   6.712   4.890  10.278 -0.1436  0.2259  0.3945
 9721TIP3    H153358   6.713   4.903  10.183 -1.3479  4.1566  0.7529
 9721TIP3    H253359   6.797   4.852  10.298  0.3288 -0.2618 -2.1883
 9722TIP3   OH253360   5.793   4.465  10.814  0.2881 -0.6949  0.4909
 9722TIP3    H153361   5.733   4.473  10.740 -0.1388  1.4233  1.0084
 9722TIP3    H253362   5.749   4.404  10.873 -0.4752 -0.5994  0.0440
 9723TIP3   OH253363   2.027   6.718  11.410 -0.3948  0.0746  0.0009
 9723TIP3    H153364   2.003   6.809  11.425  1.3974  0.9161 -1.6561
 9723TIP3    H253365   1.965   6.687  11.344 -1.0902  0.0296  0.6644
 9724TIP3   OH253366   3.308   2.344  11.041 -0.2527 -0.1706 -0.2983
 9724TIP3    H153367   3.225   2.339  10.993  1.1744  1.0230 -3.1440
 9724TIP3    H253368   3.357   2.267  11.011  0.0170 -0.3861  0.6722
 9725TIP3   OH253369   2.450   5.728  12.051  0.6390 -0.6177  0.3162
 9725TIP3    H153370   2.463   5.714  12.145 -0.5291  0.5845  0.6944
 9725TIP3    H253371   2.355   5.744  12.042  0.9444  0.8325 -0.8252
 9726TIP3   OH253372   5.294   4.373  10.319 -0.3666 -0.1942 -0.4893
 9726TIP3    H153373   5.353   4.351  10.391  1.9248  2.1346 -1.4969
 9726TIP3    H253374   5.276   4.289  10.276 -1.1037 -1.5033  2.2205
 9727TIP3   OH253375   6.551   3.383  12.305  0.0954  0.0973  0.0123
 9727TIP3    H153376   6.520   3.297  12.334  3.0498 -1.2283 -0.3071
 9727TIP3    H253377   6.588   3.423  12.383  2.2821 -0.7187 -0.5246
 9728TIP3   OH253378   5.868   1.516  10.339 -0.2226 -0.1097 -0.0110
 9728TIP3    H153379   5.916   1.433  10.347  1.8586  1.0751  0.5940
 9728TIP3    H253380   5.860   1.530  10.245  0.6899 -0.3217 -0.1299
 9729TIP3   OH253381   2.167   6.188  11.361  0.7294  0.3542 -0.4563
 9729TIP3    H153382   2.132   6.248  11.296 -1.8524  0.5397  0.9498
 9729TIP3    H253383   2.174   6.104  11.315 -0.2514  0.6646 -1.2204
 9730TIP3   OH253384   1.566   4.311  10.597  0.5885 -0.4070 -0.8599
 9730TIP3    H153385   1.616   4.355  10.528 -1.5686  1.4355 -1.3848
 9730TIP3    H253386   1.568   4.372  10.671 -2.4845  0.8033 -1.6098
 9731TIP3   OH253387   3.886   0.439  10.133 -0.5051 -0.6456 -0.1369
 9731TIP3    H153388   3.844   0.357  10.105 -1.4088 -1.1184  2.3633
 9731TIP3    H253389   3.855   0.453  10.222  0.0804  2.1694 -0.2774
 9732TIP3   OH253390   2.447   1.056  12.121  0.4183  0.2986  0.1357
 9732TIP3    H153391   2.483   1.015  12.043 -0.9396 -2.1579  0.6860
 9732TIP3    H253392   2.359   1.084  12.095  0.5973  1.0745  0.3319
 9733TIP3   OH253393   1.118   2.683  10.876 -0.1194  0.2417 -0.5569
 9733TIP3    H153394   1.172   2.629  10.934  1.3590  2.1928 -0.0123
 9733TIP3    H253395   1.029   2.651  10.890  0.5818 -1.4222  0.4009
 9734TIP3   OH253396   5.033   3.104  11.512 -0.1862 -0.1712  0.2269
 9734TIP3    H153397   5.036   3.020  11.556 -1.4387 -1.4030 -1.8705
 9734TIP3    H253398   4.996   3.165  11.576 -0.2903 -1.4533  1.4108
 9735TIP3   OH253399   3.595   3.297  11.913  0.2398 -0.0867  0.1032
 9735TIP3    H153400   3.597   3.281  11.818 -0.9707 -1.8041  0.3105
 9735TIP3    H253401   3.517   3.351  11.926 -0.6765 -1.3696  0.2469
 9736TIP3   OH253402   0.454   0.023  10.513  0.4435  0.4651 -0.0678
 9736TIP3    H153403   0.498   0.012  10.429 -1.5972 -1.6201 -0.9812
 9736TIP3    H253404   0.493   0.102  10.550  2.0943  0.9278 -2.5266
 9737TIP3   OH253405   4.164   3.732   9.535 -0.3348 -0.1595  0.1780
 9737TIP3    H153406   4.137   3.749   9.445  1.1254  0.7979 -0.1210
 9737TIP3    H253407   4.219   3.654   9.529 -1.9942 -1.4119  0.6057
 9738TIP3   OH253408   6.009   6.174  11.017  0.5682  0.0036  0.4864
 9738TIP3    H153409   5.967   6.197  10.934  1.2226  2.0089  0.6718
 9738TIP3    H253410   5.940   6.183  11.082  0.5165  0.2362  0.3989
 9739TIP3   OH253411   4.620   1.308  10.175  0.6837  0.0816  0.2979
 9739TIP3    H153412   4.534   1.267  10.161 -0.0297  1.1804  1.2963
 9739TIP3    H253413   4.621   1.332  10.268  0.3242  3.8325 -0.5156
 9740TIP3   OH253414   4.287   1.764  10.764 -0.1908 -0.2929 -0.0002
 9740TIP3    H153415   4.383   1.764  10.768 -0.0177  2.3950 -1.6343
 9740TIP3    H253416   4.259   1.822  10.834 -0.7287 -1.7318  1.0192
 9741TIP3   OH253417   3.463   0.178  12.011  0.0072  0.2820 -0.4111
 9741TIP3    H153418   3.550   0.195  12.047  0.4104 -1.5330 -0.4364
 9741TIP3    H253419   3.412   0.255  12.035  1.1080  0.5390  1.3097
 9742TIP3   OH253420   5.316   1.957   9.165  0.6104  0.4303  0.5602
 9742TIP3    H153421   5.412   1.959   9.172  0.5430  1.2124  1.5561
 9742TIP3    H253422   5.294   2.038   9.119  0.4708 -0.2656 -0.6435
 9743TIP3   OH253423   5.469   4.722  10.834 -0.3028  0.6712  0.0981
 9743TIP3    H153424   5.375   4.718  10.850 -0.2017  1.6247  1.0182
 9743TIP3    H253425   5.509   4.692  10.915  0.2513 -3.4664 -1.4488
 9744TIP3   OH253426   0.525   1.346  12.367  0.1227 -0.0336 -0.4381
 9744TIP3    H153427   0.546   1.297  12.287  0.6549  2.1039 -1.6981
 9744TIP3    H253428   0.605   1.341  12.420  0.3840 -0.0550 -0.8253
 9745TIP3   OH253429   2.408   5.244   9.614  0.0925  0.2927 -0.0671
 9745TIP3    H153430   2.436   5.334   9.601 -0.3822  0.4268 -0.1704
 9745TIP3    H253431   2.353   5.247   9.693  1.3504 -0.1744  0.8671
 9746TIP3   OH253432   1.940   1.905  11.149  0.7048 -0.1460  0.0107
 9746TIP3    H153433   1.881   1.980  11.160 -0.0836 -0.4429 -1.7132
 9746TIP3    H253434   1.885   1.839  11.105  1.8265 -1.1236  0.0465
 9747TIP3   OH253435   1.061   4.931  10.275  0.0529 -0.2115 -0.4897
 9747TIP3    H153436   1.010   4.930  10.356 -0.0141  0.5032 -0.5221
 9747TIP3    H253437   1.083   4.839  10.260 -0.7292 -0.4597 -0.1650
 9748TIP3   OH253438   5.343   3.864  10.185  0.6181 -0.4113 -0.0928
 9748TIP3    H153439   5.398   3.803  10.233  0.2194 -0.2944  0.5244
 9748TIP3    H253440   5.361   3.845  10.092  0.8670 -1.1204  0.0944
 9749TIP3   OH253441   4.321   2.055   9.680  0.1901 -0.8359 -0.5123
 9749TIP3    H153442   4.347   1.964   9.671 -2.1197 -1.6673  0.6343
 9749TIP3    H253443   4.314   2.069   9.774  1.4927  0.8693 -0.6147
 9750TIP3   OH253444   3.947   4.066  10.065 -0.4671 -0.5378 -0.1603
 9750TIP3    H153445   3.867   4.020  10.039 -0.0991 -0.4117 -1.6096
 9750TIP3    H253446   3.938   4.079  10.159 -1.3263 -2.1136 -0.0016
 9751TIP3   OH253447   2.664   3.661   9.463  0.5313  0.1106  0.4090
 9751TIP3    H153448   2.747   3.677   9.419  0.7881 -1.2097  0.3701
 9751TIP3    H253449   2.597   3.690   9.401  0.9447  0.1804 -0.0049
 9752TIP3   OH253450   3.194   2.674  10.363  0.2892 -0.5344  0.1665
 9752TIP3    H153451   3.279   2.643  10.392  0.6987  1.0489  0.7621
 9752TIP3    H253452   3.157   2.719  10.439  0.6435  2.2033 -1.1689
 9753TIP3   OH253453   4.354   0.768  11.537  0.8328 -0.7306 -0.1725
 9753TIP3    H153454   4.441   0.788  11.504  1.4630 -1.3365  1.0923
 9753TIP3    H253455   4.341   0.675  11.516  0.2657 -0.5240 -0.8031
 9754TIP3   OH253456   3.207   4.174  11.225 -0.4125 -0.0972  0.4533
 9754TIP3    H153457   3.280   4.151  11.282  0.6412 -0.2377 -0.9139
 9754TIP3    H253458   3.140   4.107  11.243  0.8321 -1.5642 -0.1683
 9755TIP3   OH253459   4.472   3.134  11.694 -0.0169  0.3240  0.2480
 9755TIP3    H153460   4.434   3.085  11.768 -0.8191  0.1142 -0.2857
 9755TIP3    H253461   4.470   3.072  11.621 -1.7258  1.3483 -0.6323
 9756TIP3   OH253462   5.852   5.052   9.060  0.3135  0.2355 -0.7673
 9756TIP3    H153463   5.898   5.110   8.999 -0.7605 -0.9207 -2.7395
 9756TIP3    H253464   5.796   5.111   9.111  3.1354  1.5690  1.0713
 9757TIP3   OH253465   1.445   2.528  11.143 -0.1530  0.5848  0.1177
 9757TIP3    H153466   1.454   2.613  11.187 -1.1679  1.7156 -1.7356
 9757TIP3    H253467   1.482   2.541  11.056 -1.2052 -0.5624 -0.5457
 9758TIP3   OH253468   1.659   4.103  10.001 -0.0943 -0.4098 -0.5071
 9758TIP3    H153469   1.632   4.185  10.043  0.2198 -1.0604  1.0434
 9758TIP3    H253470   1.597   4.092   9.929 -0.5531  0.8440 -0.3400
 9759TIP3   OH253471   1.877   3.963   9.500  0.1971  0.5120 -0.3342
 9759TIP3    H153472   1.859   3.978   9.408  0.8938  2.9635 -0.1691
 9759TIP3    H253473   1.820   4.026   9.546  1.2050  0.6677  0.7661
 9760TIP3   OH253474   5.601   6.334  10.326  0.2182  0.3512  0.3531
 9760TIP3    H153475   5.591   6.421  10.287  1.1960  0.5261  0.4701
 9760TIP3    H253476   5.603   6.350  10.421  0.6517  0.2271  0.3650
 9761TIP3   OH253477   2.756   6.728  11.848 -0.5741  0.2676  0.1606
 9761TIP3    H153478   2.779   6.652  11.794 -1.3101  0.2641 -0.1581
 9761TIP3    H253479   2.777   6.702  11.937 -0.9409 -0.3586  0.0684
 9762TIP3   OH253480   2.939   0.086   9.533 -0.4606  0.0733 -0.0372
 9762TIP3    H153481   2.856   0.041   9.547 -1.4789  0.6944 -3.2628
 9762TIP3    H253482   2.918   0.179   9.544  0.4034  0.1119  1.4587
 9763TIP3   OH253483   1.653   6.716   9.002  0.0541 -0.2551  0.4111
 9763TIP3    H153484   1.666   6.755   8.915 -1.0433  0.3116  0.4857
 9763TIP3    H253485   1.738   6.678   9.024  0.2621 -0.6973 -1.0484
 9764TIP3   OH253486   6.091   2.553  10.761 -0.7257  0.1105 -0.8254
 9764TIP3    H153487   6.027   2.555  10.690 -1.9756  2.2240  0.2849
 9764TIP3    H253488   6.043   2.580  10.838  1.1461  0.1215  0.3936
 9765TIP3   OH253489   6.639   1.722  10.139 -0.1475  0.1613  0.0662
 9765TIP3    H153490   6.591   1.720  10.222 -2.7831  1.4553 -1.2672
 9765TIP3    H253491   6.612   1.642  10.094  1.1381 -0.4505  0.3356
 9766TIP3   OH253492   2.490   4.722   9.777 -0.2501  0.3290  0.2123
 9766TIP3    H153493   2.508   4.636   9.739 -0.2997  0.8159 -0.9494
 9766TIP3    H253494   2.571   4.772   9.764  0.3036  0.0299  2.2042
 9767TIP3   OH253495   1.090   2.215   9.385 -0.4299  0.2317  0.7429
 9767TIP3    H153496   1.028   2.287   9.370  1.2105  1.0960 -3.0518
 9767TIP3    H253497   1.171   2.259   9.409  0.3517 -0.3684 -0.7096
 9768TIP3   OH253498   3.283   0.748  10.817 -0.3838 -0.0594 -0.1851
 9768TIP3    H153499   3.376   0.768  10.825 -0.7531  1.3892  1.0061
 9768TIP3    H253500   3.272   0.665  10.862  0.1542  0.3922  0.8027
 9769TIP3   OH253501   2.412   6.314  10.189 -0.1128 -0.3187  0.4459
 9769TIP3    H153502   2.476   6.243  10.190  2.1457  1.5618 -0.5294
 9769TIP3    H253503   2.347   6.288  10.124  1.4194 -0.9186 -0.8902
 9770TIP3   OH253504   2.419   1.988   9.359  0.0920  0.1346 -0.2990
 9770TIP3    H153505   2.418   2.018   9.450 -1.7999  0.0607 -0.2658
 9770TIP3    H253506   2.506   2.012   9.327  0.4135  1.1106  1.2124
 9771TIP3   OH253507   1.744   5.579  11.029 -0.1978  0.0872 -0.0256
 9771TIP3    H153508   1.754   5.536  10.944  0.1872 -2.4701  1.2218
 9771TIP3    H253509   1.670   5.638  11.017 -0.8829 -1.0459 -1.8314
 9772TIP3   OH253510   5.676   6.585  10.653  0.0412 -0.0933  0.4260
 9772TIP3    H153511   5.716   6.669  10.633 -1.7647  0.9678  1.0133
 9772TIP3    H253512   5.627   6.600  10.734 -2.4152 -0.9260 -0.7821
 9773TIP3   OH253513   5.169   2.615   9.660 -0.1824 -0.2801  0.5366
 9773TIP3    H153514   5.136   2.701   9.635  1.7491 -0.0855 -1.6605
 9773TIP3    H253515   5.091   2.561   9.670 -1.3259  1.1046 -0.5871
 9774TIP3   OH253516   3.151   5.623   9.713 -0.2119 -0.4860 -0.2776
 9774TIP3    H153517   3.237   5.586   9.696  0.0900 -0.1531  0.5059
 9774TIP3    H253518   3.144   5.697   9.653 -0.6893 -1.5538 -1.6253
 9775TIP3   OH253519   6.667   2.160  11.566 -0.0360 -0.1575  0.0430
 9775TIP3    H153520   6.715   2.213  11.502 -2.1307  1.6964 -0.1121
 9775TIP3    H253521   6.666   2.214  11.645 -0.0980 -1.0869  0.6965
 9776TIP3   OH253522   0.530   0.753   9.473 -0.3888  0.5289 -0.1194
 9776TIP3    H153523   0.522   0.677   9.414  1.6851 -1.7728  2.3452
 9776TIP3    H253524   0.472   0.732   9.546  0.1329  1.3811  0.5460
 9777TIP3   OH253525   0.252   3.660  10.403  0.0088  0.3313 -0.4244
 9777TIP3    H153526   0.251   3.746  10.361 -1.9789  1.3519  1.4914
 9777TIP3    H253527   0.181   3.612  10.361 -0.6368  0.6199  0.3130
 9778TIP3   OH253528   2.653   4.356   9.906  0.2065 -0.0427  0.5231
 9778TIP3    H153529   2.721   4.302   9.865  2.2482  1.7980  1.2413
 9778TIP3    H253530   2.609   4.399   9.833 -0.4303 -1.4981  0.0276
 9779TIP3   OH253531   5.154   6.098  10.097  0.0488  0.0550 -0.0194
 9779TIP3    H153532   5.224   6.065  10.041  1.2379 -0.0513  1.4561
 9779TIP3    H253533   5.199   6.134  10.173 -1.4411  1.2934  0.3416
 9780TIP3   OH253534   4.539   2.245  11.283 -0.4096  0.0139  0.3635
 9780TIP3    H153535   4.465   2.229  11.224 -0.3097  0.0948  0.2132
 9780TIP3    H253536   4.616   2.217  11.233 -0.4510 -1.4171  1.0488
 9781TIP3   OH253537   5.423   3.910  10.782  0.6160 -0.4128 -0.5543
 9781TIP3    H153538   5.514   3.934  10.803  0.8385 -0.0154 -1.9036
 9781TIP3    H253539   5.371   3.971  10.835  1.1473  0.0445 -0.5415
 9782TIP3   OH253540   0.667   1.036   9.807  0.4902 -0.4341 -0.2057
 9782TIP3    H153541   0.613   1.069   9.735  2.2045  2.5309 -0.3036
 9782TIP3    H253542   0.622   1.064   9.886 -0.0593 -1.3889 -0.1714
 9783TIP3   OH253543   2.287   1.937  11.122  0.5947 -0.0850  0.0761
 9783TIP3    H153544   2.218   1.913  11.184  2.0969  0.0451  1.9171
 9783TIP3    H253545   2.271   1.882  11.045 -1.2070 -0.4351  0.6547
 9784TIP3   OH253546   0.524   0.990  11.344  0.0388  0.7682 -0.2937
 9784TIP3    H153547   0.487   0.902  11.342 -0.3672  0.7345  2.8942
 9784TIP3    H253548   0.612   0.980  11.308 -0.2320 -0.7895 -0.6092
 9785TIP3   OH253549   5.035   5.307  11.699 -0.0801  0.0584 -0.0156
 9785TIP3    H153550   5.130   5.311  11.689 -0.1892  1.2354 -0.7557
 9785TIP3    H253551   5.013   5.382  11.753 -0.6250  0.0222 -0.1828
 9786TIP3   OH253552   6.366   2.751  11.755  0.4244  0.3453 -0.3184
 9786TIP3    H153553   6.441   2.692  11.759  0.3337  0.1733 -0.9622
 9786TIP3    H253554   6.290   2.694  11.760  0.3119  0.5909  1.2776
 9787TIP3   OH253555   1.202   5.954  11.923  0.4207  0.4550  0.5202
 9787TIP3    H153556   1.153   6.033  11.949  1.8925  1.7176 -0.3822
 9787TIP3    H253557   1.214   5.906  12.005  0.9041  2.0026  1.4032
 9788TIP3   OH253558   2.344   6.545  10.308 -0.1353 -0.1115 -0.4226
 9788TIP3    H153559   2.367   6.469  10.255  2.4185  0.6788 -0.5760
 9788TIP3    H253560   2.381   6.526  10.394 -0.9584  0.2536  0.0251
 9789TIP3   OH253561   2.490   3.196  11.806  0.0028 -0.1003  0.3323
 9789TIP3    H153562   2.449   3.265  11.755  0.9232  0.7490  0.7031
 9789TIP3    H253563   2.583   3.202  11.784  0.2357 -0.5456  1.1345
 9790TIP3   OH253564   3.824   4.626  10.165 -0.1054  0.0856  0.0606
 9790TIP3    H153565   3.901   4.621  10.221 -1.0392  0.3336  1.4293
 9790TIP3    H253566   3.852   4.589  10.081  1.0075 -1.4617  1.0648
 9791TIP3   OH253567   2.709   3.732  10.658 -0.3591  0.2606 -0.3641
 9791TIP3    H153568   2.721   3.678  10.736  2.1439 -1.9587 -2.1019
 9791TIP3    H253569   2.651   3.680  10.602 -0.8873  1.1161 -0.6254
 9792TIP3   OH253570   6.382   5.514  12.558  0.0636 -0.6766 -0.2025
 9792TIP3    H153571   6.311   5.473  12.607  0.1831 -3.9745 -2.4706
 9792TIP3    H253572   6.389   5.602  12.595 -3.0465 -1.2795  2.2352
 9793TIP3   OH253573   1.868   4.007   9.811 -0.4221  0.2917  0.5236
 9793TIP3    H153574   1.825   4.031   9.893  0.0836 -0.3162  0.9736
 9793TIP3    H253575   1.812   3.938   9.774 -1.3167  1.3906 -0.2663
 9794TIP3   OH253576   6.186   5.684   9.304  0.2896 -0.2203 -0.6018
 9794TIP3    H153577   6.237   5.757   9.269  0.7471 -0.8605 -1.3019
 9794TIP3    H253578   6.248   5.611   9.308 -0.2534 -0.6744 -0.2795
 9795TIP3   OH253579   5.631   4.506  11.329 -0.4933 -0.1181 -0.2061
 9795TIP3    H153580   5.705   4.531  11.274 -0.5395 -0.1236 -0.2712
 9795TIP3    H253581   5.669   4.490  11.415 -0.1461 -1.8332 -0.6416
 9796TIP3   OH253582   3.257   2.119  10.746 -0.1490  0.0350  0.3896
 9796TIP3    H153583   3.349   2.108  10.769  0.6660 -0.0144 -2.5492
 9796TIP3    H253584   3.237   2.210  10.768 -0.2338 -0.6060  3.4107
 9797TIP3   OH253585   4.815   2.139   8.937  0.2803  0.8894  0.5484
 9797TIP3    H153586   4.806   2.204   9.007 -2.1894  1.9445 -0.6469
 9797TIP3    H253587   4.733   2.144   8.888  2.0409  0.5881 -2.7597
 9798TIP3   OH253588   2.200   5.274  12.244 -0.7544  0.0132 -0.2304
 9798TIP3    H153589   2.180   5.237  12.330  0.4454  1.6920  0.8451
 9798TIP3    H253590   2.290   5.246  12.227 -0.8036  0.1369 -0.6924
 9799TIP3   OH253591   3.994   0.046  12.251  0.7945  0.0295  0.5060
 9799TIP3    H153592   3.917  -0.009  12.260  0.2659  0.5224 -0.7447
 9799TIP3    H253593   3.977   0.120  12.310 -0.3605  0.8148 -0.7311
 9800TIP3   OH253594   5.698   4.917  11.703  0.2985  0.1151 -0.2932
 9800TIP3    H153595   5.790   4.892  11.710  0.1995 -0.4571 -0.9273
 9800TIP3    H253596   5.697   4.989  11.641  0.4065  0.6617  0.3337
 9801TIP3   OH253597   5.191   2.634  10.290 -0.0319  1.1849 -0.1850
 9801TIP3    H153598   5.177   2.627  10.196 -0.5652  0.1747 -0.0424
 9801TIP3    H253599   5.213   2.726  10.304  1.4211  1.0722 -1.4657
 9802TIP3   OH253600   2.668   5.566  10.571 -0.4117 -0.2116  0.2858
 9802TIP3    H153601   2.719   5.636  10.611 -0.0423  1.7601 -3.2217
 9802TIP3    H253602   2.720   5.487  10.587  2.5580  1.3281 -0.9397
 9803TIP3   OH253603   4.812   6.477  12.014  0.0904 -0.5280 -0.5718
 9803TIP3    H153604   4.802   6.501  12.107  0.3547 -0.1673 -0.6346
 9803TIP3    H253605   4.794   6.558  11.967  0.8640 -0.4806 -0.7936
 9804TIP3   OH253606   0.386   6.647  11.561  0.3251 -0.0953 -0.2328
 9804TIP3    H153607   0.390   6.599  11.644  1.6806  0.1281 -0.1565
 9804TIP3    H253608   0.418   6.585  11.495  1.1600  0.3696 -0.2771
 9805TIP3   OH253609   4.027   3.565   9.341 -1.0011 -0.8262 -0.0716
 9805TIP3    H153610   3.948   3.614   9.366 -1.8207 -2.4744  0.7268
 9805TIP3    H253611   4.001   3.473   9.346  0.7353 -1.3893 -0.6687
 9806TIP3   OH253612   1.172   2.709  11.695  0.1233  0.4105  0.3470
 9806TIP3    H153613   1.138   2.670  11.775 -0.7710  0.5381  0.0384
 9806TIP3    H253614   1.256   2.748  11.721  0.5361 -0.7862  0.8891
 9807TIP3   OH253615   3.770   4.470  12.079 -0.1842 -0.8694  0.1050
 9807TIP3    H153616   3.863   4.479  12.098  0.1452  0.6429 -1.9777
 9807TIP3    H253617   3.731   4.446  12.164  1.9538 -0.7222  1.2028
 9808TIP3   OH253618   2.514   6.167  10.469 -0.4646 -0.3311 -0.5794
 9808TIP3    H153619   2.554   6.195  10.386 -1.4172  0.3960 -0.8163
 9808TIP3    H253620   2.519   6.244  10.525  0.2431 -0.8443  0.0749
 9809TIP3   OH253621   6.503   6.410   9.688 -0.1485  0.1280 -0.2961
 9809TIP3    H153622   6.574   6.462   9.724  0.6475 -0.6782 -0.6563
 9809TIP3    H253623   6.444   6.474   9.648 -0.4117  0.9348  1.3085
 9810TIP3   OH253624   3.944   1.038   9.993 -0.0002  0.0667 -0.3130
 9810TIP3    H153625   4.012   1.105  10.002  0.5221 -0.3969 -0.7148
 9810TIP3    H253626   3.982   0.974   9.932 -1.0312  0.0815 -0.9823
 9811TIP3   OH253627   5.428   2.264  11.145 -0.3320 -0.1011 -0.2436
 9811TIP3    H153628   5.417   2.254  11.050  0.8042  1.6174 -0.5961
 9811TIP3    H253629   5.511   2.220  11.164  0.8111  1.8180 -0.5406
 9812TIP3   OH253630   3.315   5.487  10.378 -0.3763  0.2851 -0.1493
 9812TIP3    H153631   3.311   5.557  10.313 -0.3153  1.9278  1.5076
 9812TIP3    H253632   3.373   5.521  10.446 -0.2213 -1.4641  0.6534
 9813TIP3   OH253633   2.416   3.919   9.072 -0.3794 -0.0134  0.1616
 9813TIP3    H153634   2.330   3.901   9.034  0.5352 -2.7119 -0.8460
 9813TIP3    H253635   2.398   3.983   9.141 -2.9729  0.5075 -0.8414
 9814TIP3   OH253636   3.879   3.638  11.083  0.2889 -0.2195  0.3757
 9814TIP3    H153637   3.812   3.589  11.035 -0.2240  0.9452 -0.1431
 9814TIP3    H253638   3.851   3.633  11.175 -0.2030 -0.2107  0.2294
 9815TIP3   OH253639   0.772   4.605  13.060  0.5949 -0.1950  0.2090
 9815TIP3    H153640   0.867   4.608  13.064  0.5612 -0.5622  2.5415
 9815TIP3    H253641   0.750   4.648  12.977  2.7642 -0.0625 -0.3561
 9816TIP3   OH253642   0.097   0.230  11.954 -0.8192  0.4182 -0.5053
 9816TIP3    H153643   0.047   0.282  12.017  3.4032  1.5662  2.3436
 9816TIP3    H253644   0.153   0.294  11.909  0.8657 -1.0664 -0.6449
 9817TIP3   OH253645   4.669   3.656   8.997  0.3930 -0.2050 -0.4531
 9817TIP3    H153646   4.713   3.643   8.913  0.3859 -0.5792 -0.4009
 9817TIP3    H253647   4.730   3.620   9.061  1.6370  2.4630 -0.0050
 9818TIP3   OH253648   3.079   1.220   9.854 -0.1016  0.0079  0.2917
 9818TIP3    H153649   3.090   1.134   9.894 -1.2837 -1.6644 -2.5949
 9818TIP3    H253650   2.987   1.242   9.869 -0.8623 -1.1340 -2.0688
 9819TIP3   OH253651   6.285   3.044  11.416 -0.6530  0.7414 -0.1972
 9819TIP3    H153652   6.192   3.049  11.437 -0.5740 -0.4541  0.5471
 9819TIP3    H253653   6.328   3.034  11.501  0.1426  1.0586 -0.5482
 9820TIP3   OH253654   5.347   5.742  10.664  0.1905 -0.4323  0.0887
 9820TIP3    H153655   5.364   5.802  10.591  0.3182  0.3872  0.7754
 9820TIP3    H253656   5.355   5.797  10.742  1.8218 -1.6375  0.8347
 9821TIP3   OH253657   1.798   1.278  10.630  0.2193  0.6428  0.1255
 9821TIP3    H153658   1.803   1.291  10.536  1.6715 -1.8707 -0.2434
 9821TIP3    H253659   1.706   1.258  10.647 -0.0158  0.9273 -0.7853
 9822TIP3   OH253660   2.832   4.206   9.776 -0.4390  0.1597 -0.1603
 9822TIP3    H153661   2.860   4.115   9.764 -0.9115  0.0888 -0.7518
 9822TIP3    H253662   2.910   4.258   9.756 -0.0388 -0.1314  0.6318
 9823TIP3   OH253663   0.100   6.254  12.343  0.0351 -0.3110 -0.4196
 9823TIP3    H153664   0.013   6.284  12.368  0.3223 -1.7246  2.6936
 9823TIP3    H253665   0.160   6.316  12.386  0.5732 -0.8448 -0.3937
 9824TIP3   OH253666   3.915   1.959   9.921  0.4219  0.0348  0.1738
 9824TIP3    H153667   3.845   1.922   9.867  0.8367 -1.4136  0.5815
 9824TIP3    H253668   3.955   2.026   9.866  0.0419 -0.5586 -0.8606
 9825TIP3   OH253669   2.906   3.633   9.322 -0.6670  0.0484 -0.0111
 9825TIP3    H153670   2.987   3.612   9.369 -0.2036  0.2662 -0.7060
 9825TIP3    H253671   2.882   3.551   9.278  0.4310  0.5558 -1.6558
 9826TIP3   OH253672   4.821   3.294  11.360 -0.5303  0.3887 -0.0004
 9826TIP3    H153673   4.788   3.209  11.387  0.2954  0.0288 -0.0774
 9826TIP3    H253674   4.746   3.338  11.320 -0.9783 -0.2829  0.0915
 9827TIP3   OH253675   2.597   6.093  10.215 -1.0700 -0.2415  0.6215
 9827TIP3    H153676   2.601   6.014  10.269 -0.9123 -0.8818 -0.3067
 9827TIP3    H253677   2.680   6.093  10.167 -1.7427 -0.3926 -0.5835
 9828TIP3   OH253678   6.510   4.085  10.187 -0.1767  0.0902 -0.1724
 9828TIP3    H153679   6.539   4.004  10.145 -0.2705 -1.1011  1.9120
 9828TIP3    H253680   6.590   4.131  10.210 -0.0273 -0.6741  0.9099
 9829TIP3   OH253681   5.898   2.561  11.351  0.3238 -0.1265 -0.6134
 9829TIP3    H153682   5.950   2.485  11.324 -0.1436 -0.5131 -0.4337
 9829TIP3    H253683   5.807   2.536  11.332  0.1600  0.3527 -0.4680
 9830TIP3   OH253684   4.936   0.142   9.906 -0.0768 -0.5534  0.4569
 9830TIP3    H153685   4.892   0.060   9.885 -0.4885  0.0443 -1.1405
 9830TIP3    H253686   5.025   0.131   9.873  0.3608 -0.9397  1.7091
 9831TIP3   OH253687   4.046   5.764  11.968  0.2325  0.4264 -0.0457
 9831TIP3    H153688   4.000   5.782  12.050  1.6953  0.9425  0.6908
 9831TIP3    H253689   4.073   5.850  11.936  0.8937  0.1193 -0.3315
 9832TIP3   OH253690   4.932   6.489   9.467 -0.2723 -0.0162 -0.0639
 9832TIP3    H153691   4.840   6.502   9.491 -0.0936 -1.2474  1.4646
 9832TIP3    H253692   4.976   6.567   9.499 -0.7552  0.5043 -0.6492
 9833TIP3   OH253693   1.502   4.724  12.003  0.1527 -0.0979  0.3851
 9833TIP3    H153694   1.518   4.817  11.987 -0.3473 -0.6254 -5.3330
 9833TIP3    H253695   1.581   4.680  11.972 -0.4547 -1.6547  0.9456
 9834TIP3   OH253696   4.501   0.993  10.370  0.0966  0.2643  0.1794
 9834TIP3    H153697   4.454   0.974  10.451  0.7450 -1.5176  0.1942
 9834TIP3    H253698   4.456   1.068  10.332 -0.7281  0.6107  1.7755
 9835TIP3   OH253699   3.489   6.637  12.049  0.5216  0.3170  0.1978
 9835TIP3    H153700   3.517   6.711  12.103 -0.9867  1.2544 -0.2616
 9835TIP3    H253701   3.444   6.677  11.975  0.2344 -1.0551 -0.3931
 9836TIP3   OH253702   0.484   2.951  10.157  0.3399 -0.2885  0.1579
 9836TIP3    H153703   0.476   2.994  10.072 -1.2196 -1.1966 -0.1956
 9836TIP3    H253704   0.563   2.989  10.196 -0.1713  1.8479 -0.7153
 9837TIP3   OH253705   6.560   5.251  10.867  0.0914  0.1865 -0.0174
 9837TIP3    H153706   6.605   5.330  10.839  1.2504 -0.4790 -0.0788
 9837TIP3    H253707   6.526   5.213  10.785 -0.4230  0.5838  0.0066
 9838TIP3   OH253708   5.155   1.276   9.434  0.4869  0.4777 -0.3123
 9838TIP3    H153709   5.189   1.194   9.400 -0.9374 -0.5250  0.5589
 9838TIP3    H253710   5.113   1.252   9.517 -0.8643  1.8949 -0.5400
 9839TIP3   OH253711   1.256   1.903   9.935  0.1439 -0.2371  0.0409
 9839TIP3    H153712   1.177   1.855   9.962  0.1687 -0.4833 -0.3192
 9839TIP3    H253713   1.232   1.943   9.852 -0.0641  0.8553  0.6151
 9840TIP3   OH253714   2.734   1.474   9.750  0.3752 -0.0446  0.3176
 9840TIP3    H153715   2.778   1.525   9.681  1.8323 -1.4868  0.1244
 9840TIP3    H253716   2.652   1.445   9.710 -0.5409  2.1429  0.4571
 9841TIP3   OH253717   2.203   0.801  11.352 -0.0115  0.1793  0.0859
 9841TIP3    H153718   2.168   0.862  11.287 -1.7325  0.5085  1.2522
 9841TIP3    H253719   2.254   0.856  11.411  0.5005  0.0691 -0.2391
 9842TIP3   OH253720   2.911   0.149  10.001  0.3030  0.0882 -0.4943
 9842TIP3    H153721   2.850   0.140  10.074 -0.6225  0.5768 -1.1853
 9842TIP3    H253722   2.874   0.219   9.947  0.9892 -0.2241 -1.4041
 9843TIP3   OH253723   2.147   2.728  11.562 -0.4801 -0.0954  0.0038
 9843TIP3    H153724   2.207   2.728  11.636 -0.5895 -2.2787  0.1413
 9843TIP3    H253725   2.196   2.769  11.490 -0.5322  2.4772  1.3319
 9844TIP3   OH253726   6.028   4.701   9.271  0.8118  0.0926  0.4851
 9844TIP3    H153727   6.085   4.683   9.346 -0.0010  0.6387  1.2559
 9844TIP3    H253728   6.016   4.796   9.272  0.8457  0.1162 -0.3941
 9845TIP3   OH253729   2.495   1.895  11.577 -0.0953 -0.0933  0.1252
 9845TIP3    H153730   2.577   1.916  11.532  0.2764 -2.2164 -0.3266
 9845TIP3    H253731   2.433   1.878  11.507 -0.0560 -1.4626  0.3849
 9846TIP3   OH253732   6.041   3.121  11.799 -0.1123  0.3509  0.2978
 9846TIP3    H153733   6.014   3.199  11.751 -0.6198  1.4542  2.2481
 9846TIP3    H253734   5.969   3.059  11.787  0.5175 -0.0479 -1.6705
 9847TIP3   OH253735   2.862   6.044  10.750  0.0857 -0.0847  0.0212
 9847TIP3    H153736   2.860   6.081  10.838 -0.5892 -1.1271  0.4680
 9847TIP3    H253737   2.921   6.102  10.701  0.4594  0.5228  1.1417
 9848TIP3   OH253738   1.770   3.676  12.681  0.0973 -0.3130 -0.5636
 9848TIP3    H153739   1.733   3.610  12.623  0.2127 -0.1057 -0.8757
 9848TIP3    H253740   1.768   3.636  12.768 -0.3522 -0.5098 -0.6633
 9849TIP3   OH253741   5.977   5.177   9.563  0.2873  0.0489 -0.1312
 9849TIP3    H153742   5.941   5.168   9.651  1.2634 -0.6868  0.2048
 9849TIP3    H253743   5.919   5.124   9.508 -1.0821  1.5249 -0.1769
 9850TIP3   OH253744   6.564   0.122  11.012  0.3582 -0.6160  0.1060
 9850TIP3    H153745   6.488   0.160  11.056 -0.5091 -1.3179 -0.7746
 9850TIP3    H253746   6.557   0.152  10.921  0.9932 -0.8945 -0.0388
 9851TIP3   OH253747   5.621   4.713  12.748 -0.1222 -1.0229  0.2392
 9851TIP3    H153748   5.556   4.675  12.807 -1.1662 -0.3766 -0.4534
 9851TIP3    H253749   5.664   4.781  12.800 -0.3708 -1.0966  0.5438
 9852TIP3   OH253750   1.982   1.571  10.461 -0.0414  0.3768 -0.2584
 9852TIP3    H153751   2.005   1.480  10.444  0.3384  0.4080  0.0562
 9852TIP3    H253752   1.887   1.575  10.451  0.0547  0.1754 -1.3339
 9853TIP3   OH253753   0.749   3.181  10.852  0.7283 -0.5215 -0.0233
 9853TIP3    H153754   0.797   3.164  10.933  1.0053 -0.6333 -0.2108
 9853TIP3    H253755   0.811   3.227  10.797  0.5449 -0.4627 -0.1819
 9854TIP3   OH253756   5.821   0.740   9.080  0.0077 -0.0296  0.0424
 9854TIP3    H153757   5.755   0.671   9.080 -0.0708  0.0435  0.2245
 9854TIP3    H253758   5.843   0.753   8.988  1.6467 -1.8419  0.0884
 9855TIP3   OH253759   0.060   5.649   9.332 -0.1482  0.4772 -0.2934
 9855TIP3    H153760   0.117   5.574   9.315 -0.8042 -0.1683  0.2860
 9855TIP3    H253761  -0.017   5.611   9.375 -0.3126  1.5386  0.3665
 9856TIP3   OH253762   4.811   6.727  11.837  0.3215 -0.3555 -0.4710
 9856TIP3    H153763   4.899   6.748  11.804  0.6992 -2.0204 -0.5797
 9856TIP3    H253764   4.769   6.682  11.764 -0.4942  0.0616 -0.2647
 9857TIP3   OH253765   4.309   1.560  12.089  0.2160 -0.2417 -0.1448
 9857TIP3    H153766   4.377   1.497  12.115  0.2368  0.3846  1.4182
 9857TIP3    H253767   4.227   1.511  12.098  0.1041  0.2584  2.4019
 9858TIP3   OH253768   3.633   3.245   9.591  0.0740 -0.3867 -0.2243
 9858TIP3    H153769   3.626   3.156   9.627  0.4591 -0.1691  0.4095
 9858TIP3    H253770   3.546   3.264   9.557 -0.5111 -0.3591  1.1923
 9859TIP3   OH253771   0.335   3.683  11.875  0.6840 -0.5918  0.0309
 9859TIP3    H153772   0.293   3.653  11.795  1.2236  0.3395 -0.6262
 9859TIP3    H253773   0.282   3.647  11.945 -0.1088 -0.9853 -0.7542
 9860TIP3   OH253774   1.335   4.274   9.444  0.6711  0.0867  0.1688
 9860TIP3    H153775   1.302   4.358   9.414  0.7208 -0.0146 -0.1775
 9860TIP3    H253776   1.402   4.250   9.379 -0.4324 -0.9607 -0.6126
 9861TIP3   OH253777   3.728   1.766  12.030 -0.3500  0.7078 -0.2546
 9861TIP3    H153778   3.641   1.728  12.017  0.1602 -0.7221  0.2927
 9861TIP3    H253779   3.761   1.724  12.110  0.0417  2.7648  0.7285
 9862TIP3   OH253780   0.899   5.471  12.403  0.4554 -0.9520  0.5599
 9862TIP3    H153781   0.948   5.409  12.458 -1.6106 -2.0025  1.3359
 9862TIP3    H253782   0.938   5.556  12.422  0.1833 -1.3564  3.2942
 9863TIP3   OH253783   0.404   1.484   9.349  0.5748  0.4873 -0.1341
 9863TIP3    H153784   0.372   1.574   9.348  3.0991  1.5189  1.8743
 9863TIP3    H253785   0.498   1.492   9.364  0.9970 -2.4887 -0.6053
 9864TIP3   OH253786   4.521   4.690   9.540  0.4936 -0.6398  0.0437
 9864TIP3    H153787   4.445   4.635   9.524  0.6564 -0.6954 -0.5564
 9864TIP3    H253788   4.580   4.673   9.466  0.2068  0.9198 -0.5970
 9865TIP3   OH253789   3.863   2.520  11.582  0.2277  0.5315  0.3397
 9865TIP3    H153790   3.916   2.476  11.648  0.8123  1.9856  0.8915
 9865TIP3    H253791   3.807   2.580  11.632 -0.4699  0.4992 -0.3831
 9866TIP3   OH253792   5.898   0.818  10.523  0.0323  0.2881 -0.0447
 9866TIP3    H153793   5.982   0.835  10.481  0.1800 -0.7236 -0.1921
 9866TIP3    H253794   5.869   0.735  10.484 -1.1972  0.7985 -0.2570
 9867TIP3   OH253795   2.960   3.784  11.791 -0.5163 -0.6424 -0.0012
 9867TIP3    H153796   2.917   3.826  11.716 -1.9821  1.3765  1.8503
 9867TIP3    H253797   2.942   3.841  11.865  3.6642 -0.7610  1.4020
 9868TIP3   OH253798   5.763   2.467  10.131  0.7020 -0.5437 -0.2647
 9868TIP3    H153799   5.812   2.412  10.069  0.2803 -1.5203  0.2475
 9868TIP3    H253800   5.820   2.541  10.147  1.6630 -1.2526 -0.3180
 9869TIP3   OH253801   1.031   5.270  12.550 -0.2423 -0.6205  0.2435
 9869TIP3    H153802   1.054   5.290  12.641 -1.2532 -0.3309  0.4479
 9869TIP3    H253803   1.116   5.262  12.505  0.3478 -2.5399  1.5590
 9870TIP3   OH253804   5.187   3.343   9.314  0.1211  0.1333 -0.1870
 9870TIP3    H153805   5.172   3.413   9.251  0.7878 -0.4424 -0.9986
 9870TIP3    H253806   5.263   3.372   9.365 -1.5905  1.5338  1.7531
 9871TIP3   OH253807   3.817   4.359  11.445 -0.4493  0.0989  0.2886
 9871TIP3    H153808   3.825   4.267  11.419 -2.4713  0.1993 -0.8675
 9871TIP3    H253809   3.725   4.368  11.470 -0.2587  1.8045  0.4473
 9872TIP3   OH253810   5.281   2.234  11.761  0.3366 -0.4504  0.6526
 9872TIP3    H153811   5.262   2.324  11.736 -0.6008 -0.9549 -0.5436
 9872TIP3    H253812   5.373   2.222  11.736  0.2658 -0.0300  0.1612
 9873TIP3   OH253813   6.740   3.630  11.437 -0.6799  0.6653  0.2389
 9873TIP3    H153814   6.763   3.692  11.368 -1.6580 -0.3165 -1.0351
 9873TIP3    H253815   6.823   3.593  11.466 -0.3195 -0.9243 -2.4130
 9874TIP3   OH253816   1.392   5.549  10.328 -0.2024 -0.7642  0.7526
 9874TIP3    H153817   1.421   5.599  10.252 -1.4337 -2.6877 -1.0729
 9874TIP3    H253818   1.428   5.597  10.403  1.5884  0.8592 -1.0263
 9875TIP3   OH253819   0.628   3.002  11.826 -0.0474 -0.1552 -0.1151
 9875TIP3    H153820   0.604   2.965  11.911 -1.1245  1.5072  0.3458
 9875TIP3    H253821   0.554   2.979  11.769 -0.0903  0.1250 -0.1723
 9876TIP3   OH253822   5.430   5.940  11.170 -0.4062  0.2477 -0.4286
 9876TIP3    H153823   5.410   6.031  11.147 -1.7259  0.4554  1.3309
 9876TIP3    H253824   5.467   5.946  11.258  0.0341 -0.8757 -0.5274
 9877TIP3   OH253825   0.048   5.619  11.057  0.3407  0.0110 -0.0480
 9877TIP3    H153826  -0.022   5.639  11.119  0.2006  0.0618 -0.2218
 9877TIP3    H253827   0.117   5.580  11.111 -0.5168 -1.6834 -0.1214
 9878TIP3   OH253828   5.580   6.087  12.378  0.6615  0.6847 -0.5567
 9878TIP3    H153829   5.675   6.090  12.371  0.6945  0.4961 -0.2256
 9878TIP3    H253830   5.561   5.996  12.402  0.3242  0.4410 -1.6809
 9879TIP3   OH253831   4.984   3.909  11.324 -0.2586  0.0800 -0.1423
 9879TIP3    H153832   5.040   3.842  11.363  0.0277  0.8246  0.7745
 9879TIP3    H253833   4.951   3.959  11.399  0.9260  2.0680 -0.8631
 9880TIP3   OH253834   3.858   2.075  11.053  0.3395  0.1634  0.3117
 9880TIP3    H153835   3.869   1.987  11.017  1.1456 -0.1183  1.2078
 9880TIP3    H253836   3.803   2.064  11.130 -1.6794  0.8167 -0.9387
 9881TIP3   OH253837   1.930   0.212  11.560 -0.5568  0.0049 -0.4308
 9881TIP3    H153838   1.905   0.304  11.550  1.2627  0.7856  1.5222
 9881TIP3    H253839   2.011   0.204  11.511  0.2736 -0.0287  0.8925
 9882TIP3   OH253840   5.607   2.075   9.630 -0.0311  0.4397 -0.2587
 9882TIP3    H153841   5.513   2.067   9.615  0.2463 -1.1164 -1.4519
 9882TIP3    H253842   5.633   1.991   9.667  1.0915  0.3056 -1.2872
 9883TIP3   OH253843   1.746   3.555  11.191 -0.0831  1.0045  0.0467
 9883TIP3    H153844   1.684   3.618  11.227 -0.1415 -0.0542  1.9330
 9883TIP3    H253845   1.692   3.480  11.166  0.1690  1.0555 -0.6908
 9884TIP3   OH253846   4.703   1.437   9.805  0.0503  0.0556 -0.7488
 9884TIP3    H153847   4.699   1.497   9.879  1.6719  1.1684 -1.4918
 9884TIP3    H253848   4.666   1.355   9.837 -2.0052  1.3648  0.3781
 9885TIP3   OH253849   0.775   3.599   9.895 -0.1484  0.2773 -0.1243
 9885TIP3    H153850   0.863   3.632   9.877 -0.4085  0.4630 -1.1238
 9885TIP3    H253851   0.785   3.544   9.972  1.3028 -1.6003 -1.5567
 9886TIP3   OH253852   4.393   6.190   9.818 -0.0352  0.3377 -0.2416
 9886TIP3    H153853   4.454   6.121   9.791 -0.0247  0.4498 -0.4989
 9886TIP3    H253854   4.441   6.239   9.885  0.1185  0.3601 -0.3679
 9887TIP3   OH253855   5.055   1.281   9.989 -0.2011 -0.0405  0.2583
 9887TIP3    H153856   5.034   1.273   9.896  0.1591 -1.7580  0.2988
 9887TIP3    H253857   4.987   1.340  10.023 -0.1130  0.9264 -1.1430
 9888TIP3   OH253858   1.894   5.009  10.739 -0.4295  0.7497  0.4622
 9888TIP3    H153859   1.827   4.976  10.680 -0.6235  1.7486  0.1006
 9888TIP3    H253860   1.968   4.949  10.728 -1.7140 -1.1932  1.9079
 9889TIP3   OH253861   5.607   3.819  12.419  0.0951  0.7366 -0.4897
 9889TIP3    H153862   5.517   3.841  12.442 -1.0642 -2.7198 -1.1579
 9889TIP3    H253863   5.659   3.849  12.493 -2.2001 -0.9106  1.9525
 9890TIP3   OH253864   3.215   0.349  12.349 -0.2743  0.0324  1.4268
 9890TIP3    H153865   3.300   0.390  12.366  0.2927 -0.0313 -0.8739
 9890TIP3    H253866   3.196   0.300  12.429  3.1420 -2.0851  1.1741
 9891TIP3   OH253867   5.885   0.013  10.563  0.0035  0.1563 -0.0510
 9891TIP3    H153868   5.922   0.062  10.636  0.3687  0.3715 -0.3765
 9891TIP3    H253869   5.946  -0.059  10.549  0.1222  0.3135 -0.3647
 9892TIP3   OH253870   2.554   3.600   9.887  0.1602 -0.2681  0.1995
 9892TIP3    H153871   2.594   3.590   9.974  1.2775 -0.6295 -0.3429
 9892TIP3    H253872   2.505   3.519   9.874  2.5775 -1.6662 -0.7936
 9893TIP3   OH253873   0.967   0.874  11.536 -0.0667  0.0441 -0.5924
 9893TIP3    H153874   0.916   0.812  11.588  1.8809  0.9553  2.7279
 9893TIP3    H253875   0.908   0.947  11.520 -0.9695 -0.6069 -0.3016
 9894TIP3   OH253876   6.710   4.964   9.624 -0.1585  0.6591 -0.3931
 9894TIP3    H153877   6.768   4.912   9.679 -2.2556 -1.7640 -0.2836
 9894TIP3    H253878   6.631   4.976   9.678 -0.4599  2.3994 -1.1436
 9895TIP3   OH253879   3.187   1.896  10.591  0.5160  0.4261  0.1011
 9895TIP3    H153880   3.232   1.818  10.622  0.3637 -0.0803 -0.9199
 9895TIP3    H253881   3.204   1.962  10.659  0.9901 -0.3637  0.7703
 9896TIP3   OH253882   2.421   2.672  10.217  0.0457 -0.3066 -0.0015
 9896TIP3    H153883   2.450   2.681  10.308 -0.6744 -0.4788  0.2498
 9896TIP3    H253884   2.327   2.690  10.220  0.0110 -0.3532 -0.7075
 9897TIP3   OH253885   4.486   3.344   9.893  0.4939 -0.0976 -0.0179
 9897TIP3    H153886   4.433   3.377   9.820 -2.9436 -0.7655  1.9664
 9897TIP3    H253887   4.472   3.407   9.963  1.1955 -1.0777  1.0442
 9898TIP3   OH253888   0.907   1.977   9.686  0.2726  0.0058 -0.0161
 9898TIP3    H153889   0.834   1.964   9.747 -0.0017 -0.9147 -0.5132
 9898TIP3    H253890   0.977   2.011   9.741 -0.1845 -0.1518  0.6918
 9899TIP3   OH253891   2.329   6.183  11.570  0.2250  0.0980  0.2612
 9899TIP3    H153892   2.293   6.182  11.481  0.8911  1.4377 -0.0528
 9899TIP3    H253893   2.345   6.091  11.590 -1.2279 -0.3461 -0.4553
 9900TIP3   OH253894   5.626   3.907  10.318  0.5895 -0.6443  0.4517
 9900TIP3    H153895   5.585   3.978  10.367  1.4594 -0.1936  0.5463
 9900TIP3    H253896   5.719   3.929  10.316  0.7852 -1.4473 -0.0817
 9901TIP3   OH253897   2.361   0.128  10.866 -0.1434 -0.3750  0.1105
 9901TIP3    H153898   2.381   0.221  10.854  0.6941 -0.5393  0.1587
 9901TIP3    H253899   2.280   0.128  10.917  0.1445  0.3354  0.6003
 9902TIP3   OH253900   1.187   3.716  10.787  0.2480 -0.1515 -0.2510
 9902TIP3    H153901   1.100   3.721  10.747 -0.3876  0.0943  1.0987
 9902TIP3    H253902   1.203   3.804  10.821  0.7514 -0.3562  0.0555
 9903TIP3   OH253903   5.719   3.075  11.603  0.4151 -0.5179 -0.2886
 9903TIP3    H153904   5.767   3.143  11.650  0.8645 -0.7507 -0.4161
 9903TIP3    H253905   5.676   3.024  11.671 -0.4332  0.2550 -0.2070
 9904TIP3   OH253906   0.290   2.804   9.732  0.2298  1.1310  0.3523
 9904TIP3    H153907   0.353   2.875   9.748  0.9170  0.3223  1.3485
 9904TIP3    H253908   0.247   2.791   9.817  1.0828 -0.5488  0.5505
 9905TIP3   OH253909   0.267   2.783  10.103  0.1499 -0.1324  0.1954
 9905TIP3    H153910   0.185   2.767  10.055  0.4676 -1.4031  0.0557
 9905TIP3    H253911   0.261   2.875  10.129 -0.1721  0.5548 -2.0415
 9906TIP3   OH253912   6.130   1.427  11.721 -0.5631 -0.3839  0.0013
 9906TIP3    H153913   6.161   1.344  11.684  0.3293  0.0145 -0.1528
 9906TIP3    H253914   6.123   1.486  11.646 -0.0874  0.0201  0.2738
 9907TIP3   OH253915   2.194   1.208   9.668  0.1606  0.0497  0.0247
 9907TIP3    H153916   2.174   1.296   9.697  1.4724  0.1818  0.6246
 9907TIP3    H253917   2.158   1.203   9.579 -0.3274  1.0264  0.1578
 9908TIP3   OH253918   4.637   5.761  10.372  0.1117  0.3948  0.0326
 9908TIP3    H153919   4.625   5.742  10.465  1.8790 -0.8789  0.0493
 9908TIP3    H253920   4.681   5.846  10.370  1.3974 -0.2353  0.4603
 9909TIP3   OH253921   5.425   3.119  11.452 -0.3335 -0.0254  0.4345
 9909TIP3    H153922   5.372   3.045  11.423 -0.9937 -0.2012  1.9918
 9909TIP3    H253923   5.511   3.081  11.472  1.0138  0.4868 -3.5007
 9910TIP3   OH253924   6.533   2.909  10.634 -0.2128  0.2362 -0.0007
 9910TIP3    H153925   6.511   2.998  10.606 -1.3160  0.2833  0.9487
 9910TIP3    H253926   6.610   2.921  10.690  1.0282  0.3097 -1.6224
 9911TIP3   OH253927   0.247   5.820  10.278  0.1660  0.2832  0.4370
 9911TIP3    H153928   0.207   5.890  10.226  0.9536  0.5243  0.1513
 9911TIP3    H253929   0.332   5.854  10.304 -0.4525  0.4343  2.4636
 9912TIP3   OH253930   2.599   5.767  11.187 -0.2697 -0.5965 -0.1121
 9912TIP3    H153931   2.694   5.773  11.189 -0.3261  0.7631  1.3481
 9912TIP3    H253932   2.569   5.858  11.184 -1.5250 -1.0053 -0.8090
 9913TIP3   OH253933   4.878   2.671  11.773 -0.3973  0.3405  0.0011
 9913TIP3    H153934   4.812   2.621  11.821 -1.3177  1.4546 -0.0504
 9913TIP3    H253935   4.830   2.711  11.700  0.2344  1.4977  0.1924
 9914TIP3   OH253936   0.983   3.278  12.181 -0.5086  0.4239  0.1997
 9914TIP3    H153937   1.037   3.204  12.208 -1.4279 -0.6406 -0.7708
 9914TIP3    H253938   0.909   3.277  12.242 -0.2662  0.8752  0.5086
 9915TIP3   OH253939   0.057   3.595   9.327  0.2394  0.0824 -0.0605
 9915TIP3    H153940   0.016   3.586   9.241 -0.5436  1.9044  0.0656
 9915TIP3    H253941  -0.009   3.640   9.380  0.9501 -0.4424  1.3134
 9916TIP3   OH253942   4.608   5.907   9.542  0.0526  0.4941  0.0092
 9916TIP3    H153943   4.699   5.925   9.518  0.1385 -1.0826 -1.0242
 9916TIP3    H253944   4.561   5.989   9.527  0.9533  0.7895 -1.3008
 9917TIP3   OH253945   4.006   6.392  11.758 -0.3382  0.3245  0.1293
 9917TIP3    H153946   3.911   6.397  11.742 -0.2448  0.0383 -0.5566
 9917TIP3    H253947   4.017   6.426  11.847 -1.0013  1.0717 -0.0619
 9918TIP3   OH253948   5.253   0.994   9.973 -0.2808  0.3333  0.1348
 9918TIP3    H153949   5.266   1.089   9.974 -1.2717  0.4787  0.1725
 9918TIP3    H253950   5.267   0.970   9.881 -1.7266  0.7879 -0.2346
 9919TIP3   OH253951   4.072   4.349  10.282 -0.1162 -0.3258 -0.2371
 9919TIP3    H153952   4.167   4.335  10.277  0.0498  0.7397 -0.4823
 9919TIP3    H253953   4.035   4.262  10.293  0.7416 -1.0081 -2.2689
 9920TIP3   OH253954   5.852   4.348  10.104  0.0322 -0.5947 -0.1802
 9920TIP3    H153955   5.877   4.263  10.069  0.2948  0.3435 -2.4315
 9920TIP3    H253956   5.756   4.346  10.104 -0.0169 -1.7778  2.2482
 9921TIP3   OH253957   1.454   6.267  11.922 -0.2322  0.0315 -0.2323
 9921TIP3    H153958   1.410   6.263  12.007  0.8412  3.7515  0.6862
 9921TIP3    H253959   1.538   6.225  11.936  0.2460  1.2919  0.8353
 9922TIP3   OH253960   4.596   4.301  10.378 -0.8172 -0.8385  0.3154
 9922TIP3    H153961   4.635   4.290  10.291  0.2597 -0.3625  0.7154
 9922TIP3    H253962   4.647   4.243  10.434 -0.4177  0.0604  0.9164
 9923TIP3   OH253963   0.527   0.585  10.999  0.0347  0.6693 -0.0937
 9923TIP3    H153964   0.546   0.491  10.991  0.2201  0.7962 -1.3683
 9923TIP3    H253965   0.535   0.603  11.093  0.6126 -0.4597  0.0949
 9924TIP3   OH253966   3.429   5.373  11.203 -0.2656  0.5186 -0.2698
 9924TIP3    H153967   3.519   5.363  11.236  0.1939  0.5589 -1.4704
 9924TIP3    H253968   3.426   5.317  11.126 -1.0617  1.0831 -0.6598
 9925TIP3   OH253969   6.248   1.190  11.624  0.4648  0.0268 -0.7093
 9925TIP3    H153970   6.304   1.165  11.550  0.7866 -0.0272 -0.4511
 9925TIP3    H253971   6.263   1.123  11.690  0.0933  0.0146 -0.6346
 9926TIP3   OH253972   1.642   4.054  10.624  0.3996  0.4662 -0.3704
 9926TIP3    H153973   1.686   4.058  10.708  1.0308 -0.8710 -0.6101
 9926TIP3    H253974   1.603   4.141  10.613  1.6146  1.1647  0.5773
 9927TIP3   OH253975   3.181   2.035  11.100  0.1522 -0.3213 -0.7056
 9927TIP3    H153976   3.116   2.050  11.032 -0.5167 -0.3130 -0.0820
 9927TIP3    H253977   3.130   2.007  11.176  0.8659 -0.1847 -0.1638
 9928TIP3   OH253978   0.097   4.754  11.464 -0.1933 -0.1890 -0.3945
 9928TIP3    H153979   0.079   4.677  11.410  0.4462  0.2466 -1.2571
 9928TIP3    H253980   0.030   4.752  11.532 -0.1646 -1.5202 -0.3860
 9929TIP3   OH253981   3.983   3.977   9.182 -0.0795 -0.0265  0.7057
 9929TIP3    H153982   3.939   3.932   9.111  2.6327 -2.0871  0.1324
 9929TIP3    H253983   3.942   3.944   9.262 -1.5686  0.5047  0.1807
 9930TIP3   OH253984   3.961   2.289  10.762 -0.4681 -0.1131 -0.2085
 9930TIP3    H153985   3.868   2.299  10.745 -0.1012 -0.9783 -3.2773
 9930TIP3    H253986   4.003   2.356  10.708  0.7352 -0.1401  0.6351
 9931TIP3   OH253987   2.311   6.008   9.348  0.3004  0.1194 -0.0244
 9931TIP3    H153988   2.236   6.028   9.292  1.7265  0.9211 -1.7515
 9931TIP3    H253989   2.301   6.067   9.422 -1.1564 -0.3340  0.1916
 9932TIP3   OH253990   4.847   4.782  11.207 -0.2988  0.7374  0.0742
 9932TIP3    H153991   4.863   4.824  11.123 -0.1126  1.2756  0.3711
 9932TIP3    H253992   4.913   4.819  11.266 -0.3586  0.2916  0.4330
 9933TIP3   OH253993   3.004   6.561  11.787 -0.1714 -0.1189  0.1933
 9933TIP3    H153994   2.992   6.555  11.693 -0.1458  0.3962  0.1553
 9933TIP3    H253995   2.951   6.489  11.823  1.3430 -1.5357 -0.3127
 9934TIP3   OH253996   3.480   1.333   9.339  0.1058 -0.3520  0.6769
 9934TIP3    H153997   3.431   1.335   9.422 -2.3187  0.0183 -0.6636
 9934TIP3    H253998   3.460   1.248   9.301 -1.3251  0.6188 -0.8744
 9935TIP3   OH253999   3.297   4.762  11.525  0.2656 -0.1984 -0.4876
 9935TIP3    H154000   3.224   4.777  11.464  0.9548 -0.6204 -1.4433
 9935TIP3    H254001   3.358   4.833  11.507  0.7805 -0.7051 -0.7708
 9936TIP3   OH254002   3.270   0.367  12.067 -0.0802 -0.1592  0.4601
 9936TIP3    H154003   3.220   0.447  12.052 -2.6216 -2.0832 -2.5061
 9936TIP3    H254004   3.265   0.354  12.162 -2.8737  1.2639  0.6207
 9937TIP3   OH254005   3.683   4.811  10.323 -0.2834 -0.1122 -0.4213
 9937TIP3    H154006   3.705   4.742  10.259  0.1349 -0.7596  0.4076
 9937TIP3    H254007   3.691   4.768  10.408 -1.7314  0.4823  0.0478
 9938TIP3   OH254008   1.939   5.978  11.166  0.3311  0.3994  0.3595
 9938TIP3    H154009   2.012   5.916  11.164  0.8329  0.9191  1.5211
 9938TIP3    H254010   1.952   6.034  11.090  1.5146  0.8693  0.8832
 9939TIP3   OH254011   3.922   6.720   9.799  0.0132 -0.1804 -0.1110
 9939TIP3    H154012   3.851   6.779   9.773 -1.4065 -1.1415  1.3144
 9939TIP3    H254013   3.976   6.772   9.859 -0.8813 -0.1095  0.6654
 9940TIP3   OH254014   3.153   0.704  11.116 -0.1860 -0.3862  0.5341
 9940TIP3    H154015   3.225   0.768  11.117 -0.6640  0.1715  0.2945
 9940TIP3    H254016   3.177   0.642  11.047  0.3035 -0.4966  0.7940
 9941TIP3   OH254017   0.894   4.508  11.421 -0.0645 -0.3346  0.7916
 9941TIP3    H154018   0.981   4.544  11.405 -0.0163  0.3790  2.4559
 9941TIP3    H254019   0.861   4.486  11.334  0.7586  1.7676 -0.1194
 9942TIP3   OH254020   3.797   3.174  11.657 -0.0724  0.0812  0.1470
 9942TIP3    H154021   3.817   3.241  11.592 -1.1410  0.8038  0.5432
 9942TIP3    H254022   3.846   3.202  11.735 -0.6520  0.5170  0.3654
 9943TIP3   OH254023   1.265   1.386   9.988  0.3000 -0.1846  0.5055
 9943TIP3    H154024   1.217   1.448  10.043 -4.3228 -0.9881 -2.0876
 9943TIP3    H254025   1.298   1.320  10.049 -0.9197  1.0847  2.6651
 9944TIP3   OH254026   3.206   0.816  11.562 -0.1819 -0.3333  0.0215
 9944TIP3    H154027   3.155   0.877  11.508  0.7788 -0.6838 -1.3283
 9944TIP3    H254028   3.214   0.737  11.509  0.8955 -0.6502  0.6234
 9945TIP3   OH254029   1.416   1.428   9.749  0.3755 -0.6721 -0.3861
 9945TIP3    H154030   1.371   1.440   9.832  1.4741  1.0192  0.0143
 9945TIP3    H254031   1.366   1.482   9.687  1.0516  0.1659 -0.2224
 9946TIP3   OH254032   1.051   1.928  10.560 -0.4959  0.4573  0.3563
 9946TIP3    H154033   1.008   1.887  10.635  0.6744  0.1200  0.8715
 9946TIP3    H254034   1.142   1.898  10.565 -0.6017 -0.4130 -1.7932
 9947TIP3   OH254035   2.376   4.027   9.337 -0.6703 -0.0642  0.3942
 9947TIP3    H154036   2.394   4.102   9.393  0.1374  0.8781 -1.0372
 9947TIP3    H254037   2.282   4.031   9.321 -0.4039  1.8777 -1.2103
 9948TIP3   OH254038   4.468   4.385  10.038  0.9223 -0.0879 -0.1672
 9948TIP3    H154039   4.484   4.450   9.969 -0.4132  0.9892  0.5039
 9948TIP3    H254040   4.396   4.331  10.004  0.6378  0.0899  0.1571
 9949TIP3   OH254041   1.489   1.690   9.454 -0.1757  0.2687 -0.1959
 9949TIP3    H154042   1.481   1.767   9.399 -0.8035 -0.7280 -1.5426
 9949TIP3    H254043   1.404   1.646   9.446  1.3134 -2.4981 -2.4917
 9950TIP3   OH254044   1.205   6.656   9.504  0.4656  0.3295  0.3244
 9950TIP3    H154045   1.201   6.751   9.491  2.0649  0.3514 -0.2851
 9950TIP3    H254046   1.238   6.646   9.593 -0.8908  0.3157  0.8373
 9951TIP3   OH254047   1.805   0.249   9.616 -0.0600  0.7784  0.0875
 9951TIP3    H154048   1.897   0.275   9.611  1.8242 -4.3937  1.0424
 9951TIP3    H254049   1.795   0.212   9.704 -2.2856 -1.0026 -0.8001
 9952TIP3   OH254050   5.979   6.511  10.001  0.1347 -0.0191  0.0211
 9952TIP3    H154051   5.884   6.505   9.992  0.2333 -0.6772 -0.6840
 9952TIP3    H254052   5.998   6.605   9.994 -0.4256  0.0846 -0.1942
 9953TIP3   OH254053   5.067   1.481  10.706  0.5232 -0.1857  0.3612
 9953TIP3    H154054   5.068   1.398  10.657 -1.7400  0.2449 -0.5736
 9953TIP3    H254055   5.035   1.457  10.793 -2.3328 -0.1273 -0.5542
 9954TIP3   OH254056   4.402   4.664  13.230 -0.5688  0.3332 -0.4696
 9954TIP3    H154057   4.448   4.599  13.282 -2.2524 -1.4503 -1.0514
 9954TIP3    H254058   4.359   4.722  13.294 -0.7639 -0.4374  0.1085
 9955TIP3   OH254059   0.646   6.213  11.760  0.0225  0.0084  0.3674
 9955TIP3    H154060   0.700   6.266  11.701  0.0277  0.7962  1.0686
 9955TIP3    H254061   0.621   6.138  11.707 -1.3236  1.4824 -1.2027
 9956TIP3   OH254062   1.842   3.946  12.677 -0.2486  0.1480  0.0734
 9956TIP3    H154063   1.798   3.863  12.656 -0.0441  0.5079 -2.0543
 9956TIP3    H254064   1.845   3.993  12.593  2.3779  0.9935  0.5499
 9957TIP3   OH254065   2.189   1.260  11.597  0.7125 -0.4651  0.0565
 9957TIP3    H154066   2.110   1.220  11.560  1.3107 -1.4571 -0.1848
 9957TIP3    H254067   2.257   1.194  11.585  1.8733  0.8613 -0.8857
 9958TIP3   OH254068   2.947   3.811  12.112 -0.4661 -0.1749  0.8888
 9958TIP3    H154069   2.897   3.734  12.087 -0.1817 -0.0216 -0.2209
 9958TIP3    H254070   2.897   3.885  12.077  0.1831  0.0238  0.3627
 9959TIP3   OH254071   2.912   1.864  10.679 -0.0737  0.2354 -0.4289
 9959TIP3    H154072   2.863   1.946  10.671  1.3689  1.2213  0.2334
 9959TIP3    H254073   2.991   1.879  10.628  0.8509 -0.1914  0.8195
 9960TIP3   OH254074   2.955   2.563   9.519  0.1414 -0.8990  0.0813
 9960TIP3    H154075   2.978   2.537   9.430  1.6062 -1.2354  0.5230
 9960TIP3    H254076   3.040   2.570   9.564 -0.5431 -0.2404  1.3052
 9961TIP3   OH254077   2.350   6.523  10.708  0.7252 -0.3663  0.5006
 9961TIP3    H154078   2.291   6.576  10.655  0.2868 -1.4470 -0.1136
 9961TIP3    H254079   2.431   6.575  10.713  1.0953 -0.5980 -1.9839
 9962TIP3   OH254080   2.001   1.049  10.564  0.4301  0.0805  0.5373
 9962TIP3    H154081   2.009   0.987  10.636 -2.4651 -1.6498 -0.4865
 9962TIP3    H254082   1.922   1.100  10.584 -1.3794 -1.4777 -1.9824
 9963TIP3   OH254083   6.323   6.618   9.579  0.2842 -0.9929  0.4786
 9963TIP3    H154084   6.229   6.608   9.566  0.5118 -1.6649 -0.8573
 9963TIP3    H254085   6.362   6.588   9.497  1.6626 -0.5849  0.9471
 9964TIP3   OH254086   6.098   1.944  11.013 -0.0358  0.1028  0.5037
 9964TIP3    H154087   6.099   1.904  11.101 -1.1418 -1.0706  0.0242
 9964TIP3    H254088   6.172   2.003  11.013  1.6086 -1.8242  1.3630
 9965TIP3   OH254089   3.822   3.277  12.100 -0.3934 -0.5589 -0.0729
 9965TIP3    H154090   3.853   3.269  12.010 -0.9780  1.0849 -0.4504
 9965TIP3    H254091   3.734   3.314  12.092 -0.3926 -0.2537  1.1914
 9966TIP3   OH254092   1.955   2.894  11.147  0.4023  0.2209  0.0640
 9966TIP3    H154093   1.964   2.880  11.053 -1.0547 -1.6188  0.1658
 9966TIP3    H254094   1.928   2.986  11.155 -0.2245  0.1811 -1.3571
 9967TIP3   OH254095   5.907   6.188  11.748 -0.0905 -0.4742 -0.1832
 9967TIP3    H154096   5.929   6.162  11.837 -0.8850 -1.3189 -0.2217
 9967TIP3    H254097   5.987   6.176  11.698 -0.2340 -2.2017 -0.0504
 9968TIP3   OH254098   5.279   2.694  12.115 -0.4683 -0.2742 -0.1745
 9968TIP3    H154099   5.276   2.639  12.193 -0.9453  0.1451  0.1095
 9968TIP3    H254100   5.190   2.730  12.107  0.0621  1.1993  0.1875
 9969TIP3   OH254101   4.585   5.346   9.506  0.2077 -0.0636  0.7032
 9969TIP3    H154102   4.515   5.384   9.451 -1.9361  0.8471  3.8112
 9969TIP3    H254103   4.622   5.421   9.552  4.0547 -0.3787 -1.4245
 9970TIP3   OH254104   6.409   5.614  10.986  0.6748  0.0686  0.2069
 9970TIP3    H154105   6.409   5.563  10.905  1.5582  2.4379 -1.4087
 9970TIP3    H254106   6.391   5.704  10.957  0.7037  0.9501  2.7024
 9971TIP3   OH254107   6.085   1.370   9.597 -0.8321  0.0342 -0.7068
 9971TIP3    H154108   6.066   1.375   9.503  2.0715  0.8845 -1.3413
 9971TIP3    H254109   6.105   1.460   9.621 -5.1896  0.6031  1.7395
 9972TIP3   OH254110   4.817   0.568  10.006  0.4575 -0.3328 -0.2204
 9972TIP3    H154111   4.820   0.606  10.093  0.4627 -0.9258  0.0409
 9972TIP3    H254112   4.887   0.613   9.958 -1.2809  2.0105 -0.7621
 9973TIP3   OH254113   0.260   0.905  10.900  0.7920 -0.6561  0.0565
 9973TIP3    H154114   0.317   0.949  10.962  1.8458  0.0718 -1.3648
 9973TIP3    H254115   0.183   0.879  10.952  1.1954  0.7590  1.4407
 9974TIP3   OH254116   1.201   2.997  10.531 -0.2499 -0.3473  0.1549
 9974TIP3    H154117   1.168   2.942  10.460  0.2923 -0.6808  0.1531
 9974TIP3    H254118   1.236   3.075  10.488 -1.0069  0.0040  0.1569
 9975TIP3   OH254119   0.533   5.298   9.712 -0.0341  0.1694 -0.2107
 9975TIP3    H154120   0.618   5.271   9.747  0.4998  0.2680 -1.3693
 9975TIP3    H254121   0.474   5.295   9.787  1.6421  3.2556  1.4237
 9976TIP3   OH254122   3.896   5.491  11.345  0.3229 -0.5312  0.6301
 9976TIP3    H154123   3.914   5.576  11.305  0.8213 -0.7621  0.3562
 9976TIP3    H254124   3.975   5.440  11.330  0.0278 -1.0457  0.7958
 9977TIP3   OH254125   4.172   4.174   9.256 -0.0753  0.2652 -0.5153
 9977TIP3    H154126   4.247   4.114   9.246  0.7545  1.4155 -1.3958
 9977TIP3    H254127   4.097   4.121   9.229  0.1816 -1.3471  1.6513
 9978TIP3   OH254128   3.435   4.295  10.416  0.0953 -0.3965  0.5085
 9978TIP3    H154129   3.439   4.390  10.425 -3.8387 -0.0804  0.5460
 9978TIP3    H254130   3.449   4.262  10.504  0.1125  0.2570  0.7547
 9979TIP3   OH254131   5.011   5.238  12.007 -0.0001  0.3509  0.1569
 9979TIP3    H154132   4.995   5.331  11.989 -1.2788  0.3294  1.0583
 9979TIP3    H254133   5.077   5.212  11.942 -0.2450  1.6723 -0.6564
 9980TIP3   OH254134   1.955   4.045  12.126 -0.1642  0.5463  0.0576
 9980TIP3    H154135   1.924   3.956  12.141  2.4230 -0.9666 -2.4864
 9980TIP3    H254136   1.880   4.091  12.087 -0.6942 -1.4584 -1.4137
 9981TIP3   OH254137   0.677   3.852   9.578  0.0938  0.0703 -0.2368
 9981TIP3    H154138   0.604   3.791   9.590  0.2123 -0.1237 -0.4995
 9981TIP3    H254139   0.729   3.814   9.507  0.0325  0.6027 -0.5722
 9982TIP3   OH254140   5.379   2.946  10.556 -0.0981 -0.0698 -0.4253
 9982TIP3    H154141   5.297   2.947  10.605  0.6015 -1.4408  0.8474
 9982TIP3    H254142   5.445   2.972  10.620  0.5353  0.6448 -1.3344
 9983TIP3   OH254143   5.128   2.401  10.953 -0.1190  0.2778  0.0154
 9983TIP3    H154144   5.108   2.344  11.027 -1.3173  0.4935 -0.1113
 9983TIP3    H254145   5.086   2.358  10.878  1.0361  0.0896 -0.5328
 9984TIP3   OH254146   0.454   5.625  10.866  0.4125  0.2664 -0.4042
 9984TIP3    H154147   0.532   5.631  10.811  1.1074 -0.2421  0.4840
 9984TIP3    H254148   0.393   5.570  10.818  1.6974 -1.6752  0.0842
 9985TIP3   OH254149   5.390   5.920  10.869  0.2543 -0.0762 -1.1912
 9985TIP3    H154150   5.394   5.937  10.963  0.5356 -0.3275 -1.1588
 9985TIP3    H254151   5.306   5.958  10.842  1.1367  1.9480 -1.2408
 9986TIP3   OH254152   4.003   2.243  11.375 -0.2135  0.0483  0.4337
 9986TIP3    H154153   3.908   2.227  11.367 -0.3009  0.1176  1.2563
 9986TIP3    H254154   4.038   2.162  11.412  0.2746 -0.5127 -1.1836
 9987TIP3   OH254155   2.210   3.670  12.219  0.6050  0.2452  0.1744
 9987TIP3    H154156   2.297   3.630  12.221  0.3086 -1.0182 -3.6616
 9987TIP3    H254157   2.219   3.741  12.155 -0.8960  0.9768  0.7428
 9988TIP3   OH254158   3.004   0.283  10.900  0.0930  0.3811 -0.3801
 9988TIP3    H154159   3.059   0.314  10.971  0.7776 -0.7741 -0.3800
 9988TIP3    H254160   2.960   0.361  10.868  0.5207  1.0737  0.6642
 9989TIP3   OH254161   3.086   2.162   9.637  0.2660  0.7250  0.0620
 9989TIP3    H154162   3.098   2.197   9.549 -0.4237 -1.5546 -1.0282
 9989TIP3    H254163   3.008   2.207   9.671 -0.0885  0.8722 -0.9203
 9990TIP3   OH254164   0.458   4.457  11.186  0.7308  0.6932  0.9689
 9990TIP3    H154165   0.396   4.418  11.125  2.4698  1.1657 -1.2186
 9990TIP3    H254166   0.459   4.550  11.163  1.0451  0.9832  2.0931
 9991TIP3   OH254167   2.262   1.885  11.945  0.1368 -0.1890  0.1808
 9991TIP3    H154168   2.291   1.833  11.870  0.7344  0.5204 -0.0890
 9991TIP3    H254169   2.265   1.825  12.019  0.2167 -0.7074 -0.2404
 9992TIP3   OH254170   0.126   1.624  11.153 -0.0218  0.0929 -0.1817
 9992TIP3    H154171   0.176   1.592  11.228  0.2209 -1.4897 -0.9772
 9992TIP3    H254172   0.047   1.662  11.190 -0.4435 -1.6881  0.8222
 9993TIP3   OH254173   1.332   5.891  10.724  0.0680  0.0010  0.1277
 9993TIP3    H154174   1.289   5.863  10.643 -2.6355  2.8615  0.4018
 9993TIP3    H254175   1.301   5.830  10.790  0.1472 -0.7308 -0.4943
 9994TIP3   OH254176   3.611   5.921  11.199  0.1368 -0.3862 -0.1230
 9994TIP3    H154177   3.525   5.880  11.200  0.3033 -0.8541 -1.9437
 9994TIP3    H254178   3.627   5.941  11.107  1.3664  1.0127  0.3669
 9995TIP3   OH254179   4.285   4.332  12.554 -0.1615  0.4532  0.2460
 9995TIP3    H154180   4.236   4.414  12.558 -1.4370 -0.2344 -0.5141
 9995TIP3    H254181   4.271   4.291  12.640  1.9051  1.7729  1.2739
 9996TIP3   OH254182   1.777   4.346  10.923  0.0344 -0.6026  0.2822
 9996TIP3    H154183   1.830   4.399  10.863 -0.7923 -0.2750 -0.1682
 9996TIP3    H254184   1.689   4.381  10.916 -0.7592 -2.6406 -0.7600
 9997TIP3   OH254185   4.298   0.240  12.289 -0.6378  0.1335  0.1159
 9997TIP3    H154186   4.376   0.188  12.270 -1.2404 -0.4191 -0.9292
 9997TIP3    H254187   4.331   0.316  12.338  0.5414 -0.1039 -0.2739
 9998TIP3   OH254188   5.176   1.785  11.184  0.0011 -0.1391  0.5862
 9998TIP3    H154189   5.112   1.852  11.162 -0.0069  0.7454  2.9837
 9998TIP3    H254190   5.252   1.805  11.128 -1.4746 -0.8027 -1.7946
 9999TIP3   OH254191   6.178   0.872   9.660  0.4385 -0.0863  0.2552
 9999TIP3    H154192   6.163   0.901   9.750 -1.3030  1.5937 -0.4982
 9999TIP3    H254193   6.198   0.952   9.612 -1.3872 -0.5007 -1.3292
10000TIP3   OH254194   4.899   4.718   9.259 -0.4069  0.5728 -0.3196
10000TIP3    H154195   4.965   4.775   9.219 -0.4010  1.0238  0.3336
10000TIP3    H254196   4.934   4.697   9.345 -0.3001 -0.6095 -0.6355
10001TIP3   OH254197   4.479   2.194   9.399  0.2119 -0.7669  0.5145
10001TIP3    H154198   4.448   2.218   9.486 -0.2481 -0.5833  0.3055
10001TIP3    H254199   4.568   2.229   9.395 -0.5138  1.2049  0.1279
10002TIP3   OH254200   0.815   2.673  11.090  0.7458 -0.1873 -0.4784
10002TIP3    H154201   0.830   2.731  11.016  0.9585 -0.7244 -0.8595
10002TIP3    H254202   0.897   2.624  11.100  0.3329 -0.9307 -0.6124
10003TIP3   OH254203   1.522   4.847  10.204  0.2102  0.2804 -0.0358
10003TIP3    H154204   1.473   4.891  10.134  0.2527  1.5519  0.6959
10003TIP3    H254205   1.459   4.787  10.244 -0.1024  0.2858 -0.5155
10004TIP3   OH254206   3.938   5.079   9.762  0.5742  0.4239 -0.0371
10004TIP3    H154207   3.967   5.170   9.773 -1.1228  1.1532 -1.2110
10004TIP3    H254208   3.953   5.060   9.669 -1.7612  0.5345 -0.4832
10005TIP3   OH254209   3.662   3.920  11.111 -0.1060 -0.6446  0.3264
10005TIP3    H154210   3.606   3.855  11.154 -0.4154 -0.6946 -0.1486
10005TIP3    H254211   3.605   3.961  11.046  0.2328 -0.2507  0.2754
10006TIP3   OH254212   3.619   1.556  11.178 -0.2483  0.0959 -0.3070
10006TIP3    H154213   3.580   1.518  11.100  0.6941 -2.0421  0.1874
10006TIP3    H254214   3.703   1.510  11.188 -0.4547  0.1010  2.0722
10007TIP3   OH254215   0.387   5.080   8.946  0.0040 -0.2752  0.2433
10007TIP3    H154216   0.471   5.087   8.991 -0.2563  0.7264  0.6025
10007TIP3    H254217   0.388   5.148   8.880  0.6853 -2.2189 -1.8786
10008TIP3   OH254218   2.563   6.243  11.705  0.5792  0.3717  0.0430
10008TIP3    H154219   2.609   6.277  11.628 -0.9811  3.0510  0.1609
10008TIP3    H254220   2.476   6.220  11.672  1.2400 -2.8393  0.1930
10009TIP3   OH254221   5.565   3.712  11.956 -0.0923 -0.3010 -0.2474
10009TIP3    H154222   5.580   3.636  12.012 -1.3231  1.0507  2.0749
10009TIP3    H254223   5.628   3.777  11.988  0.2728  0.0137 -1.5471
10010TIP3   OH254224   4.208   1.443  10.975  0.5085  0.3779 -0.0501
10010TIP3    H154225   4.141   1.508  10.955  0.7918  0.7551  0.2135
10010TIP3    H254226   4.161   1.373  11.022 -0.1234 -0.4291 -1.8222
10011TIP3   OH254227   5.995   4.983   9.295 -0.5191 -0.0938  0.2490
10011TIP3    H154228   5.927   4.997   9.361 -2.0468 -0.5826 -1.1504
10011TIP3    H254229   5.948   4.984   9.212  1.3844  0.7535 -0.8744
10012TIP3   OH254230   5.303   1.267  12.121 -0.6876 -0.2519  0.0138
10012TIP3    H154231   5.262   1.339  12.073 -1.0379 -0.0130  0.6467
10012TIP3    H254232   5.383   1.247  12.072 -0.2098  1.0535  0.2255
10013TIP3   OH254233   2.796   0.847  10.203 -0.2411  1.3409  0.3539
10013TIP3    H154234   2.837   0.910  10.263  0.6516  2.1887 -1.0927
10013TIP3    H254235   2.846   0.855  10.122 -0.7862 -0.5104 -0.1992
10014TIP3   OH254236   2.501   6.279  10.759 -0.6581 -0.2009  0.1917
10014TIP3    H154237   2.589   6.310  10.781 -0.5172 -0.5761  0.1680
10014TIP3    H254238   2.445   6.354  10.774 -0.3629 -0.0235  0.4270
10015TIP3   OH254239   6.244   3.454  11.311 -0.5554  0.0885  0.0060
10015TIP3    H154240   6.333   3.485  11.329 -0.3416 -1.4803  1.9869
10015TIP3    H254241   6.197   3.465  11.394 -1.5738 -1.1965 -0.3601
10016TIP3   OH254242   2.257   4.361  10.584 -0.0431  1.0982  0.1607
10016TIP3    H154243   2.174   4.410  10.575 -0.8064 -0.1387  0.2528
10016TIP3    H254244   2.250   4.319  10.669 -0.9385 -1.8709 -1.2431
10017TIP3   OH254245   1.676   5.895  11.221 -0.3101  0.0892 -0.2956
10017TIP3    H154246   1.661   5.989  11.215 -1.4814 -0.1004 -0.6697
10017TIP3    H254247   1.771   5.885  11.207 -0.1686  1.2028 -0.2376
10018TIP3   OH254248   5.959   4.278  11.218 -0.0028  0.2256  0.2634
10018TIP3    H154249   5.931   4.283  11.126 -0.3937 -1.0346  0.2930
10018TIP3    H254250   5.928   4.360  11.257  0.7511  1.0924 -0.8656
10019TIP3   OH254251   3.896   3.478  10.795 -0.0168  0.6106  0.2908
10019TIP3    H154252   3.807   3.491  10.828  0.6661  0.9974  2.1026
10019TIP3    H254253   3.921   3.563  10.757 -0.7364  0.2218 -1.1124
10020TIP3   OH254254   3.789   4.857  11.084 -0.1332 -0.4424  0.5079
10020TIP3    H154255   3.834   4.843  11.000  0.8504  2.4109  0.4653
10020TIP3    H254256   3.820   4.785  11.139  2.4489 -0.1270 -0.3677
10021TIP3   OH254257   2.145   4.987   9.650  0.2058  0.0546 -0.1531
10021TIP3    H154258   2.195   4.927   9.706 -0.9641  0.1918  1.1102
10021TIP3    H254259   2.146   5.070   9.698 -0.4405  0.3056 -0.5650
10022TIP3   OH254260   5.510   3.109   9.287  0.2918 -0.3054 -0.0753
10022TIP3    H154261   5.602   3.112   9.311  0.2573 -0.5074  0.0879
10022TIP3    H254262   5.498   3.182   9.226  0.2444  0.6073  0.9988
10023TIP3   OH254263   3.723   2.191   9.002  0.7776 -0.4094  0.0308
10023TIP3    H154264   3.726   2.180   9.097  1.2401 -1.3428 -0.0779
10023TIP3    H254265   3.705   2.103   8.968 -0.8927  0.1517 -0.6917
10024TIP3   OH254266   3.270   1.821  11.304 -0.0243  0.1037  0.0753
10024TIP3    H154267   3.340   1.761  11.329 -0.0855 -0.2733 -0.6294
10024TIP3    H254268   3.314   1.890  11.254  0.0865  0.8112  1.1158
10025TIP3   OH254269   5.402   5.798  11.610  0.5603  0.3323  0.8881
10025TIP3    H154270   5.362   5.723  11.566  1.3508  0.0446  0.6378
10025TIP3    H254271   5.329   5.858  11.628  0.2031  0.4265 -0.7502
10026TIP3   OH254272   0.715   3.260   9.901 -0.1931  0.7276 -0.0560
10026TIP3    H154273   0.775   3.312   9.955  1.0256  1.2991 -1.8861
10026TIP3    H254274   0.668   3.325   9.848 -0.5744  0.1045 -0.4917
10027TIP3   OH254275   4.531   2.569  12.768  0.0332  0.6151 -0.3606
10027TIP3    H154276   4.484   2.569  12.685 -2.4262  1.5540  0.9107
10027TIP3    H254277   4.624   2.572  12.744 -0.5562  4.2008 -3.1440
10028TIP3   OH254278   3.021   5.372   9.673  0.1705 -0.0670  0.0511
10028TIP3    H154279   3.043   5.464   9.689 -1.7177  0.6841 -1.2308
10028TIP3    H254280   3.044   5.358   9.581 -3.0433  0.3387 -0.9241
10029TIP3   OH254281   6.644   3.910   9.274  0.3108 -0.3714  0.0768
10029TIP3    H154282   6.697   3.988   9.289 -0.4321 -0.0423  1.1238
10029TIP3    H254283   6.559   3.944   9.246  0.2000 -0.8260 -0.1371
10030TIP3   OH254284   2.946   3.637  12.759 -0.1175  0.5123 -0.2873
10030TIP3    H154285   2.940   3.639  12.854 -0.3979 -0.0899 -0.2905
10030TIP3    H254286   2.907   3.554  12.733  1.0399  0.1244 -0.8616
10031TIP3   OH254287   4.991   4.806  11.952 -0.2202 -0.2506  0.0102
10031TIP3    H154288   5.057   4.831  12.016  0.1214  0.4147 -0.5864
10031TIP3    H254289   4.964   4.718  11.978  0.0727 -0.0736  0.9260
10032TIP3   OH254290   3.560   5.713  10.310 -0.4139  0.5483 -0.1489
10032TIP3    H154291   3.586   5.740  10.397 -2.2885 -0.3275  0.7512
10032TIP3    H254292   3.471   5.747  10.300 -1.3804 -1.8301 -0.4777
10033TIP3   OH254293   3.457   2.609  10.431  0.3105 -0.5120 -0.1962
10033TIP3    H154294   3.497   2.682  10.477  0.0732 -0.3384 -0.2671
10033TIP3    H254295   3.481   2.532  10.483 -0.1746 -0.2934  0.3630
10034TIP3   OH254296   3.672   0.375   9.753  0.3264 -0.0332  0.2946
10034TIP3    H154297   3.708   0.303   9.701  0.5490 -0.2358  0.7232
10034TIP3    H254298   3.584   0.388   9.718  0.6943  0.2488 -0.5436
10035TIP3   OH254299   3.398   0.338  10.747  0.0577 -0.1717  0.0121
10035TIP3    H154300   3.335   0.288  10.696 -0.9359  0.9187  0.1274
10035TIP3    H254301   3.478   0.338  10.694 -1.3157  2.0940 -2.3065
10036TIP3   OH254302   4.497   0.461   9.910  0.7584  0.3810 -0.1386
10036TIP3    H154303   4.455   0.505   9.984  0.7149 -0.0915  0.1159
10036TIP3    H254304   4.475   0.369   9.920  0.6792  0.3212 -0.7910
10037TIP3   OH254305   2.829   4.678  12.213  0.3260  0.9964  0.0801
10037TIP3    H154306   2.746   4.669  12.260 -1.3333  0.5903 -2.7104
10037TIP3    H254307   2.878   4.599  12.236 -0.3041  0.9061  1.2208
10038TIP3   OH254308   5.518   1.894  12.588 -0.0718 -0.0241 -0.0319
10038TIP3    H154309   5.603   1.908  12.629 -0.3038  1.1028  0.0974
10038TIP3    H254310   5.460   1.958  12.630 -0.5708  0.4136 -1.3548
10039TIP3   OH254311   4.177   5.131  10.376  0.3276 -0.0859 -0.0169
10039TIP3    H154312   4.195   5.172  10.291 -1.8314  0.5351 -0.2517
10039TIP3    H254313   4.088   5.096  10.366  0.7905 -1.7894  1.3510
10040TIP3   OH254314   6.507   2.723   9.781  0.3423  0.9047 -0.6594
10040TIP3    H154315   6.514   2.741   9.874  2.9402  0.7399 -0.7676
10040TIP3    H254316   6.597   2.728   9.748 -0.5603  1.6326 -3.2885
10041TIP3   OH254317   4.431   1.698  11.290  0.5007 -0.1435 -0.6063
10041TIP3    H154318   4.423   1.662  11.202  0.3439  1.4530 -1.2556
10041TIP3    H254319   4.448   1.791  11.278 -2.8589  0.8453  1.0549
10042TIP3   OH254320   1.438   6.056  11.424 -0.2690 -0.0610  0.3001
10042TIP3    H154321   1.477   6.003  11.493  0.0339 -0.7836 -0.4032
10042TIP3    H254322   1.369   6.105  11.467 -0.0450 -0.4530  1.1271
10043TIP3   OH254323   0.134   1.899  11.058  0.7251 -0.6243 -0.1919
10043TIP3    H154324   0.093   1.832  11.003  0.3462 -0.3701 -0.2176
10043TIP3    H254325   0.219   1.861  11.082  0.0557 -1.6097  0.7365
10044TIP3   OH254326   5.650   3.755  11.586 -0.0174  0.6978  0.1745
10044TIP3    H154327   5.568   3.791  11.619  0.4316 -0.3873  2.7178
10044TIP3    H254328   5.718   3.812  11.622  0.4646 -0.1751  0.7023
10045TIP3   OH254329   2.514   2.037   9.973  0.4407 -0.1928 -0.8367
10045TIP3    H154330   2.440   2.096   9.983 -0.0014 -0.8912  0.2811
10045TIP3    H254331   2.591   2.092   9.986  0.0655  0.2807 -0.6104
10046TIP3   OH254332   6.038   5.495  12.498 -0.0653 -0.0955 -0.0373
10046TIP3    H154333   5.950   5.487  12.536 -0.5140 -0.4670 -1.1091
10046TIP3    H254334   6.074   5.407  12.503  0.6211  0.2253  1.2092
10047TIP3   OH254335   5.465   5.852   9.265  0.1651  0.0273  0.0645
10047TIP3    H154336   5.374   5.824   9.270  0.7380 -1.7751  1.0551
10047TIP3    H254337   5.507   5.787   9.208  0.8438  0.8280 -0.3675
10048TIP3   OH254338   2.084   4.391  10.170  0.0950  0.0294 -0.0017
10048TIP3    H154339   2.166   4.365  10.128  0.1656 -0.1558  0.2434
10048TIP3    H254340   2.022   4.321  10.148  0.3600 -0.5133  0.8891
10049TIP3   OH254341   3.602   2.380   9.342 -0.4572  0.0514  0.0243
10049TIP3    H154342   3.518   2.414   9.312 -0.3471  0.1606 -0.1558
10049TIP3    H254343   3.608   2.409   9.433 -1.9284 -2.3383  0.9894
10050TIP3   OH254344   1.230   0.288  11.866 -0.2911  0.1407 -0.2393
10050TIP3    H154345   1.161   0.353  11.865 -1.2683 -0.8295  1.0765
10050TIP3    H254346   1.264   0.287  11.776 -3.0712 -0.4762 -1.3931
10051TIP3   OH254347   5.285   6.715  11.458 -0.1650  0.1480  0.0679
10051TIP3    H154348   5.329   6.797  11.436  0.7808 -0.6789 -1.2904
10051TIP3    H254349   5.213   6.709  11.395 -0.0286 -0.2186 -0.0529
10052TIP3   OH254350   1.201   4.658  12.284  0.0737 -0.7632  0.2569
10052TIP3    H154351   1.281   4.636  12.332  1.2131  0.2905 -1.0486
10052TIP3    H254352   1.231   4.718  12.215 -2.1593  1.3585  0.9942
10053TIP3   OH254353   5.796   1.643  10.565  0.5922 -0.4401  0.1775
10053TIP3    H154354   5.801   1.570  10.504 -1.0767 -0.9946  0.6424
10053TIP3    H254355   5.797   1.721  10.509 -2.9619 -0.9581 -0.8712
10054TIP3   OH254356   2.927   5.609  10.938  0.4109  0.4038  0.3191
10054TIP3    H154357   3.019   5.585  10.952  0.4678 -0.0750 -0.7558
10054TIP3    H254358   2.913   5.686  10.994  1.5036  0.5714  0.3791
10055TIP3   OH254359   5.626   5.418  11.721  0.0652  0.1397  0.0048
10055TIP3    H154360   5.546   5.370  11.701  0.3777  0.4593 -2.2508
10055TIP3    H254361   5.694   5.375  11.669  0.9747  1.0809  0.3774
10056TIP3   OH254362   5.331   5.959   9.943  0.1716  0.1304  0.1877
10056TIP3    H154363   5.324   5.915   9.858  0.0326 -1.2327  0.8774
10056TIP3    H254364   5.424   5.952   9.966  0.2022  0.4645  0.1774
10057TIP3   OH254365   0.379   5.175  11.015 -0.1115  0.3585 -0.0452
10057TIP3    H154366   0.301   5.150  10.966 -0.1463  1.0074 -0.3285
10057TIP3    H254367   0.351   5.249  11.069  0.1140  0.1136  0.4207
10058TIP3   OH254368   1.428   2.889   9.933 -0.3331  0.3607 -0.6704
10058TIP3    H154369   1.420   2.874  10.027 -0.9457  0.8438 -0.6412
10058TIP3    H254370   1.522   2.906   9.920 -0.0553 -0.8099 -0.3304
10059TIP3   OH254371   4.104   6.625  11.145  0.5303  0.1133 -0.1070
10059TIP3    H154372   4.149   6.609  11.228  0.4929 -0.2545 -0.1552
10059TIP3    H254373   4.013   6.642  11.169  0.6074  0.4179 -0.0405
10060TIP3   OH254374   4.111   0.108   9.580  0.8339  0.4342  0.5923
10060TIP3    H154375   4.207   0.103   9.574  0.9815 -0.4801  2.7429
10060TIP3    H254376   4.082   0.018   9.565  0.4150  0.4622  1.2293
10061TIP3   OH254377   6.071   0.543  12.391  0.4183  0.4169 -0.0314
10061TIP3    H154378   6.004   0.477  12.372  0.0169  0.5503  0.8659
10061TIP3    H254379   6.119   0.553  12.309 -0.4989  0.1347 -0.6153
10062TIP3   OH254380   4.034   3.775  11.687 -0.3453  0.4861  0.3471
10062TIP3    H154381   4.027   3.714  11.613  0.8423  0.4578  0.2387
10062TIP3    H254382   4.044   3.861  11.646 -1.7842  0.7542  0.5008
10063TIP3   OH254383   5.133   3.982   9.883 -0.6461  0.2302 -0.3893
10063TIP3    H154384   5.121   3.975   9.978  1.0365  0.5662 -0.1055
10063TIP3    H254385   5.056   3.939   9.846 -0.4130 -1.6925  1.1435
10064TIP3   OH254386   4.174   3.516  11.088 -0.6860  1.0637 -0.4827
10064TIP3    H154387   4.150   3.441  11.034  0.0223 -0.1942  0.8701
10064TIP3    H254388   4.097   3.531  11.144 -0.7743  1.2523 -0.6552
10065TIP3   OH254389   6.129   1.421   9.956  0.3060 -0.3139 -0.5377
10065TIP3    H154390   6.122   1.403  10.050  0.4893  1.1445 -0.2141
10065TIP3    H254391   6.214   1.384   9.930  0.2623 -0.7070 -0.1211
10066TIP3   OH254392   0.626   1.522  10.308  0.3679  0.5558  0.4501
10066TIP3    H154393   0.691   1.576  10.354 -0.5993  1.7338  0.4988
10066TIP3    H254394   0.584   1.583  10.247  0.4156 -0.5718 -0.7429
10067TIP3   OH254395   4.583   3.832   9.617  0.8351  0.4364  0.0656
10067TIP3    H154396   4.530   3.752   9.621  0.5522  0.6712  3.0742
10067TIP3    H254397   4.620   3.831   9.528 -0.6872 -2.0068 -0.6537
10068TIP3   OH254398   0.379   4.794   8.984 -0.3407 -0.0042 -0.3205
10068TIP3    H154399   0.283   4.792   8.985 -0.3928  1.5920 -0.2596
10068TIP3    H254400   0.401   4.884   8.958  1.1368  0.0791  1.0872
10069TIP3   OH254401   3.730   0.724   9.719 -0.1358 -0.0955  0.0435
10069TIP3    H154402   3.796   0.660   9.692 -0.3943 -0.3625  0.0421
10069TIP3    H254403   3.686   0.749   9.637 -1.5682 -1.6219  0.3058
10070TIP3   OH254404   3.841   3.900  10.476  0.0493 -0.0145 -0.3806
10070TIP3    H154405   3.883   3.836  10.533  0.5023 -0.4005 -1.1420
10070TIP3    H254406   3.808   3.968  10.536  1.2218 -0.0065  0.2738
10071TIP3   OH254407   6.581   6.396  10.040 -0.1749 -0.1848 -0.0103
10071TIP3    H154408   6.560   6.393   9.947 -1.2024 -1.2500  0.2265
10071TIP3    H254409   6.502   6.431  10.082 -0.0861 -0.6152  0.5422
10072TIP3   OH254410   0.717   5.186  10.546 -0.2869 -0.1073  0.1014
10072TIP3    H154411   0.640   5.141  10.511 -0.6979  0.7016 -0.0730
10072TIP3    H254412   0.763   5.219  10.469  0.9660 -1.6862  0.1230
10073TIP3   OH254413   3.797   1.746  10.128  0.1562  0.3959 -0.5719
10073TIP3    H154414   3.832   1.659  10.149 -0.4200  0.3211  0.1190
10073TIP3    H254415   3.783   1.744  10.033  0.8816  0.0116 -0.6750
10074TIP3   OH254416   1.415   4.129  12.966 -0.2297  0.1295 -0.2015
10074TIP3    H154417   1.345   4.092  12.912  1.6144 -3.4230 -0.4375
10074TIP3    H254418   1.469   4.178  12.905 -1.9870  2.2976 -0.1393
10075TIP3   OH254419   5.959   6.564  11.193 -0.0247  0.1831 -0.1743
10075TIP3    H154420   6.033   6.518  11.231 -0.1386  0.6092  0.5987
10075TIP3    H254421   5.946   6.524  11.108  0.8925 -0.1082 -0.1860
10076TIP3   OH254422   2.544   2.514  11.828  0.2352  0.7658 -0.0172
10076TIP3    H154423   2.523   2.552  11.743  0.6589  0.3861 -0.2992
10076TIP3    H254424   2.460   2.503  11.871 -0.1157 -0.2409 -0.9049
10077TIP3   OH254425   5.022   5.118   9.425  0.3036  0.5957 -0.0128
10077TIP3    H154426   5.085   5.046   9.428  0.0878  0.3912 -0.2729
10077TIP3    H254427   4.937   5.074   9.425  0.1638  0.8685  0.2948
10078TIP3   OH254428   3.485   1.933  11.779 -0.0383 -0.3758 -0.9392
10078TIP3    H154429   3.514   1.992  11.849 -0.5916 -1.6184  0.3668
10078TIP3    H254430   3.532   1.852  11.795 -1.4661 -1.2375 -0.9680
10079TIP3   OH254431   4.992   5.250  10.386 -0.1477 -0.1692  0.2809
10079TIP3    H154432   5.073   5.266  10.435 -0.0605 -0.0151  0.0857
10079TIP3    H254433   4.945   5.185  10.438  0.5215 -0.9552 -0.0823
10080TIP3   OH254434   0.109   5.048  11.703 -0.0677 -0.8559  0.4958
10080TIP3    H154435   0.191   5.000  11.706  0.0838 -0.6298  0.0049
10080TIP3    H254436   0.135   5.139  11.690 -0.4405 -0.9791 -1.3039
10081TIP3   OH254437   1.298   4.553  10.603 -0.0160  0.4888  0.1668
10081TIP3    H154438   1.329   4.529  10.690 -0.3999  2.5148  0.9216
10081TIP3    H254439   1.328   4.643  10.592  0.0241  0.2644 -1.8252
10082TIP3   OH254440   3.339   4.626  10.674 -0.0273  0.2023  0.1221
10082TIP3    H154441   3.248   4.623  10.646  0.3287  1.4936 -1.3198
10082TIP3    H254442   3.350   4.714  10.710  0.9592  0.5525 -0.9643
10083TIP3   OH254443   4.368   1.176  10.199 -0.2751 -0.5889  0.3558
10083TIP3    H154444   4.319   1.130  10.131  0.5302 -1.7981  0.5449
10083TIP3    H254445   4.311   1.248  10.226 -0.8901 -0.5095 -1.1032
10084TIP3   OH254446   6.317   6.107  11.897  0.0351 -0.2434 -0.3838
10084TIP3    H154447   6.282   6.088  11.810 -0.9154 -2.0850  0.3307
10084TIP3    H254448   6.240   6.109  11.954  0.8129 -1.7613  0.8134
10085TIP3   OH254449   1.779   1.270   9.321  0.4363 -0.4846  0.1568
10085TIP3    H154450   1.701   1.220   9.298  1.8445 -1.9274 -1.8587
10085TIP3    H254451   1.747   1.358   9.341 -1.8825 -1.5310  1.4944
10086TIP3   OH254452   6.563   4.744   9.277  0.0129  0.1599 -0.8991
10086TIP3    H154453   6.467   4.748   9.276 -0.0425 -0.9252 -1.9559
10086TIP3    H254454   6.588   4.785   9.360 -1.2871  1.6708 -1.2071
10087TIP3   OH254455   3.585   5.588  12.549  0.0181 -0.5976  0.5942
10087TIP3    H154456   3.561   5.517  12.609 -0.3295 -1.2378 -0.2831
10087TIP3    H254457   3.573   5.551  12.462 -0.8779  0.7681  0.1011
10088TIP3   OH254458   4.555   3.470  12.458  0.3951  0.2128  0.6723
10088TIP3    H154459   4.571   3.462  12.552  1.3593  1.5710  0.6582
10088TIP3    H254460   4.481   3.412  12.441  0.4852 -0.3912  2.1843
10089TIP3   OH254461   6.746   2.528  12.450  0.0094  0.3820  0.8463
10089TIP3    H154462   6.783   2.601  12.400 -0.2173  0.9986  1.5623
10089TIP3    H254463   6.654   2.553  12.465 -0.9702 -1.4058 -1.4671
10090TIP3   OH254464   4.491   0.687  12.086 -0.1887  0.1859  0.1387
10090TIP3    H154465   4.522   0.649  12.168 -0.9490 -1.6622 -0.3817
10090TIP3    H254466   4.396   0.689  12.095 -0.3638 -1.0083 -1.0505
10091TIP3   OH254467   6.242   3.882   9.872 -0.2044  0.1813 -0.0241
10091TIP3    H154468   6.198   3.853   9.952  1.1875  0.9765  1.0794
10091TIP3    H254469   6.178   3.869   9.803 -2.0869  1.0898  1.4779
10092TIP3   OH254470   1.902   4.668  10.015 -0.2276 -0.4973  0.2241
10092TIP3    H154471   1.948   4.752  10.008  1.8782 -1.4761  1.4480
10092TIP3    H254472   1.958   4.614  10.071 -2.7618 -1.8963  1.6015
10093TIP3   OH254473   0.351   4.712  10.800 -0.2856  0.1995 -0.0429
10093TIP3    H154474   0.357   4.774  10.727  1.0084  0.2907  0.1287
10093TIP3    H254475   0.404   4.637  10.773  1.0402  0.6547  1.2033
10094TIP3   OH254476   0.612   0.586   9.851  0.7624  0.0134 -0.1164
10094TIP3    H154477   0.525   0.621   9.866  1.1085  1.0383 -0.3814
10094TIP3    H254478   0.661   0.659   9.813  1.3941 -0.8973 -1.1349
10095TIP3   OH254479   5.305   5.009  12.181  0.3562  0.4031  0.0088
10095TIP3    H154480   5.348   5.052  12.107 -0.0967  1.7675  0.5250
10095TIP3    H254481   5.346   5.048  12.259 -0.1262 -0.0357  0.4894
10096TIP3   OH254482   4.659   5.289  11.841 -0.3559 -0.3717 -0.4324
10096TIP3    H154483   4.570   5.318  11.859 -0.0241  1.4119 -1.4648
10096TIP3    H254484   4.715   5.356  11.880  0.4383  0.4356 -2.7857
10097TIP3   OH254485   6.194   3.751  10.462 -0.6071  0.4701 -0.0564
10097TIP3    H154486   6.183   3.656  10.461  1.0897  0.1480  2.4655
10097TIP3    H254487   6.106   3.785  10.474 -1.1818 -0.8237 -0.4286
10098TIP3   OH254488   5.949   5.948  10.093 -0.2305  0.2509 -0.0676
10098TIP3    H154489   5.901   5.868  10.113 -1.4919  0.1361 -3.0623
10098TIP3    H254490   6.038   5.919  10.073 -0.1360 -0.1216  0.8691
10099TIP3   OH254491   6.008   1.109   9.556  0.3551 -0.0315  0.1256
10099TIP3    H154492   5.923   1.108   9.600 -1.2883  1.5042 -2.7200
10099TIP3    H254493   6.048   1.192   9.583  0.6602 -0.4208  0.9021
10100TIP3   OH254494   0.598   5.222  12.152  0.5009 -0.3360 -0.1510
10100TIP3    H154495   0.554   5.138  12.157 -0.0314 -0.0472  0.0619
10100TIP3    H254496   0.676   5.205  12.099  0.9633 -1.1999  0.7707
10101TIP3   OH254497   4.881   1.210   9.335  0.3300  0.4792 -0.0424
10101TIP3    H154498   4.954   1.261   9.300 -0.4778  1.8999  0.2584
10101TIP3    H254499   4.923   1.143   9.388  1.4930 -0.3550 -1.9096
10102TIP3   OH254500   5.249   3.906  18.160 -0.4306  0.2322 -0.1228
10102TIP3    H154501   5.208   3.981  18.203  0.1548  1.6745 -1.9278
10102TIP3    H254502   5.198   3.831  18.190 -2.3647  1.5671  0.1884
10103TIP3   OH254503   6.690   4.223  11.158 -0.2556  0.4674  0.1302
10103TIP3    H154504   6.704   4.220  11.064  1.5926  0.9394  0.3651
10103TIP3    H254505   6.598   4.250  11.168 -0.9308 -1.0190 -1.5116
10104TIP3   OH254506   0.317   3.667   9.423 -0.0403 -0.7327  0.4005
10104TIP3    H154507   0.236   3.632   9.388  1.5197 -2.2112 -2.0305
10104TIP3    H254508   0.337   3.743   9.367 -1.8364  2.5426  3.7309
10105TIP3   OH254509   5.724   2.757   9.659 -0.1413  0.7114  0.6112
10105TIP3    H154510   5.636   2.792   9.670 -1.4211 -1.9503 -0.3043
10105TIP3    H254511   5.770   2.823   9.607 -1.6664  2.0348  0.8794
10106TIP3   OH254512   0.419   3.009  10.567  0.4617  0.1393 -0.3787
10106TIP3    H154513   0.406   3.088  10.514 -1.1845 -0.3209 -0.7226
10106TIP3    H254514   0.390   2.937  10.510  1.3376 -0.6630  0.1560
10107TIP3   OH254515   4.671   1.242  10.880 -0.7951 -0.0197 -0.0211
10107TIP3    H154516   4.600   1.293  10.842 -0.8625  1.1854  1.6095
10107TIP3    H254517   4.633   1.205  10.960  0.0811 -0.3239  0.2637
10108TIP3   OH254518   3.115   5.252  12.280  0.4489 -0.1086  0.0413
10108TIP3    H154519   3.105   5.338  12.239 -1.0326  0.2941  1.1426
10108TIP3    H254520   3.045   5.248  12.345  0.3844 -2.2274 -0.0847
10109TIP3   OH254521   0.426   1.840  11.182 -0.0872 -0.1352  0.7684
10109TIP3    H154522   0.347   1.835  11.237 -0.1141 -1.4203  0.6532
10109TIP3    H254523   0.491   1.790  11.231  0.3135 -0.0652  0.3058
10110TIP3   OH254524   0.204   6.319  10.646  0.0344 -0.2187 -0.7698
10110TIP3    H154525   0.240   6.247  10.699 -0.9621  0.3289  0.7233
10110TIP3    H254526   0.281   6.357  10.603  0.8784 -0.7805  0.1711
10111TIP3   OH254527   4.422   1.538   9.708 -0.4624 -0.4561 -0.1987
10111TIP3    H154528   4.398   1.456   9.667  1.4332  0.5657 -3.8091
10111TIP3    H254529   4.507   1.521   9.749 -1.1170 -0.8040  1.0567
10112TIP3   OH254530   1.720   4.870  10.588 -0.1978  0.1645 -0.0505
10112TIP3    H154531   1.733   4.800  10.525 -0.2726 -1.2509  1.4458
10112TIP3    H254532   1.644   4.919  10.554  1.1757  0.9372 -2.2634
10113TIP3   OH254533   2.907   6.553   9.408  0.4033 -0.1083  0.0210
10113TIP3    H154534   2.925   6.575   9.499 -0.8908  0.7970  0.0923
10113TIP3    H254535   2.977   6.595   9.358  0.6635  0.0738  0.5402
10114TIP3   OH254536   4.003   6.040  11.839 -0.0114  0.7659  0.6752
10114TIP3    H154537   3.924   6.017  11.790 -0.2801  0.8097  1.0815
10114TIP3    H254538   3.972   6.058  11.928  0.7901 -2.1672  1.6767
10115TIP3   OH254539   3.141   2.865   9.631  0.3546 -0.0922  0.6020
10115TIP3    H154540   3.175   2.917   9.705  0.0607  1.9250 -0.5952
10115TIP3    H254541   3.049   2.849   9.653  0.1428  0.9058  0.4839
10116TIP3   OH254542   2.673   0.151  11.661 -0.4925 -0.6837  0.0236
10116TIP3    H154543   2.729   0.102  11.722 -0.5089 -1.1871 -0.3505
10116TIP3    H254544   2.643   0.084  11.599 -0.2132 -0.1307 -0.7219
10117TIP3   OH254545   0.228   5.556  11.268 -0.7156 -0.3007 -0.1171
10117TIP3    H154546   0.213   5.491  11.337 -0.6560 -0.1539  0.0355
10117TIP3    H254547   0.219   5.640  11.313 -1.8550 -0.1865 -0.5362
10118TIP3   OH254548   3.964   4.295  10.811 -0.1871  0.1453 -0.2254
10118TIP3    H154549   3.953   4.260  10.723 -0.0370 -0.6104  0.0444
10118TIP3    H254550   3.898   4.248  10.864 -0.1651  0.4676  0.0914
10119TIP3   OH254551   6.665   4.180  12.140  0.0828 -0.5420 -0.0624
10119TIP3    H154552   6.726   4.194  12.212  0.6672  3.8229 -1.0894
10119TIP3    H254553   6.711   4.123  12.079  0.8479 -1.6961  1.5287
10120TIP3   OH254554   5.890   5.509  12.246 -1.1014 -0.0589  0.3493
10120TIP3    H154555   5.815   5.555  12.284  1.3056  4.6476  0.2094
10120TIP3    H254556   5.958   5.515  12.313  0.7291  0.8588 -1.4765
10121TIP3   OH254557   1.919   1.903   9.960 -0.6509  0.0216 -0.4681
10121TIP3    H154558   1.854   1.923   9.893 -0.9341  0.2212 -0.1385
10121TIP3    H254559   1.915   1.977  10.021  0.0095  0.1207 -0.5358
10122TIP3   OH254560   1.758   5.418  12.273 -0.4662  0.1740  0.1679
10122TIP3    H154561   1.818   5.427  12.347 -0.3285 -2.1047  0.4011
10122TIP3    H254562   1.674   5.450  12.307  0.0012  0.9104  0.6827
10123TIP3   OH254563   5.572   1.409  10.351 -0.1038  0.0672 -0.1792
10123TIP3    H154564   5.653   1.404  10.300 -0.4380  0.2448 -0.7481
10123TIP3    H254565   5.570   1.327  10.401  1.3229  0.8633  1.2609
10124TIP3   OH254566   2.131   4.338  11.834 -0.5467  0.0606  0.6925
10124TIP3    H154567   2.186   4.308  11.907  0.2621  1.4778  0.6911
10124TIP3    H254568   2.192   4.353  11.762 -1.2358 -0.4762 -0.0228
10125TIP3   OH254569   3.197   0.804   9.332 -0.4546  0.2544  0.0467
10125TIP3    H154570   3.190   0.847   9.417 -0.9382 -0.5504  0.4305
10125TIP3    H254571   3.132   0.848   9.277  1.3583  2.2717 -0.6055
10126TIP3   OH254572   2.353   2.217  10.831 -0.6195  0.0376 -0.3764
10126TIP3    H154573   2.330   2.213  10.738  0.6085  1.2820 -0.7646
10126TIP3    H254574   2.411   2.142  10.845 -1.1907 -0.4350 -0.4750
10127TIP3   OH254575   1.620   2.413  11.855 -0.1904  0.5404  0.2231
10127TIP3    H154576   1.706   2.404  11.897 -0.3152  1.5430  0.7128
10127TIP3    H254577   1.638   2.400  11.762  0.2139 -0.9089  0.4857
10128TIP3   OH254578   2.477   4.977   9.642 -0.8324 -0.0433  0.0835
10128TIP3    H154579   2.546   5.035   9.612 -1.2072 -0.0714 -0.8771
10128TIP3    H254580   2.406   5.036   9.670 -1.8823  0.0221 -2.4707
10129TIP3   OH254581   3.548   0.813  10.901  0.0532 -0.5779 -0.2260
10129TIP3    H154582   3.621   0.758  10.928  1.8631  1.5045 -0.6371
10129TIP3    H254583   3.509   0.844  10.983  1.6479  0.7903  0.0643
10130TIP3   OH254584   0.312   0.611  11.543  0.2975  0.0509 -0.0351
10130TIP3    H154585   0.269   0.683  11.588  0.3729  2.1560 -3.0184
10130TIP3    H254586   0.240   0.557  11.510  0.2097 -0.5396  1.0792
10131TIP3   OH254587   4.674   1.333   9.471 -0.1863 -0.1376 -0.6053
10131TIP3    H154588   4.701   1.293   9.553 -0.1597 -0.5772 -0.8283
10131TIP3    H254589   4.747   1.318   9.411 -0.1958  0.1997 -0.7055
10132TIP3   OH254590   0.015   5.772  10.482  0.1630 -0.6541 -0.1120
10132TIP3    H154591   0.041   5.828  10.409  0.4898 -1.6850 -0.7999
10132TIP3    H254592   0.093   5.769  10.538  0.3733 -0.9615 -0.4191
10133TIP3   OH254593   4.641   5.542   9.695  0.0563 -0.3456  0.0361
10133TIP3    H154594   4.712   5.535   9.758  0.2736 -1.0298 -0.2732
10133TIP3    H254595   4.663   5.618   9.641 -0.0295  0.1193  0.6554
10134TIP3   OH254596   4.003   6.644  12.551 -0.7755  0.5360  0.6416
10134TIP3    H154597   4.030   6.721  12.601 -1.2752  2.4822 -1.8875
10134TIP3    H254598   4.036   6.659  12.463 -1.0693 -2.1037 -0.0122
10135TIP3   OH254599   2.694   4.685   9.259  0.1900 -0.4270 -0.0610
10135TIP3    H154600   2.638   4.615   9.293  1.3989 -1.3441  0.0821
10135TIP3    H254601   2.737   4.647   9.182  1.2911 -0.0341  0.3479
10136TIP3   OH254602   6.645   2.739  10.931  0.0643 -0.5227 -0.3181
10136TIP3    H154603   6.578   2.807  10.943 -1.9000 -2.4734  0.3528
10136TIP3    H254604   6.690   2.735  11.015  0.2010 -0.0410 -0.3659
10137TIP3   OH254605   3.892   6.104  12.078  0.1778 -0.0080  0.7037
10137TIP3    H154606   3.815   6.066  12.121  0.3486  2.5378  3.5245
10137TIP3    H254607   3.881   6.198  12.086  1.9064  0.5368 -2.0595
10138TIP3   OH254608   5.294   4.677   9.586 -0.0130 -0.8476 -0.1458
10138TIP3    H154609   5.288   4.720   9.671 -1.1970  2.6216 -1.8220
10138TIP3    H254610   5.371   4.716   9.545 -2.2820  1.5235 -2.5315
10139TIP3   OH254611   3.506   5.908   9.635 -0.5753 -0.3082 -0.1616
10139TIP3    H154612   3.601   5.900   9.648 -0.7811 -1.7022  0.6310
10139TIP3    H254613   3.489   6.002   9.645  0.4601 -0.2688  1.5627
10140TIP3   OH254614   5.579   6.308  11.944 -0.3578 -0.0309 -0.1564
10140TIP3    H154615   5.573   6.263  11.860  1.2919 -0.1034 -0.2697
10140TIP3    H254616   5.629   6.248  12.000  0.1177  0.7861  0.3114
10141TIP3   OH254617   3.654   0.968   9.885 -0.2175  0.3353 -0.6439
10141TIP3    H154618   3.707   0.890   9.867 -0.6659 -0.1214 -0.0040
10141TIP3    H254619   3.713   1.041   9.866  0.2223 -0.1506 -1.2095
10142TIP3   OH254620   0.763   0.509  11.911 -0.3520  0.1737 -0.1901
10142TIP3    H154621   0.674   0.504  11.877 -0.7242 -1.9035  0.9471
10142TIP3    H254622   0.771   0.598  11.946 -1.9279  0.4274 -0.4264
10143TIP3   OH254623   0.366   3.932  11.126  0.0549 -0.2558  0.7392
10143TIP3    H154624   0.393   3.946  11.217 -0.3666 -0.9177  0.9723
10143TIP3    H254625   0.434   3.975  11.074  1.5491 -1.8241  1.3120
10144TIP3   OH254626   4.033   5.200  11.187  0.5080  0.3022  0.3590
10144TIP3    H154627   4.074   5.121  11.154  0.6491 -0.0558  1.3487
10144TIP3    H254628   4.101   5.242  11.240 -0.5789 -0.7259  2.7139
10145TIP3   OH254629   5.818   0.904  11.805  0.3949 -0.2094  0.6151
10145TIP3    H154630   5.786   0.957  11.878  2.4415  1.5582  0.3469
10145TIP3    H254631   5.802   0.957  11.727  1.5752 -0.4035  0.2169
10146TIP3   OH254632   5.394   5.925  10.455  0.1811  0.3063 -0.0793
10146TIP3    H154633   5.402   5.929  10.360 -0.0581  1.8609 -0.0610
10146TIP3    H254634   5.385   6.017  10.482 -0.9842 -0.1907  1.3268
10147TIP3   OH254635   4.891   5.357  12.297 -0.0034 -0.6672  0.5129
10147TIP3    H154636   4.814   5.401  12.334  0.7427  0.4370  0.8368
10147TIP3    H254637   4.861   5.320  12.215 -0.6542  0.5861  0.1616
10148TIP3   OH254638   2.324   0.248   9.776 -0.3751  0.4673  0.1915
10148TIP3    H154639   2.265   0.229   9.704  0.7463  0.1927 -0.6801
10148TIP3    H254640   2.327   0.166   9.826  2.2350 -0.8795 -1.9617
10149TIP3   OH254641   3.583   2.353  10.444 -0.3885 -0.0540  0.5472
10149TIP3    H154642   3.498   2.309  10.447 -0.7586  0.2733 -2.1431
10149TIP3    H254643   3.646   2.283  10.460 -1.0472 -1.2936 -1.7533
10150TIP3   OH254644   5.712   0.376  10.556  0.0486  0.3417  0.6037
10150TIP3    H154645   5.658   0.306  10.520  0.1457  1.1303 -1.1610
10150TIP3    H254646   5.710   0.361  10.651 -1.7269 -0.7251  0.4396
10151TIP3   OH254647   3.998   5.630  13.059 -0.1403  0.1889 -0.6253
10151TIP3    H154648   3.984   5.698  12.994  0.8267  0.5967 -0.4358
10151TIP3    H254649   3.959   5.665  13.139 -1.4563 -0.3755 -1.0061
10152TIP3   OH254650   0.854   0.549  11.001 -0.7043  0.0853  0.1847
10152TIP3    H154651   0.837   0.635  10.961 -0.3742 -0.3639 -0.9726
10152TIP3    H254652   0.828   0.486  10.933 -0.1819 -0.7144  0.7153
10153TIP3   OH254653   1.961   5.636  11.376 -0.5739  0.2388 -0.4919
10153TIP3    H154654   2.043   5.598  11.409 -0.4475 -0.8367 -1.9320
10153TIP3    H254655   1.893   5.574  11.402 -0.6209 -0.0239 -1.2181
10154TIP3   OH254656   0.017   5.192  10.152 -0.4216 -0.2014  0.1599
10154TIP3    H154657   0.028   5.205  10.058  0.0427 -1.6553 -0.0005
10154TIP3    H254658  -0.051   5.124  10.159  1.0658 -1.6759  0.7974
10155TIP3   OH254659   3.267   1.773  12.382  0.3590 -0.1271 -0.2266
10155TIP3    H154660   3.267   1.738  12.471  0.1685 -0.8243 -0.4952
10155TIP3    H254661   3.300   1.863  12.392 -0.1730 -0.0146  0.6112
10156TIP3   OH254662   3.277   0.419  11.767 -0.3669  0.0034  0.0509
10156TIP3    H154663   3.264   0.498  11.819  1.3794  0.0459  0.4801
10156TIP3    H254664   3.196   0.410  11.717 -1.7225  0.5045  2.0270
10157TIP3   OH254665   4.384   2.600   9.340 -0.1677  0.0915 -0.0221
10157TIP3    H154666   4.479   2.613   9.334 -0.1620 -0.1250 -0.5532
10157TIP3    H254667   4.347   2.688   9.336 -0.0153  0.1358 -0.5649
10158TIP3   OH254668   6.070   4.113  12.457  0.0086  0.1248  0.0396
10158TIP3    H154669   6.042   4.131  12.547  1.4591  1.8020  0.2223
10158TIP3    H254670   6.101   4.198  12.425  1.0043 -0.7812 -1.5097
10159TIP3   OH254671   1.572   1.763  11.773 -0.1459 -0.6233  0.4608
10159TIP3    H154672   1.487   1.805  11.758  0.3489 -0.1222 -1.2314
10159TIP3    H254673   1.636   1.832  11.753  0.6603 -1.2966  0.6687
10160TIP3   OH254674   4.683   0.061  11.028  0.8377  0.0504  0.3726
10160TIP3    H154675   4.766   0.014  11.037  1.3441  0.7008 -0.7122
10160TIP3    H254676   4.617  -0.004  11.051  1.6210 -0.5724  0.9532
10161TIP3   OH254677   3.382   5.546   9.586  0.2414 -0.0670  0.4606
10161TIP3    H154678   3.475   5.525   9.594  0.5738  1.0973 -0.0744
10161TIP3    H254679   3.366   5.546   9.491 -0.1244  0.4516  0.5170
10162TIP3   OH254680   1.296   3.434  11.415 -0.0359  0.4692  0.6324
10162TIP3    H154681   1.296   3.390  11.500  1.0181 -2.8912 -0.9312
10162TIP3    H254682   1.384   3.473  11.408  0.3776 -0.4683  0.5310
10163TIP3   OH254683   5.077   4.132  11.673  0.2908 -0.4227  0.2841
10163TIP3    H154684   5.104   4.155  11.762  0.8805 -1.2223  0.3242
10163TIP3    H254685   5.122   4.196  11.618  1.9446 -1.4278  0.3944
10164TIP3   OH254686   2.948   6.056   9.731 -0.3568  0.5524  0.1458
10164TIP3    H154687   2.859   6.089   9.747 -0.4808 -0.6162  2.0429
10164TIP3    H254688   2.935   5.969   9.693  0.0062  1.3251 -1.8848
10165TIP3   OH254689   1.421   4.296  11.975  0.1976 -0.3054  0.2625
10165TIP3    H154690   1.515   4.301  11.958  0.2021 -0.1163  0.3474
10165TIP3    H254691   1.414   4.253  12.060  0.1904 -0.7723  0.0316
10166TIP3   OH254692   4.744   4.934  12.081 -0.1165 -0.4424 -0.6771
10166TIP3    H154693   4.812   4.906  12.019 -0.4735  0.7566 -1.6323
10166TIP3    H254694   4.678   4.977  12.027 -0.7808  0.0131  0.4676
10167TIP3   OH254695   0.678   2.293  11.825  0.1450  0.2799 -0.6855
10167TIP3    H154696   0.761   2.340  11.837  0.5154  0.0525 -2.1544
10167TIP3    H254697   0.703   2.211  11.783 -0.4889 -1.3532  1.8867
10168TIP3   OH254698   5.578   5.337  10.311 -0.1831 -0.3529  0.5228
10168TIP3    H154699   5.587   5.403  10.380 -0.7981  0.1604  0.1154
10168TIP3    H254700   5.484   5.330  10.296 -0.0149  0.5260 -1.1968
10169TIP3   OH254701   2.347   0.595  11.759 -0.5610  0.3979 -0.3887
10169TIP3    H154702   2.353   0.621  11.851  1.6883 -3.9903  1.0114
10169TIP3    H254703   2.255   0.572  11.746 -0.7208  0.0839  1.1343
10170TIP3   OH254704   4.714   2.819  11.983  0.2597  0.1355  0.1119
10170TIP3    H154705   4.642   2.809  12.044 -1.1996  1.6557 -1.2652
10170TIP3    H254706   4.679   2.793  11.898  0.6301  2.7366 -0.9475
10171TIP3   OH254707   6.266   5.370   9.942  0.5242  0.4296  0.1319
10171TIP3    H154708   6.211   5.304   9.899  0.1796  0.2212  0.8905
10171TIP3    H254709   6.352   5.360   9.901  0.5407 -0.6527  0.4147
10172TIP3   OH254710   4.777   2.209  10.567 -0.0453  0.1394  0.2761
10172TIP3    H154711   4.808   2.157  10.492 -1.8309  0.1620 -0.5301
10172TIP3    H254712   4.717   2.151  10.612 -0.6818  0.8969  0.4130
10173TIP3   OH254713   0.364   5.209   9.514 -0.1733  0.2878  0.7631
10173TIP3    H154714   0.280   5.172   9.541 -0.7731  1.0921  0.0540
10173TIP3    H254715   0.405   5.237   9.596  0.6397 -2.5466  1.4129
10174TIP3   OH254716   1.758   5.449  10.782  0.2645 -0.0417  0.2840
10174TIP3    H154717   1.818   5.511  10.741  1.6126 -2.1353 -1.0782
10174TIP3    H254718   1.677   5.457  10.732  0.6145  0.2190 -0.2522
10175TIP3   OH254719   5.441   1.300  10.726 -0.2606  0.2713 -0.1391
10175TIP3    H154720   5.381   1.292  10.651 -1.1048 -2.0247  0.6799
10175TIP3    H254721   5.424   1.387  10.761 -0.2044  1.2099 -2.2809
10176TIP3   OH254722   3.031   0.642  10.502 -0.3671 -0.4295  0.6872
10176TIP3    H154723   3.004   0.695  10.577 -1.0216  1.0831 -0.5628
10176TIP3    H254724   3.114   0.681  10.474 -1.5676  0.9822 -1.1321
10177TIP3   OH254725   3.674   3.855  12.288  0.3660  0.3264  0.3381
10177TIP3    H154726   3.690   3.782  12.228 -0.3931  0.5150 -0.0974
10177TIP3    H254727   3.580   3.869  12.284  0.5976  1.8568 -0.1951
10178TIP3   OH254728   5.135   2.149  11.957 -0.2396  0.0543 -0.2289
10178TIP3    H154729   5.198   2.174  11.890  1.0458  2.7519  1.7700
10178TIP3    H254730   5.049   2.162  11.916  0.4967  1.8662 -1.3165
10179TIP3   OH254731   2.799   1.527  11.713  0.7983 -0.0629  0.5668
10179TIP3    H154732   2.745   1.455  11.744 -0.4374  1.9613  3.5422
10179TIP3    H254733   2.751   1.562  11.637 -1.0731  0.4261  1.9225
10180TIP3   OH254734   1.670   6.459  11.868 -1.2591  0.2439 -0.0589
10180TIP3    H154735   1.687   6.436  11.960 -0.5969  1.9113  0.2685
10180TIP3    H254736   1.703   6.548  11.859  1.3610 -0.8393 -2.6563
10181TIP3   OH254737   2.527   0.743  10.439  0.3807  0.0509 -0.0421
10181TIP3    H154738   2.461   0.709  10.379  0.0774  1.3836 -0.4967
10181TIP3    H254739   2.530   0.837  10.420  1.7214  0.1621  0.6400
10182TIP3   OH254740   3.450   1.401   9.672  0.2743  0.2224 -0.5725
10182TIP3    H154741   3.380   1.435   9.728 -0.1412 -0.1494 -0.8605
10182TIP3    H254742   3.486   1.478   9.628 -0.2303  0.3686 -0.7303
10183TIP3   OH254743   3.221   5.009  11.700 -0.0505  0.4972 -0.5323
10183TIP3    H154744   3.126   5.019  11.713 -0.0466  2.1053 -1.5866
10183TIP3    H254745   3.260   5.056  11.773 -0.0441 -0.0437 -0.1788
10184TIP3   OH254746   6.718   5.482  10.816 -0.2533 -0.2667 -0.0246
10184TIP3    H154747   6.735   5.524  10.901 -0.8926  1.1919 -0.5974
10184TIP3    H254748   6.801   5.438  10.795  0.3082  0.3714  0.7812
10185TIP3   OH254749   5.289   0.934  12.043  0.3565  0.0234  0.4288
10185TIP3    H154750   5.314   1.027  12.045  0.4799 -0.0145  0.7081
10185TIP3    H254751   5.217   0.928  12.105 -0.9164  0.2906 -0.9778
10186TIP3   OH254752   6.089   3.984   9.646  0.0321  0.1260  0.0309
10186TIP3    H154753   6.010   4.037   9.654  0.3550  0.4972  0.8253
10186TIP3    H254754   6.121   4.001   9.557 -0.4700  0.4086 -0.0966
10187TIP3   OH254755   6.534   5.537  10.120 -0.2336 -0.2772 -0.2806
10187TIP3    H154756   6.591   5.614  10.114  0.1911 -0.5724 -0.1169
10187TIP3    H254757   6.469   5.550  10.052 -0.4302  0.4433  0.0355
10188TIP3   OH254758   4.002   5.330  12.746 -0.1886  0.7336  0.5054
10188TIP3    H154759   3.994   5.343  12.651  1.7606  0.8085  0.3173
10188TIP3    H254760   3.928   5.379  12.783  0.7975  3.3976 -0.8046
10189TIP3   OH254761   6.120   4.134  10.128  0.5001  0.1709  0.1088
10189TIP3    H154762   6.163   4.154  10.045 -0.2846 -0.3333 -0.4481
10189TIP3    H254763   6.146   4.044  10.148 -0.0393 -0.0344 -0.0806
10190TIP3   OH254764   0.550   6.713   9.952  0.1484 -0.5200 -0.1652
10190TIP3    H154765   0.588   6.762   9.878  0.6105 -0.4893  0.0914
10190TIP3    H254766   0.467   6.680   9.918  0.2202 -0.2569 -0.6089
10191TIP3   OH254767   5.178   3.808  11.751  0.3721 -0.0110  0.2694
10191TIP3    H154768   5.215   3.811  11.839 -1.7209 -1.0370  1.2585
10191TIP3    H254769   5.102   3.865  11.755  0.1414 -0.2311 -0.8069
10192TIP3   OH254770   3.829   2.101  10.167 -0.0582  0.3999 -0.1697
10192TIP3    H154771   3.734   2.108  10.156  0.0236 -0.2181 -1.4964
10192TIP3    H254772   3.856   2.035  10.103  1.2307  0.2917  0.4365
10193TIP3   OH254773   4.695   0.524  10.632  0.5480 -0.3860 -0.2001
10193TIP3    H154774   4.612   0.505  10.675 -0.4881  2.1639 -0.8541
10193TIP3    H254775   4.743   0.578  10.695  0.5395  0.3677 -0.8172
10194TIP3   OH254776   3.216   2.553   9.637  0.1302 -0.6204 -0.6319
10194TIP3    H154777   3.271   2.624   9.673  0.8767 -0.2282 -2.4197
10194TIP3    H254778   3.258   2.473   9.667  0.0156 -0.3200  0.3662
10195TIP3   OH254779   1.926   5.687   9.909 -0.0328 -0.0800  0.4567
10195TIP3    H154780   1.962   5.714   9.824 -1.3298  1.8328  0.4478
10195TIP3    H254781   1.967   5.747   9.972 -1.4021  0.5916  0.7409
10196TIP3   OH254782   4.471   0.197  10.662  0.0586  0.1766 -0.3112
10196TIP3    H154783   4.394   0.161  10.706  0.2373  1.9090  1.5271
10196TIP3    H254784   4.453   0.184  10.569 -1.2142 -1.8657  0.1360
10197TIP3   OH254785   6.167   0.932  12.332  0.1749 -0.1531 -0.5635
10197TIP3    H154786   6.203   0.859  12.383  1.3991  2.0258  1.9343
10197TIP3    H254787   6.083   0.951  12.375  0.5125  0.7574 -0.2919
10198TIP3   OH254788   5.446   1.844   9.403 -0.1493 -0.1848  0.1328
10198TIP3    H154789   5.423   1.900   9.477 -0.3875 -0.8225  0.5525
10198TIP3    H254790   5.362   1.809   9.373 -0.0541  0.0722 -0.4480
10199TIP3   OH254791   4.617   4.685   9.245 -0.2062 -0.0846 -0.7928
10199TIP3    H154792   4.710   4.698   9.225 -0.6561 -0.0077 -3.0508
10199TIP3    H254793   4.600   4.593   9.226 -0.2198 -0.6270  1.5030
10200TIP3   OH254794   5.625   4.319   9.754  0.0539  0.3811  0.4284
10200TIP3    H154795   5.713   4.290   9.734 -0.0842  1.3225 -1.9321
10200TIP3    H254796   5.568   4.255   9.712 -0.4094 -0.2470  1.9746
10201TIP3   OH254797   2.141   5.608  10.206 -0.1052  0.1344  0.1422
10201TIP3    H154798   2.092   5.526  10.197 -0.5938  0.4281  0.0885
10201TIP3    H254799   2.227   5.581  10.238 -0.1947 -0.4181 -0.0704
10202TIP3   OH254800   3.945   5.771  13.279  0.4366 -0.8176  0.0799
10202TIP3    H154801   3.896   5.845  13.316 -1.3615 -1.7993 -0.1941
10202TIP3    H254802   3.990   5.732  13.354  0.7823  0.0865  0.3528
10203TIP3   OH254803   1.153   1.369  11.427 -0.3417 -0.2121 -0.1273
10203TIP3    H154804   1.155   1.292  11.371 -1.3948  0.8427 -1.6958
10203TIP3    H254805   1.191   1.439  11.374 -1.0311  0.7383  0.5879
10204TIP3   OH254806   4.719   2.478  11.847 -0.1298  0.4429 -1.0238
10204TIP3    H154807   4.728   2.391  11.807 -1.3390  0.4370 -1.3236
10204TIP3    H254808   4.706   2.460  11.940 -1.7048  0.2030 -1.2636
10205TIP3   OH254809   1.158   0.494  10.850 -0.2910 -0.1460  0.4784
10205TIP3    H154810   1.089   0.447  10.896  0.4552 -0.6379  1.1393
10205TIP3    H254811   1.200   0.547  10.918  0.7597 -0.7941  0.3580
10206TIP3   OH254812   1.225   6.191  11.539 -0.0033 -0.2938 -0.2200
10206TIP3    H154813   1.255   6.236  11.618  0.6660 -1.9350  0.5211
10206TIP3    H254814   1.133   6.173  11.556 -0.1092  0.2280 -0.2394
10207TIP3   OH254815   4.075   5.744  10.748 -1.0748  0.0537 -0.2902
10207TIP3    H154816   4.040   5.827  10.780  2.0405  0.6742  2.0972
10207TIP3    H254817   4.122   5.767  10.668  0.2632  0.8065  0.6673
10208TIP3   OH254818   0.698   4.803  11.317 -0.0817 -0.0800 -0.0508
10208TIP3    H154819   0.735   4.878  11.364 -2.0861  1.4706 -0.7834
10208TIP3    H254820   0.745   4.801  11.234  1.4168 -0.9852  0.7737
10209TIP3   OH254821   4.834   6.072   9.817 -0.4416 -0.3191 -0.6936
10209TIP3    H154822   4.924   6.089   9.787  0.0953 -0.8187  0.5551
10209TIP3    H254823   4.779   6.106   9.747  0.7059  0.7562 -1.1248
10210TIP3   OH254824   1.654   6.021  11.685  0.0596 -0.5646 -0.2449
10210TIP3    H154825   1.701   6.104  11.674  0.8270 -0.9783 -0.1266
10210TIP3    H254826   1.579   6.043  11.740  0.2735  0.0505 -0.1942
10211TIP3   OH254827   2.911   5.357   9.992 -0.3408 -0.3272 -0.1850
10211TIP3    H154828   2.846   5.334  10.058  0.2561  0.2597  0.6284
10211TIP3    H254829   2.963   5.427  10.032  1.4562 -1.4859 -0.3960
10212TIP3   OH254830   0.922   0.664  11.236 -0.5095  0.5752  0.1043
10212TIP3    H154831   0.901   0.627  11.151 -0.1432  1.1665 -0.2445
10212TIP3    H254832   0.919   0.589  11.296 -0.0932  0.0397 -0.5392
10213TIP3   OH254833   0.933   3.737  10.686 -0.1603  0.0334  0.1131
10213TIP3    H154834   0.862   3.721  10.749 -1.6713  0.2987 -1.4225
10213TIP3    H254835   0.934   3.832  10.675  1.1090  0.1152  0.8301
10214TIP3   OH254836   0.183   2.870  11.194 -0.7353 -0.5803 -0.4787
10214TIP3    H154837   0.113   2.806  11.182 -1.9124  0.7866 -1.1094
10214TIP3    H254838   0.139   2.949  11.223  0.6562  0.0758 -0.0894
10215TIP3   OH254839   2.954   1.050   9.280  0.2667  0.2092  0.0313
10215TIP3    H154840   2.945   0.971   9.333  1.6783  0.8505  1.2910
10215TIP3    H254841   2.867   1.090   9.282 -0.0287 -0.4443  0.7981
10216TIP3   OH254842   4.272   3.093   9.703  0.9727  0.1221 -0.5834
10216TIP3    H154843   4.321   3.103   9.785 -0.4126 -4.3370  1.0837
10216TIP3    H254844   4.334   3.048   9.645  0.9493  0.5013 -0.9052
10217TIP3   OH254845   2.344   2.138  11.956 -0.2296  0.3524  0.5865
10217TIP3    H154846   2.302   2.052  11.964 -0.9628  0.6679  0.1645
10217TIP3    H254847   2.409   2.139  12.027 -1.7481  0.3337  2.0157
10218TIP3   OH254848   3.522   0.103  10.222 -0.2929 -0.6051  0.7605
10218TIP3    H154849   3.604   0.058  10.241 -0.2893 -0.7317  0.4475
10218TIP3    H254850   3.467   0.037  10.180  0.1409 -0.0204 -0.8004
10219TIP3   OH254851   4.126   2.769   9.248 -0.4880  0.2014 -1.2250
10219TIP3    H154852   4.063   2.833   9.281 -1.8865 -1.3857 -0.6561
10219TIP3    H254853   4.073   2.692   9.228  0.9320 -0.3308 -3.2093
10220TIP3   OH254854   1.328   0.517  12.128  0.3569 -0.4719  0.0070
10220TIP3    H154855   1.338   0.540  12.035 -1.1268 -0.7489 -0.2482
10220TIP3    H254856   1.387   0.576  12.174 -1.4925  2.2533 -0.8212
10221TIP3   OH254857   0.273   2.695  11.630  0.4836 -0.2457 -0.3270
10221TIP3    H154858   0.279   2.625  11.694  1.2191 -1.3138 -1.5054
10221TIP3    H254859   0.179   2.704  11.612  0.2671  0.0954  0.8910
10222TIP3   OH254860   4.009   4.358   9.480 -0.1488 -0.3540 -0.7023
10222TIP3    H154861   4.048   4.341   9.394  1.0590  1.3379 -0.5456
10222TIP3    H254862   3.979   4.273   9.510 -0.5803 -0.9906 -2.7793
10223TIP3   OH254863   1.950   1.246  11.449 -0.1137 -0.1087 -0.6481
10223TIP3    H154864   1.952   1.340  11.464 -1.8840 -0.0928 -0.3370
10223TIP3    H254865   1.903   1.236  11.366  0.8200 -0.6954 -1.1253
10224TIP3   OH254866   0.149   3.720   9.994 -0.1769 -0.2293  0.4183
10224TIP3    H154867   0.236   3.682   9.981  0.3054  0.7490  0.7420
10224TIP3    H254868   0.103   3.704   9.912 -0.4128 -2.5813  0.9320
10225TIP3   OH254869   3.311   1.891   9.776 -0.2400  0.2421 -0.0877
10225TIP3    H154870   3.218   1.872   9.765 -0.3758  0.6323  0.3560
10225TIP3    H254871   3.323   1.897   9.871 -0.1966  2.2903 -0.1708
10226TIP3   OH254872   1.204   5.517  10.070 -0.2128  0.6054  0.2439
10226TIP3    H154873   1.138   5.539  10.135 -0.5678  1.4905 -0.3996
10226TIP3    H254874   1.239   5.601  10.041 -0.2920  0.2567 -0.9399
10227TIP3   OH254875   5.804   4.014   9.700  0.0241 -0.3954  0.0890
10227TIP3    H154876   5.748   3.978   9.631  0.7663 -2.1930  0.3565
10227TIP3    H254877   5.805   3.946   9.767  0.5239  0.6840  1.2023
10228TIP3   OH254878   1.985   6.252   9.830 -0.3133  0.3171  0.5035
10228TIP3    H154879   1.925   6.207   9.889 -1.0561  0.6000 -0.0206
10228TIP3    H254880   1.948   6.339   9.820 -1.4936 -0.4001 -2.1638
10229TIP3   OH254881   5.432   5.651  11.172 -0.3519  0.0306 -0.3057
10229TIP3    H154882   5.407   5.743  11.169  0.7093  0.3974  1.0954
10229TIP3    H254883   5.434   5.630  11.265  1.3738 -0.8421 -0.5076
10230TIP3   OH254884   3.206   2.202  10.013 -0.0784 -0.3895  0.2474
10230TIP3    H154885   3.294   2.207   9.974  0.2170 -1.8452  0.6748
10230TIP3    H254886   3.206   2.272  10.079  1.3290 -1.3289  1.2991
10231TIP3   OH254887   4.699   2.902  10.851  0.4505  0.1222  0.5029
10231TIP3    H154888   4.730   2.981  10.894 -0.1613  2.0246 -2.2667
10231TIP3    H254889   4.604   2.912  10.850  0.3343 -0.9099  0.5531
10232TIP3   OH254890   2.850   5.197  11.575 -0.2624 -0.3861 -0.1195
10232TIP3    H154891   2.761   5.209  11.609  0.6388  2.8802  1.5248
10232TIP3    H254892   2.879   5.114  11.612 -2.6404 -1.6473 -0.8871
10233TIP3   OH254893   1.799   4.850  11.780 -0.2449 -0.2263  0.1894
10233TIP3    H154894   1.845   4.891  11.853 -0.4793 -0.0433  0.2345
10233TIP3    H254895   1.839   4.763  11.772 -1.4097 -0.9263  1.6651
10234TIP3   OH254896   4.061   3.391  12.455 -0.2973  0.5615  0.0701
10234TIP3    H154897   3.992   3.360  12.515  0.9986  0.9346  1.8170
10234TIP3    H254898   4.143   3.373  12.501  0.8708 -0.4342 -2.2111
10235TIP3   OH254899   4.599   3.656   9.896  0.7360 -0.2876  0.4136
10235TIP3    H154900   4.590   3.751   9.888  0.8197 -0.3621 -0.6136
10235TIP3    H254901   4.618   3.625   9.808 -2.8984 -1.7023 -0.0434
10236TIP3   OH254902   5.059   5.089   9.815 -0.0493  0.0805  0.3228
10236TIP3    H154903   5.121   5.140   9.764 -0.8773  2.2857  1.3789
10236TIP3    H254904   4.974   5.107   9.775 -0.5444  0.7773  1.6302
10237TIP3   OH254905   4.707   4.529  10.796  0.4956  0.0812 -0.4484
10237TIP3    H154906   4.753   4.511  10.713 -1.0545  2.3230 -1.9200
10237TIP3    H254907   4.746   4.610  10.827  0.3632 -0.2167  0.5098
10238TIP3   OH254908   5.865   1.003  12.356  0.3107 -0.3394 -0.2785
10238TIP3    H154909   5.784   1.052  12.364  0.4755 -0.0487 -0.3739
10238TIP3    H254910   5.846   0.918  12.397  0.2592  0.0860  0.6111
10239TIP3   OH254911   2.501   0.334  11.748 -0.1988  0.2829 -0.1420
10239TIP3    H154912   2.514   0.428  11.756  0.7316  0.0724  1.2715
10239TIP3    H254913   2.577   0.303  11.699  0.4225  0.0799  0.9084
10240TIP3   OH254914   4.972   4.079  12.099 -0.0534  0.5342 -0.1501
10240TIP3    H154915   4.881   4.100  12.120  0.1740 -0.3420  1.8370
10240TIP3    H254916   4.966   4.007  12.036 -0.7191  0.9669 -0.6030
10241TIP3   OH254917   3.556   3.562  12.167 -0.3327 -0.1349  0.4561
10241TIP3    H154918   3.485   3.626  12.168 -0.5498 -0.3537 -0.1219
10241TIP3    H254919   3.546   3.516  12.083 -0.0858 -0.8134  0.7854
10242TIP3   OH254920   0.449   4.372   9.639 -0.2860 -0.3322  0.0596
10242TIP3    H154921   0.375   4.349   9.583 -0.2735 -0.3270  0.0411
10242TIP3    H254922   0.487   4.288   9.664  1.1969 -0.3055 -1.9095
10243TIP3   OH254923   1.801   5.402  11.539  0.1769 -0.2645  0.3982
10243TIP3    H154924   1.720   5.452  11.529  0.0914 -0.4649  0.0860
10243TIP3    H254925   1.832   5.388  11.450  1.4182  1.2080  0.5658
10244TIP3   OH254926   3.284   4.854   9.566  0.6422  0.1377 -0.7896
10244TIP3    H154927   3.363   4.815   9.604 -0.1204 -0.3423  0.3850
10244TIP3    H254928   3.290   4.834   9.473  1.5245 -0.5754 -0.6018
10245TIP3   OH254929   3.376   0.072  11.615  0.4875 -0.4351 -0.4947
10245TIP3    H154930   3.446   0.104  11.671 -0.2962  1.2845 -0.4344
10245TIP3    H254931   3.295   0.095  11.661 -0.1576  0.2731 -1.9169
10246TIP3   OH254932   0.551   1.396  10.590  0.1507 -0.0787  0.3282
10246TIP3    H154933   0.538   1.340  10.514 -0.9983 -0.5930  0.8840
10246TIP3    H254934   0.635   1.439  10.574 -0.1378 -0.0525 -1.2990
10247TIP3   OH254935   2.247   0.350  10.339  0.4431  0.1813 -0.5728
10247TIP3    H154936   2.158   0.357  10.372  1.0197  0.0231  1.1731
10247TIP3    H254937   2.284   0.437  10.351  1.0231 -0.1727  0.4251
10248TIP3   OH254938   0.617   0.853  11.818  0.1843 -0.2306 -0.3351
10248TIP3    H154939   0.654   0.893  11.897 -1.0252  0.1417  0.0722
10248TIP3    H254940   0.604   0.761  11.840 -2.0220  0.2527  0.6703
10249TIP3   OH254941   5.821   0.956  11.510 -0.3027 -0.3985  0.5254
10249TIP3    H154942   5.830   1.051  11.506  1.6309 -0.5827 -0.4678
10249TIP3    H254943   5.910   0.922  11.503 -1.1134 -2.3593 -2.4858
10250TIP3   OH254944   3.832   6.612  11.231 -0.2876  0.3225 -0.5742
10250TIP3    H154945   3.813   6.584  11.320  2.0595 -0.4285 -0.2543
10250TIP3    H254946   3.794   6.700  11.225  0.5893  0.9026  1.5869
10251TIP3   OH254947   1.035   0.493  11.916  0.4281 -0.4625  0.4193
10251TIP3    H154948   1.055   0.477  12.009  0.3023  1.9374  0.9318
10251TIP3    H254949   0.941   0.474  11.909 -0.1334  1.5837  1.4354
10252TIP3   OH254950   4.718   2.448   9.672 -0.5678  0.3109  0.4152
10252TIP3    H154951   4.715   2.540   9.698 -0.0437  0.4795 -0.0888
10252TIP3    H254952   4.663   2.403   9.736 -1.5295  1.0891  0.1570
10253TIP3   OH254953   6.293   6.489  12.091  0.6841  0.0795  0.3176
10253TIP3    H154954   6.313   6.477  11.998  0.6217  0.5079  0.2475
10253TIP3    H254955   6.375   6.520  12.129  0.9164 -0.7877  0.5469
10254TIP3   OH254956   4.648   3.187  12.286 -0.0058  0.1926 -0.0354
10254TIP3    H154957   4.593   3.158  12.213  0.7416 -0.2909 -0.4308
10254TIP3    H254958   4.670   3.278  12.265  0.4571 -0.0357 -0.5900
10255TIP3   OH254959   3.634   3.927   9.569 -0.2030 -0.2168  0.3326
10255TIP3    H154960   3.621   3.839   9.603 -2.3544  0.1794  0.6925
10255TIP3    H254961   3.615   3.985   9.643 -1.7485  0.5749 -0.6206
10256TIP3   OH254962   5.855   3.886  11.704 -0.1491  0.6934 -0.4523
10256TIP3    H154963   5.805   3.950  11.755  0.6924  0.3733  0.7992
10256TIP3    H254964   5.894   3.937  11.633 -0.8235  1.2614 -0.4254
10257TIP3   OH254965   5.748   6.098  10.274  0.0920  0.2884 -0.2460
10257TIP3    H154966   5.803   6.087  10.352  0.3217  1.5106 -0.2264
10257TIP3    H254967   5.679   6.158  10.301 -1.3991 -1.3458 -0.2217
10258TIP3   OH254968   2.596   4.820  11.476  0.0412 -0.3668 -0.2322
10258TIP3    H154969   2.583   4.886  11.544 -0.5165 -0.6544 -0.0562
10258TIP3    H254970   2.508   4.797  11.447  0.2897  0.7825 -2.0565
10259TIP3   OH254971   0.625   0.341   9.622  0.7440 -0.2168 -0.6419
10259TIP3    H154972   0.680   0.336   9.543  2.3026 -0.4481  0.4034
10259TIP3    H254973   0.655   0.420   9.667  0.1645 -0.3107 -0.0741
10260TIP3   OH254974   3.099   4.388  11.403  0.1057  0.7573 -0.5112
10260TIP3    H154975   3.190   4.404  11.428 -0.0301  0.5436  0.1238
10260TIP3    H254976   3.106   4.328  11.328  0.4618 -0.5257  0.5050
10261TIP3   OH254977   6.128   1.611  11.514  0.4054 -0.1792 -0.1426
10261TIP3    H154978   6.187   1.683  11.537  1.1026 -0.7527 -0.1061
10261TIP3    H254979   6.152   1.589  11.424  1.6497 -1.7479  0.5424
10262TIP3   OH254980   5.473   3.092  11.893 -0.3158 -0.1969 -0.2809
10262TIP3    H154981   5.511   3.012  11.858  2.7846  1.2353 -0.5762
10262TIP3    H254982   5.468   3.151  11.818  1.6498  1.2538  0.6210
10263TIP3   OH254983   4.633   3.067  11.415 -0.0515  0.2078  0.3035
10263TIP3    H154984   4.659   3.011  11.343 -1.0966  0.7754 -0.5472
10263TIP3    H254985   4.587   3.009  11.476  0.5112 -0.1988  0.3465
10264TIP3   OH254986   6.492   3.972  11.444  0.1354  0.2375 -0.0669
10264TIP3    H154987   6.422   4.003  11.386 -0.0970 -0.1752 -0.0032
10264TIP3    H254988   6.571   3.973  11.389  0.2260  1.3897  0.0565
10265TIP3   OH254989   1.283   6.211  12.170 -0.6446 -0.2908 -0.5576
10265TIP3    H154990   1.195   6.176  12.185 -2.7742  3.7847 -2.0930
10265TIP3    H254991   1.312   6.241  12.256 -1.3471 -0.4271 -0.2672
10266TIP3   OH254992   0.061   3.629  10.646  0.0899 -0.2020 -0.4900
10266TIP3    H154993   0.078   3.546  10.601 -0.1829  1.1857 -3.4267
10266TIP3    H254994   0.045   3.604  10.737  1.2325 -3.2106 -0.9831
10267TIP3   OH254995   4.865   4.740  10.833  0.0879 -0.3710  0.5710
10267TIP3    H154996   4.934   4.766  10.895  0.9242 -1.2873  0.0437
10267TIP3    H254997   4.812   4.819  10.823 -0.2056 -0.2454  2.6079
10268TIP3   OH254998   1.523   6.700  10.632  0.1168  0.3370 -0.0331
10268TIP3    H154999   1.509   6.611  10.664 -1.6918  0.4404 -0.3944
10268TIP3    H255000   1.595   6.734  10.686 -0.6810 -0.5755  1.7184
10269TIP3   OH255001   6.033   6.019   9.326  0.1595 -0.4167  0.6346
10269TIP3    H155002   6.032   6.053   9.416 -0.4957 -1.1838  0.9370
10269TIP3    H255003   6.038   5.924   9.337 -0.3007 -0.5369 -0.1243
10270TIP3   OH255004   4.735   4.147   9.213 -0.7762  0.2790  0.2881
10270TIP3    H155005   4.818   4.160   9.167 -0.9571 -1.5963 -0.6501
10270TIP3    H255006   4.759   4.097   9.291 -1.0189 -0.2319  0.0353
10271TIP3   OH255007   1.148   6.566  11.714 -0.0652 -0.4604 -0.1492
10271TIP3    H155008   1.225   6.597  11.762  0.1526 -1.1210 -0.0585
10271TIP3    H255009   1.079   6.628  11.737  0.4838  0.2541 -0.3845
10272TIP3   OH255010   3.389   5.347  12.435  0.1245  0.1243  0.0438
10272TIP3    H155011   3.402   5.281  12.368 -0.9885 -0.7053  0.6142
10272TIP3    H255012   3.472   5.350  12.482  0.1497 -0.9665  0.0924
10273TIP3   OH255013   1.815   3.842  10.577 -0.1232 -0.0541 -0.3596
10273TIP3    H155014   1.829   3.823  10.485 -1.7338 -1.0808 -0.4327
10273TIP3    H255015   1.751   3.913  10.578  0.5302  0.5478 -0.0142
10274TIP3   OH255016   3.829   1.371  12.564 -0.0322  0.3449 -0.3203
10274TIP3    H155017   3.881   1.373  12.484 -0.0757  1.5576 -0.3387
10274TIP3    H255018   3.892   1.388  12.634 -0.3143  1.3874 -0.3038
10275TIP3   OH255019   0.180   0.928  10.380  0.2476  0.5905 -0.8330
10275TIP3    H155020   0.208   0.951  10.468  2.2205 -1.0536 -0.9428
10275TIP3    H255021   0.158   1.011  10.338 -1.9609  1.3133  1.5345
10276TIP3   OH255022   4.234   6.350  10.024 -0.0964  0.3202  0.0531
10276TIP3    H155023   4.205   6.259  10.025 -0.8758  0.5551  1.5238
10276TIP3    H255024   4.248   6.370   9.931  0.7866 -1.4851 -0.2357
10277TIP3   OH255025   6.510   4.027  11.748  0.0444  0.0855 -0.2125
10277TIP3    H155026   6.522   4.023  11.653  0.6645 -1.1133 -0.0958
10277TIP3    H255027   6.415   4.024  11.760 -0.1893  2.6398 -0.8627
10278TIP3   OH255028   1.527   2.184  10.031  0.3537  0.2684  0.5747
10278TIP3    H155029   1.620   2.165  10.045  0.3236  0.1746  0.6430
10278TIP3    H255030   1.508   2.257  10.090  0.8819  1.6332 -0.8716
10279TIP3   OH255031   4.722   5.542  12.101 -0.5849  0.1868  0.4341
10279TIP3    H155032   4.764   5.626  12.117 -0.5718  0.5868 -1.4296
10279TIP3    H255033   4.650   5.562  12.041  0.7736 -1.3764 -1.8524
10280TIP3   OH255034   2.570   1.507  10.751  0.3745  0.1155 -0.1316
10280TIP3    H155035   2.612   1.500  10.837 -0.5793 -2.9164  0.1850
10280TIP3    H255036   2.635   1.549  10.695  0.8777  2.5757  2.1084
10281TIP3   OH255037   2.999   2.016  10.424  0.1954 -0.3824  0.0167
10281TIP3    H155038   3.029   2.105  10.440 -0.6467 -0.3512  1.6135
10281TIP3    H255039   3.066   1.960  10.465  0.7154 -0.4947 -0.9694
10282TIP3   OH255040   5.474   3.459   9.881  0.5099  0.3792 -0.2031
10282TIP3    H155041   5.503   3.524   9.946  1.7604  0.8858 -1.2190
10282TIP3    H255042   5.458   3.510   9.802 -1.9001 -0.1016 -0.0992
10283TIP3   OH255043   1.022   1.699   9.326  0.3594 -0.2676  0.3284
10283TIP3    H155044   0.939   1.704   9.373 -0.6627  0.1298 -1.4254
10283TIP3    H255045   1.058   1.788   9.332 -1.7253  1.0082 -2.8460
10284TIP3   OH255046   3.872   2.824  10.343  0.1416 -0.1249 -0.1493
10284TIP3    H155047   3.791   2.773  10.342  0.6377 -0.9096 -0.7477
10284TIP3    H255048   3.892   2.841  10.251  0.1702  0.8637  0.0275
10285TIP3   OH255049   4.463   0.473  10.755  0.1562  0.4855 -0.0132
10285TIP3    H155050   4.485   0.385  10.725  0.5235  0.9587 -1.2033
10285TIP3    H255051   4.381   0.494  10.710 -1.4482 -0.2730  2.4051
10286TIP3   OH255052   1.811   2.542  10.847 -0.0540  0.2131  0.1335
10286TIP3    H155053   1.866   2.480  10.895 -0.8547 -0.5678  0.0765
10286TIP3    H255054   1.773   2.598  10.915  2.0719  1.8591  0.0518
10287TIP3   OH255055   1.562   6.595   9.827 -0.7645  0.1163 -0.0561
10287TIP3    H155056   1.539   6.685   9.802 -2.6524 -0.2730  0.1610
10287TIP3    H255057   1.563   6.547   9.745  0.1460  0.2957 -0.1606
10288TIP3   OH255058   0.661   4.112  10.000 -0.4352  0.1612  0.4446
10288TIP3    H155059   0.675   4.031   9.951  0.0963  0.0205  0.8224
10288TIP3    H255060   0.577   4.098  10.044 -1.2568  0.5572 -0.9374
10289TIP3   OH255061   3.621   5.410   9.636  0.0524  0.2792  0.0528
10289TIP3    H155062   3.552   5.351   9.667 -2.1725  2.7130  0.0606
10289TIP3    H255063   3.670   5.358   9.572 -3.3683 -0.9086 -1.8624
10290TIP3   OH255064   1.658   2.240  10.872 -0.0108  0.4730  0.1351
10290TIP3    H155065   1.732   2.281  10.827  0.9550 -1.1907  0.1283
10290TIP3    H255066   1.687   2.234  10.964  0.5067 -1.4557 -0.1052
10291TIP3   OH255067   4.337   5.965  12.886 -0.1825 -0.2145  0.4321
10291TIP3    H155068   4.244   5.988  12.884  0.3395  2.0922  0.5951
10291TIP3    H255069   4.356   5.940  12.796 -0.9488 -0.6947  0.3903
10292TIP3   OH255070   2.884   4.337  12.694  0.1545  0.1654  0.1547
10292TIP3    H155071   2.798   4.375  12.679  0.4659  1.3382  1.1702
10292TIP3    H255072   2.867   4.247  12.720 -0.6522 -0.1526 -1.3703
10293TIP3   OH255073   4.286   3.587   9.276  0.1733 -0.2937  0.9398
10293TIP3    H155074   4.336   3.571   9.356 -0.0771 -1.0883  0.9547
10293TIP3    H255075   4.196   3.568   9.300  0.3410 -2.8280 -0.0612
10294TIP3   OH255076   3.285   1.475  12.414 -0.7135  0.2842  0.4409
10294TIP3    H155077   3.345   1.415  12.459  0.3301  0.1767 -1.0294
10294TIP3    H255078   3.340   1.549  12.388 -1.0054 -0.1676 -1.6262
10295TIP3   OH255079   5.560   3.551  10.127  0.0602  0.1573 -0.3318
10295TIP3    H155080   5.491   3.499  10.168  0.4585 -0.3422 -0.2860
10295TIP3    H255081   5.606   3.592  10.200  0.6681 -0.6041 -0.2746
10296TIP3   OH255082   0.939   1.292  10.538 -0.5228 -0.0055  0.3216
10296TIP3    H155083   0.912   1.382  10.521  0.9338  0.5965  0.9704
10296TIP3    H255084   0.868   1.255  10.591 -0.3636  1.3288  1.5202
10297TIP3   OH255085   4.359   0.157  11.595 -0.4224 -0.4181 -0.1267
10297TIP3    H155086   4.341   0.210  11.517 -0.3333 -0.3796 -0.1209
10297TIP3    H255087   4.282   0.169  11.650 -1.8720 -2.7500 -1.4575
10298TIP3   OH255088   3.785   0.026  10.289  0.4733  0.2484 -0.0880
10298TIP3    H155089   3.849   0.097  10.300 -0.7172  1.2932  0.3239
10298TIP3    H255090   3.740   0.021  10.373 -0.2169 -0.2403 -0.4777
10299TIP3   OH255091   1.293   3.768   9.961 -0.3796 -0.6401 -0.2096
10299TIP3    H155092   1.241   3.769  10.041  1.5465 -1.2229  1.1028
10299TIP3    H255093   1.233   3.733   9.894 -1.7065 -1.1467  1.1887
10300TIP3   OH255094   3.614   5.248  10.781  0.1726  0.8466 -0.2153
10300TIP3    H155095   3.679   5.294  10.834  1.5228  1.3152 -2.1414
10300TIP3    H255096   3.658   5.168  10.753 -1.0546 -0.1302  0.5705
10301TIP3   OH255097   3.368   2.476  10.062  0.2603 -0.6181  0.3727
10301TIP3    H155098   3.434   2.515  10.119  0.7960  0.5392 -1.0008
10301TIP3    H255099   3.291   2.465  10.119  0.8780  0.1902  1.4002
10302TIP3   OH255100   2.840   3.663  10.379 -0.6751  0.7606 -0.4905
10302TIP3    H155101   2.890   3.597  10.427  0.5684  0.9838 -1.4500
10302TIP3    H255102   2.855   3.744  10.427 -0.1278  0.8262 -0.7761
10303TIP3   OH255103   2.669   0.620  12.277 -0.0930  0.4753 -0.6734
10303TIP3    H155104   2.719   0.636  12.197 -0.8490 -1.4474 -1.5851
10303TIP3    H255105   2.731   0.639  12.348  1.9106 -1.5795 -1.7652
10304TIP3   OH255106   3.957   2.796  12.104 -0.1531  0.0907 -0.3649
10304TIP3    H155107   3.883   2.770  12.159 -0.5070 -0.4473 -1.0848
10304TIP3    H255108   4.034   2.761  12.149 -0.3721  0.2544  0.1455
10305TIP3   OH255109   5.298   1.873  12.405  0.8146 -0.1997 -0.1008
10305TIP3    H155110   5.248   1.791  12.406 -0.9928  0.8250 -0.6356
10305TIP3    H255111   5.372   1.858  12.463  1.2273 -2.6152 -1.1547
10306TIP3   OH255112   0.146   2.915  10.699  0.2562 -0.1184  0.4822
10306TIP3    H155113   0.085   2.981  10.733 -0.4469 -0.9395  0.8255
10306TIP3    H255114   0.212   2.906  10.768 -0.8411 -1.3471  1.4278
10307TIP3   OH255115   5.106   5.499  11.166  0.2119  0.3347  0.2442
10307TIP3    H155116   5.198   5.525  11.169  0.4863 -0.6689  1.7383
10307TIP3    H255117   5.103   5.432  11.097  0.2732  1.4658 -0.8784
10308TIP3   OH255118   5.703   3.230  12.016 -0.0094  0.2834  0.0692
10308TIP3    H155119   5.718   3.246  11.923 -1.7476 -0.0776 -0.3041
10308TIP3    H255120   5.608   3.222  12.024  0.1778 -0.6874  1.7254
10309TIP3   OH255121   5.162   3.770  12.789 -0.4783  0.0375 -0.0160
10309TIP3    H155122   5.241   3.719  12.804  0.0200  1.0889  1.1445
10309TIP3    H255123   5.157   3.829  12.864 -0.8881  1.8727 -1.4146
10310TIP3   OH255124   2.983   0.680  12.791  0.2021 -0.2889  0.4109
10310TIP3    H155125   3.043   0.734  12.739  1.0866 -1.1057  0.5545
10310TIP3    H255126   2.993   0.592  12.755 -2.5335 -0.1080 -0.9912
10311TIP3   OH255127   2.450   1.058   9.721 -0.4771 -0.4067 -0.7367
10311TIP3    H155128   2.436   1.133   9.663  0.1821  0.6068  0.3693
10311TIP3    H255129   2.362   1.029   9.744 -0.8960  2.2176  1.5072
10312TIP3   OH255130   1.203   5.356  10.416  0.1542  0.3471 -1.0933
10312TIP3    H155131   1.229   5.360  10.508  0.4996 -0.3346 -1.1540
10312TIP3    H255132   1.265   5.414  10.372  1.0217 -0.5508 -1.1051
10313TIP3   OH255133   0.708   3.206  10.236  0.2448 -0.1691 -0.2259
10313TIP3    H155134   0.672   3.202  10.325  0.5430  0.7674 -0.0470
10313TIP3    H255135   0.758   3.125  10.227  0.4301 -0.1532  0.5621
10314TIP3   OH255136   5.933   5.367  11.149 -0.6826  0.2531  0.0764
10314TIP3    H155137   6.013   5.329  11.114 -0.8739  1.1544 -1.4216
10314TIP3    H255138   5.889   5.406  11.073 -1.3313  1.9189  1.2369
10315TIP3   OH255139   4.162   1.832   9.927 -0.6433  0.4486  0.1229
10315TIP3    H155140   4.177   1.777   9.850  1.0685  0.9051  0.1081
10315TIP3    H255141   4.086   1.885   9.904 -0.6579  0.0036 -0.9134
10316TIP3   OH255142   3.474   1.205  11.044  0.4117  0.2956  0.0404
10316TIP3    H155143   3.390   1.228  11.083  1.0975  0.8569  1.2103
10316TIP3    H255144   3.475   1.109  11.045 -0.8671  0.2373 -1.4404
10317TIP3   OH255145   4.503   4.745  12.139  0.2247  0.0497  0.1656
10317TIP3    H155146   4.416   4.741  12.099  0.3223 -0.0912 -0.0365
10317TIP3    H255147   4.545   4.821  12.099 -0.0092  0.4629  0.6876
10318TIP3   OH255148   4.794   3.759  11.628 -0.0270  0.1819  0.1012
10318TIP3    H155149   4.829   3.847  11.645  2.0166 -0.6093  0.3587
10318TIP3    H255150   4.769   3.727  11.714  0.8720 -0.1006  0.2739
10319TIP3   OH255151   2.742   2.808   9.476  0.1556 -0.1200  0.6413
10319TIP3    H155152   2.827   2.850   9.459 -0.1326  0.1262 -0.2847
10319TIP3    H255153   2.755   2.759   9.556  0.8794  0.7376  1.0701
10320TIP3   OH255154   2.463   4.915  10.683  0.2098 -0.2111  0.1059
10320TIP3    H155155   2.533   4.909  10.618 -0.3762  1.2365 -0.6864
10320TIP3    H255156   2.398   4.852  10.653  0.5615 -0.5886  0.1114
10321TIP3   OH255157   1.944   5.906  10.740 -0.8370 -0.0145 -0.4060
10321TIP3    H155158   1.948   5.964  10.817  0.9266 -0.7179  0.0670
10321TIP3    H255159   1.997   5.950  10.674  0.4982 -1.0560 -0.0497
10322TIP3   OH255160   5.670   1.538   9.002 -0.2731 -0.3043 -0.0480
10322TIP3    H155161   5.633   1.543   8.914  0.1561 -0.0027 -0.2128
10322TIP3    H255162   5.674   1.629   9.032 -2.9436 -0.5296  1.3547
10323TIP3   OH255163   4.855   1.591   9.673 -0.4603 -0.0405 -0.2396
10323TIP3    H155164   4.814   1.607   9.588  1.1855 -0.3448 -1.1316
10323TIP3    H255165   4.802   1.521   9.713 -0.3057 -1.0738 -1.7498
10324TIP3   OH255166   1.601   1.373  11.301 -0.0188 -0.0624  0.0444
10324TIP3    H155167   1.599   1.439  11.370  1.1564 -0.0525  0.0925
10324TIP3    H255168   1.560   1.417  11.226 -0.1202  0.3806  0.3503
10325TIP3   OH255169   4.602   2.356   9.953 -0.2726  0.2900 -0.1005
10325TIP3    H155170   4.554   2.332  10.032 -1.0448  2.4640  0.1543
10325TIP3    H255171   4.542   2.337   9.881 -0.7123  1.0657  0.0610
10326TIP3   OH255172   0.277   0.953  10.642 -0.2838  0.2625 -0.2131
10326TIP3    H155173   0.256   0.958  10.735 -0.7222 -1.9001 -0.1465
10326TIP3    H255174   0.373   0.960  10.639 -0.3197  1.2775  0.2745
10327TIP3   OH255175   2.213   5.947  11.221 -0.1891 -0.4066 -0.1513
10327TIP3    H155176   2.244   5.961  11.131 -0.4735 -1.3076 -0.3987
10327TIP3    H255177   2.252   5.863  11.246 -1.3678 -0.9203 -0.0023
10328TIP3   OH255178   2.584   1.855  10.439 -0.5545 -0.0930  0.1984
10328TIP3    H155179   2.608   1.947  10.452 -0.4772  0.2727 -2.1467
10328TIP3    H255180   2.491   1.856  10.419 -0.2839 -0.3460 -1.1766
10329TIP3   OH255181   4.143   4.010  11.539 -0.2684 -0.0449  0.3034
10329TIP3    H155182   4.179   3.929  11.504 -0.1763  0.7634 -1.6027
10329TIP3    H255183   4.206   4.037  11.606  0.3570 -0.8812  0.0684
10330TIP3   OH255184   0.713   1.644  12.149  0.0136  0.0548 -0.4131
10330TIP3    H155185   0.801   1.650  12.187 -0.5129 -0.6303  0.9877
10330TIP3    H255186   0.673   1.729  12.168  0.5606  0.6014 -1.6082
10331TIP3   OH255187   5.673   3.641  10.363  0.2717 -0.0925  0.1704
10331TIP3    H155188   5.749   3.639  10.422  0.1336 -0.1663  0.3470
10331TIP3    H255189   5.642   3.731  10.367  0.5111  0.0031 -0.1097
10332TIP3   OH255190   2.996   1.973   9.977  0.3900  0.8291 -0.5507
10332TIP3    H155191   2.934   1.964  10.049 -0.7109  1.2411 -1.4144
10332TIP3    H255192   3.052   2.047  10.001  1.9309 -0.7784  1.1795
10333TIP3   OH255193   1.271   5.619  12.300  0.2458 -0.2767 -0.4908
10333TIP3    H155194   1.196   5.644  12.354  0.6462 -1.4715  0.6741
10333TIP3    H255195   1.244   5.538  12.258  0.6484 -0.3672 -0.5773
10334TIP3   OH255196   6.111   1.909   9.831  0.4035  0.0967 -0.2609
10334TIP3    H155197   6.068   1.825   9.813 -0.2791  0.5411 -0.7422
10334TIP3    H255198   6.197   1.885   9.865  1.3321 -0.8317 -2.9887
10335TIP3   OH255199   2.558   2.088  11.794 -0.5188 -0.1950  0.2341
10335TIP3    H155200   2.488   2.106  11.857 -1.6885  0.4082 -1.1812
10335TIP3    H255201   2.517   2.031  11.729  0.6766 -0.8521  0.0431
10336TIP3   OH255202   4.049   6.741  11.414 -0.4562 -0.4675 -0.6191
10336TIP3    H155203   4.056   6.832  11.443 -0.4576 -1.1130  1.5403
10336TIP3    H255204   3.963   6.712  11.445 -1.5444 -0.5737 -3.3867
10337TIP3   OH255205   5.531   2.848  11.507  0.3977  0.0427 -0.1575
10337TIP3    H155206   5.603   2.821  11.449  1.0151 -0.7054  0.9138
10337TIP3    H255207   5.459   2.790  11.483  0.3535  0.3410 -0.7783
10338TIP3   OH255208   1.966   0.967   9.122  0.2568 -0.2291  0.8762
10338TIP3    H155209   1.910   0.896   9.153 -0.9060 -0.0316 -0.6723
10338TIP3    H255210   1.994   0.940   9.034  1.7806  0.1499  1.2020
10339TIP3   OH255211   1.714   5.759   9.541 -0.5797  0.2129  0.2422
10339TIP3    H155212   1.787   5.813   9.512 -1.1576  0.6790 -0.3940
10339TIP3    H255213   1.697   5.700   9.467  0.4887 -1.3314  1.1955
10340TIP3   OH255214   4.547   5.171  11.317 -0.2085 -0.5191 -0.3541
10340TIP3    H155215   4.638   5.174  11.286 -0.5835  1.7831 -1.3990
10340TIP3    H255216   4.554   5.181  11.412  0.6123  1.6865 -0.5877
10341TIP3   OH255217   3.735   6.730  12.531 -0.4596  0.2185 -0.4236
10341TIP3    H155218   3.811   6.677  12.555 -0.1481  1.1368  0.7153
10341TIP3    H255219   3.706   6.694  12.447  1.6262  0.2685 -1.2292
10342TIP3   OH255220   5.748   5.044   9.471 -0.4568 -0.4356  0.7922
10342TIP3    H155221   5.697   5.095   9.408  0.7183  0.7588  0.7765
10342TIP3    H255222   5.695   5.044   9.551 -2.5239 -2.9358 -0.4223
10343TIP3   OH255223   1.260   6.708  10.918  0.3561  0.3154  0.3566
10343TIP3    H155224   1.275   6.746  11.004 -1.7134  0.9786  0.4573
10343TIP3    H255225   1.241   6.616  10.935 -0.3324  0.5072  0.6383
10344TIP3   OH255226   1.717   5.694  12.568  0.8166 -0.1080  0.3219
10344TIP3    H155227   1.694   5.750  12.494  3.0539  0.4630 -0.0318
10344TIP3    H255228   1.633   5.665  12.605 -0.3495  0.8957 -1.4392
10345TIP3   OH255229   2.775   5.709  11.442  0.1096  0.3334  0.3181
10345TIP3    H155230   2.862   5.735  11.410 -0.0986  1.3445  0.5394
10345TIP3    H255231   2.792   5.660  11.522  0.5695 -1.1345 -0.6376
10346TIP3   OH255232   5.253   1.760   9.892  0.4125 -0.8450  0.0301
10346TIP3    H155233   5.167   1.717   9.888 -0.3612  0.6418  0.0754
10346TIP3    H255234   5.297   1.733   9.811 -0.5645 -0.6988 -0.5636
10347TIP3   OH255235   4.390   1.268  10.522  0.4558  0.0177  0.3779
10347TIP3    H155236   4.478   1.304  10.515  0.5239  0.4453  2.6846
10347TIP3    H255237   4.374   1.261  10.617 -2.6704  1.6842  0.1218
10348TIP3   OH255238   6.488   5.161  11.876  0.0261 -0.0910 -0.4379
10348TIP3    H155239   6.475   5.237  11.819  0.1155  0.6101  0.4544
10348TIP3    H255240   6.451   5.188  11.961  0.7069 -0.7757  0.0899
10349TIP3   OH255241   1.055   0.244  12.382  0.2810 -0.5525 -0.2506
10349TIP3    H155242   1.051   0.158  12.424  1.8613 -0.2103  0.6746
10349TIP3    H255243   1.148   0.265  12.379  0.0200  0.5470 -1.7114
10350TIP3   OH255244   3.336   3.606  11.518  0.4811  0.9566  0.2123
10350TIP3    H155245   3.301   3.570  11.436 -1.1246  1.6710  0.5456
10350TIP3    H255246   3.304   3.547  11.585  1.2377  0.7493  0.3959
10351TIP3   OH255247   0.489   4.292  11.408  0.3788 -0.0866  0.4321
10351TIP3    H155248   0.404   4.249  11.403  0.1606  0.4328 -0.8316
10351TIP3    H255249   0.484   4.364  11.344  2.3842 -1.1873 -1.1156
10352TIP3   OH255250   3.720   5.638  12.280 -0.1943  0.9480  0.6411
10352TIP3    H155251   3.628   5.649  12.303 -0.9174 -2.6961  0.1634
10352TIP3    H255252   3.732   5.689  12.200 -2.2061  0.4744 -0.0250
10353TIP3   OH255253   3.658   3.480  10.987  0.0374  0.0672 -0.2936
10353TIP3    H155254   3.624   3.504  11.072  0.0342 -1.5498  0.2049
10353TIP3    H255255   3.583   3.442  10.941  0.5667 -1.3177 -0.0740
10354TIP3   OH255256   5.854   3.556  11.737  0.5587 -0.4963  0.3739
10354TIP3    H155257   5.794   3.625  11.709  1.6399 -0.1991 -1.3549
10354TIP3    H255258   5.923   3.603  11.784  1.3782 -0.3288 -0.9406
10355TIP3   OH255259   5.122   4.854  12.944  0.0607 -0.0335 -0.0186
10355TIP3    H155260   5.059   4.816  13.005 -1.2545  2.0120 -0.0116
10355TIP3    H255261   5.155   4.932  12.989 -1.1630  1.7101 -1.9651
10356TIP3   OH255262   5.572   4.007  10.052 -0.0351 -0.1165 -0.0975
10356TIP3    H155263   5.615   3.969  10.128  0.8682  1.3781  0.1778
10356TIP3    H255264   5.644   4.033   9.994 -0.5279  2.1361  0.2191
10357TIP3   OH255265   6.301   0.883  12.087  0.5732  0.6557 -0.1389
10357TIP3    H155266   6.258   0.896  12.171  0.9131  0.9539 -0.0065
10357TIP3    H255267   6.394   0.887  12.107  0.6632  0.1335 -0.4396
10358TIP3   OH255268   2.818   2.351  10.917  0.2425  0.3308 -0.1084
10358TIP3    H155269   2.731   2.311  10.922  0.2325  0.4871  1.4327
10358TIP3    H255270   2.862   2.324  10.997  2.1463 -0.8723 -1.4775
10359TIP3   OH255271   1.034   4.861  11.625  0.4715 -0.0873 -0.2690
10359TIP3    H155272   1.128   4.850  11.608  1.0221 -1.0985  2.7908
10359TIP3    H255273   1.000   4.771  11.625 -0.0212  0.0846  0.7606
10360TIP3   OH255274   4.086   2.857   9.896  0.2061 -0.1363 -0.3539
10360TIP3    H155275   4.159   2.834   9.840  1.5107  1.5570  0.5211
10360TIP3    H255276   4.104   2.948   9.923 -1.3084 -0.2511  1.2890
10361TIP3   OH255277   2.180   6.543  10.926 -0.2562  0.0680  0.5076
10361TIP3    H155278   2.133   6.622  10.900  0.1541  0.1365 -0.0459
10361TIP3    H255279   2.228   6.517  10.848  0.4557 -0.1239  1.0001
10362TIP3   OH255280   0.161   2.424  10.602  0.2969  0.1893  0.0113
10362TIP3    H155281   0.142   2.442  10.510 -0.4521 -0.0573  0.1116
10362TIP3    H255282   0.076   2.431  10.646  0.0847 -2.6191  0.2052
10363TIP3   OH255283   6.429   3.166  12.437 -0.0375  0.1441 -0.0237
10363TIP3    H155284   6.419   3.074  12.413  0.6932  0.5307 -1.9974
10363TIP3    H255285   6.465   3.163  12.526 -1.5215 -1.4223  0.5816
10364TIP3   OH255286   4.286   5.191  11.532  0.1906  0.7406  0.1382
10364TIP3    H155287   4.333   5.260  11.579  0.7524 -0.0441  0.7523
10364TIP3    H255288   4.272   5.122  11.597 -0.1359  0.1629 -0.5261
10365TIP3   OH255289   6.549   2.721  10.069 -0.5469  0.5316 -0.1821
10365TIP3    H155290   6.465   2.691  10.102 -0.0429 -0.3419  0.3480
10365TIP3    H255291   6.570   2.798  10.122 -1.1168  0.9168 -0.4971
10366TIP3   OH255292   5.976   0.124  12.364  0.0365  0.4097  0.0927
10366TIP3    H155293   5.897   0.073  12.381  0.0329  0.3260 -0.1709
10366TIP3    H255294   5.945   0.214  12.353  0.0533  0.4847  0.6439
10367TIP3   OH255295   3.097   0.607  10.010 -0.3509  0.2484 -0.5831
10367TIP3    H155296   3.062   0.652  10.087  0.3367  3.5666 -2.0515
10367TIP3    H255297   3.189   0.591  10.033 -0.4392  0.1533 -0.2866
10368TIP3   OH255298   0.019   2.389  11.472 -0.3173  0.1274 -0.0797
10368TIP3    H155299   0.110   2.412  11.450 -0.5851  0.7560 -0.5523
10368TIP3    H255300  -0.015   2.466  11.517 -1.1420  0.5944 -1.4323
10369TIP3   OH255301   1.844   2.551   9.775  0.0084 -0.2430 -0.2932
10369TIP3    H155302   1.932   2.589   9.770 -0.1096  0.1016  0.1860
10369TIP3    H255303   1.814   2.550   9.684  0.0852  0.6532 -0.3406
10370TIP3   OH255304   0.748   2.068  11.709 -0.4798  0.4920  0.2147
10370TIP3    H155305   0.680   2.024  11.760  0.4737 -0.0791  1.0291
10370TIP3    H255306   0.714   2.068  11.619 -0.9706 -0.9735  0.3714
10371TIP3   OH255307   4.334   0.727   9.790  0.6447 -0.1734  0.3441
10371TIP3    H155308   4.267   0.683   9.738  1.7849 -1.1887 -0.3408
10371TIP3    H255309   4.358   0.663   9.857  0.1059  0.6355  1.3377
10372TIP3   OH255310   3.449   6.208  10.685 -0.3832  0.0728 -0.1744
10372TIP3    H155311   3.455   6.123  10.729  0.9111  0.4663  0.4488
10372TIP3    H255312   3.424   6.186  10.595  0.4906 -1.0393 -0.1775
10373TIP3   OH255313   4.372   4.160  11.195 -0.5548 -0.4529  0.0835
10373TIP3    H155314   4.407   4.092  11.253  1.5670 -0.4086 -1.0580
10373TIP3    H255315   4.280   4.135  11.181 -1.2897 -0.2601  3.6769
10374TIP3   OH255316   6.719   1.791   9.709  0.2591 -0.5128 -0.2229
10374TIP3    H155317   6.643   1.849   9.714  0.5749 -0.1666  1.0974
10374TIP3    H255318   6.765   1.817   9.630 -0.6514 -0.2864 -0.6840
10375TIP3   OH255319   6.648   0.538  10.038  0.0117 -0.4041 -0.1814
10375TIP3    H155320   6.585   0.567  10.104 -0.3089 -1.1708 -0.1347
10375TIP3    H255321   6.601   0.549   9.955  0.3198  0.3124 -0.2675
10376TIP3   OH255322   4.089   1.776  10.232  0.2565  0.0864 -0.1396
10376TIP3    H155323   4.108   1.785  10.139  0.2898 -3.1543 -0.5736
10376TIP3    H255324   4.027   1.704  10.238 -0.6098  0.9144  2.3027
10377TIP3   OH255325   2.185   6.285   9.394  0.7974 -0.2067 -0.2755
10377TIP3    H155326   2.280   6.276   9.404  1.1647  1.1377 -2.0340
10377TIP3    H255327   2.162   6.361   9.448  1.0524  0.6078 -1.2865
10378TIP3   OH255328   0.713   0.754  11.569 -0.1666  0.2238  0.1877
10378TIP3    H155329   0.684   0.798  11.490  0.4763  0.3493  0.0156
10378TIP3    H255330   0.694   0.815  11.640 -0.4413  0.2454  0.0966
10379TIP3   OH255331   0.645   0.026  11.391 -0.1349  0.4303  0.2819
10379TIP3    H155332   0.661   0.116  11.419  0.8598  0.9753 -1.8163
10379TIP3    H255333   0.566   0.031  11.337 -0.7055 -0.1785  1.0331
10380TIP3   OH255334   0.146   0.724  11.811 -0.5927  0.0879 -0.7269
10380TIP3    H155335   0.114   0.636  11.795 -0.8281 -0.1424  0.8657
10380TIP3    H255336   0.102   0.751  11.892 -1.5036  2.1476 -1.8200
10381TIP3   OH255337   4.347   5.240  11.036  0.1186 -0.7890 -0.2212
10381TIP3    H155338   4.296   5.276  10.964  0.8977 -1.2953 -1.0352
10381TIP3    H255339   4.335   5.146  11.030  0.1695 -0.8378  0.3345
10382TIP3   OH255340   5.421   0.584  10.614  0.2299  0.1576  0.2746
10382TIP3    H155341   5.457   0.588  10.526  1.1736  0.2345  0.6434
10382TIP3    H255342   5.389   0.672  10.632 -1.8409 -0.3339 -0.7131
10383TIP3   OH255343   5.052   3.250  12.529 -0.3961  0.2675 -0.4474
10383TIP3    H155344   4.972   3.233  12.479  0.6937 -0.3868 -2.0629
10383TIP3    H255345   5.036   3.211  12.615 -0.9094 -2.1300 -1.5398
10384TIP3   OH255346   3.936   1.514  10.145  0.2742 -0.1090  0.2653
10384TIP3    H155347   3.916   1.430  10.186  0.0302 -0.0317  0.3033
10384TIP3    H255348   3.996   1.491  10.074 -0.5834 -0.4408 -0.3647
10385TIP3   OH255349   4.955   4.283   9.446  0.2624 -0.5436 -0.8077
10385TIP3    H155350   4.894   4.209   9.442  0.1251 -0.4168 -1.1168
10385TIP3    H255351   5.037   4.245   9.477  0.3037 -0.9009 -1.3381
10386TIP3   OH255352   3.928   3.189  12.338 -0.1248  0.3171  0.0557
10386TIP3    H155353   3.891   3.219  12.255 -1.1406  0.2096  0.4611
10386TIP3    H255354   3.939   3.269  12.390 -0.2646  0.2939  0.1215
10387TIP3   OH255355   3.016   0.469  11.672  0.0301 -0.2567  0.1763
10387TIP3    H155356   2.955   0.432  11.736 -0.3022 -1.0926 -0.6051
10387TIP3    H255357   2.970   0.542  11.633 -1.1149 -1.7916 -1.4892
10388TIP3   OH255358   2.019   1.770  11.720 -0.4923  0.6886 -0.3601
10388TIP3    H155359   2.070   1.710  11.666 -2.8688  0.6479 -2.7326
10388TIP3    H255360   2.065   1.854  11.713  1.5723 -0.2276  1.1234
10389TIP3   OH255361   6.681   3.085  10.795  0.2347 -0.2868  0.0177
10389TIP3    H155362   6.594   3.104  10.831 -0.1591  1.0349 -1.4950
10389TIP3    H255363   6.741   3.101  10.868 -0.3995  3.6492 -0.0963
10390TIP3   OH255364   5.633   5.707   9.090  0.1149 -0.1889  0.2489
10390TIP3    H155365   5.671   5.742   9.009 -0.3092  2.0163  0.9226
10390TIP3    H255366   5.707   5.667   9.136  0.7471  0.2157 -0.3894
10391TIP3   OH255367   5.751   5.588  11.218 -0.3943  0.3491  0.4490
10391TIP3    H155368   5.767   5.577  11.124 -2.4087  0.3514  0.0653
10391TIP3    H255369   5.656   5.583  11.227 -0.1555 -3.1637  2.9271
10392TIP3   OH255370   6.111   6.683  11.447 -0.3526  0.6010 -0.1221
10392TIP3    H155371   6.072   6.748  11.506 -0.5335  0.2732  0.1195
10392TIP3    H255372   6.190   6.726  11.414 -0.9932  1.3291 -0.7397
10393TIP3   OH255373   3.195   6.482  11.456  0.3752  0.3321  0.3695
10393TIP3    H155374   3.103   6.480  11.430  0.7011  0.4342 -0.8892
10393TIP3    H255375   3.233   6.552  11.402  1.5277 -0.8108 -0.3503
10394TIP3   OH255376   6.581   3.444   9.761 -0.3610  0.0866 -0.5893
10394TIP3    H155377   6.505   3.399   9.799 -0.7875 -0.1019 -1.6343
10394TIP3    H255378   6.654   3.386   9.781 -0.6160 -0.1453 -0.3001
10395TIP3   OH255379   1.208   3.424  11.807 -0.1757  0.0493 -0.4665
10395TIP3    H155380   1.263   3.499  11.833 -1.5613  0.6449  0.8905
10395TIP3    H255381   1.267   3.367  11.757  0.9720  1.9180 -1.3290
10396TIP3   OH255382   6.672   5.084  11.482  0.1900  0.0231 -0.5111
10396TIP3    H155383   6.748   5.101  11.425  0.6217 -1.2188 -0.3471
10396TIP3    H255384   6.710   5.059  11.566 -0.4116  0.0243 -0.2334
10397TIP3   OH255385   5.969   4.815  11.694  0.4746  0.8026  0.1344
10397TIP3    H155386   6.042   4.865  11.732  1.4114  0.5724 -1.2941
10397TIP3    H255387   5.969   4.839  11.602 -0.2312 -0.4513 -0.2076
10398TIP3   OH255388   1.368   2.288  10.511  0.6204 -0.5089  0.1228
10398TIP3    H155389   1.379   2.325  10.598 -1.3232 -1.0304  0.6316
10398TIP3    H255390   1.455   2.258  10.487  1.5080  1.0453  1.2119
10399TIP3   OH255391   3.876   0.994  11.507  0.4595  0.5522  0.7343
10399TIP3    H155392   3.935   0.919  11.521  0.4683  0.4933  0.3862
10399TIP3    H255393   3.934   1.065  11.480  0.5290  0.8680  1.6741
10400TIP3   OH255394   2.479   2.801  11.306 -1.0173  0.9888 -0.3547
10400TIP3    H155395   2.531   2.880  11.323 -1.9314  1.4426  0.3850
10400TIP3    H255396   2.391   2.833  11.288 -0.9395  0.2633 -2.2106
10401TIP3   OH255397   2.234   6.056  11.860  0.3300  0.3288  0.1826
10401TIP3    H155398   2.194   5.982  11.815  0.9215 -0.5002  0.9852
10401TIP3    H255399   2.247   6.121  11.791 -0.6923 -0.0887 -0.4359
10402TIP3   OH255400   2.292   1.543  10.207 -0.7773 -0.4582 -0.1800
10402TIP3    H155401   2.316   1.542  10.114  0.9799 -0.2546  0.2288
10402TIP3    H255402   2.366   1.503  10.251 -1.4398 -0.2535  1.1747
10403TIP3   OH255403   5.565   1.158  11.746  0.6989  0.0539 -0.1936
10403TIP3    H155404   5.470   1.156  11.738  0.4314  2.2681  1.4972
10403TIP3    H255405   5.582   1.162  11.840  2.5468 -1.2899 -0.4037
10404TIP3   OH255406   5.760   0.893  10.965  0.4776 -0.4300 -0.0339
10404TIP3    H155407   5.761   0.806  11.006 -3.3999 -0.7538 -0.2679
10404TIP3    H255408   5.690   0.939  11.010  0.4866  1.5548 -1.9223
10405TIP3   OH255409   2.697   2.991  10.326  0.0010  0.3375 -0.1360
10405TIP3    H155410   2.602   2.988  10.336 -0.0490 -0.4045 -0.7897
10405TIP3    H255411   2.715   2.943  10.245  0.7949  1.9049 -0.9373
10406TIP3   OH255412   2.592   4.926  11.146  0.0831  0.7118  0.2690
10406TIP3    H155413   2.634   4.876  11.076  0.7739  2.6619 -0.7858
10406TIP3    H255414   2.659   4.931  11.214  0.1556  0.5432  0.2112
10407TIP3   OH255415   3.970   2.351  10.161 -0.3660 -0.1856  0.4597
10407TIP3    H155416   3.912   2.275  10.157  0.7655 -1.0810  0.4363
10407TIP3    H255417   3.946   2.395  10.243 -1.9894  0.2626 -0.2190
10408TIP3   OH255418   2.471   5.171  11.240  0.0510  0.1487 -0.2962
10408TIP3    H155419   2.505   5.108  11.178 -0.4781 -0.2343 -0.2078
10408TIP3    H255420   2.545   5.228  11.261  0.5273 -0.4359 -0.3861
10409TIP3   OH255421   3.646   3.045  12.015 -0.3822  0.5964 -0.2213
10409TIP3    H155422   3.741   3.034  12.015 -0.3075  0.5545  2.3310
10409TIP3    H255423   3.633   3.137  11.990  0.3126  0.5866 -0.6608
10410TIP3   OH255424   0.177   4.682  11.749  0.1598 -0.4148  0.3836
10410TIP3    H155425   0.083   4.689  11.733 -0.0660 -0.4260  1.5547
10410TIP3    H255426   0.188   4.595  11.789  0.3444  0.3269  2.0584
10411TIP3   OH255427   0.668   6.311   9.622  0.2471 -0.3172  0.4071
10411TIP3    H155428   0.620   6.242   9.575 -0.2295 -0.8101  1.5724
10411TIP3    H255429   0.615   6.390   9.609  0.8979 -0.0873 -1.1000
10412TIP3   OH255430   3.098   5.972  11.795  0.7653 -0.2194 -0.2064
10412TIP3    H155431   3.023   5.928  11.754  2.3568 -0.1466 -3.4315
10412TIP3    H255432   3.080   6.065  11.784  0.0121 -0.0700  1.7385
10413TIP3   OH255433   4.008   4.705  10.405 -0.5884  0.5827  0.5038
10413TIP3    H155434   3.984   4.757  10.328 -1.1469 -0.0762  0.2259
10413TIP3    H255435   4.036   4.770  10.470  0.2068  1.1316 -0.3576
10414TIP3   OH255436   6.375   2.091  11.368 -0.2732 -0.0507 -0.0134
10414TIP3    H155437   6.449   2.071  11.311  0.9742 -1.8339  2.0905
10414TIP3    H255438   6.316   2.016  11.357  0.1030 -0.5440  1.1851
10415TIP3   OH255439   4.995   0.675   9.826  0.0176  0.2868  0.8409
10415TIP3    H155440   5.089   0.695   9.832  0.2930  0.1313 -1.7114
10415TIP3    H255441   4.953   0.760   9.816  0.2588  0.2377 -1.0122
10416TIP3   OH255442   0.574   4.089  11.031  0.1120  0.8102 -0.3598
10416TIP3    H155443   0.597   4.182  11.032  1.6661  0.4718 -0.6268
10416TIP3    H255444   0.657   4.045  11.012 -0.9060 -0.5437 -1.8994
10417TIP3   OH255445   2.756   4.804   9.829 -0.3003 -0.4095  0.2133
10417TIP3    H155446   2.730   4.784   9.919 -3.4758 -1.7155 -0.8631
10417TIP3    H255447   2.817   4.734   9.805 -0.2222 -0.6197  0.9896
10418TIP3   OH255448   1.772   5.391  11.241 -0.1500  0.2123  0.2900
10418TIP3    H155449   1.686   5.352  11.260 -0.7038  0.3464 -1.7186
10418TIP3    H255450   1.757   5.444  11.163  1.2187  2.3050  1.3672
10419TIP3   OH255451   6.293   3.019  11.713 -0.1474  0.1299  0.0697
10419TIP3    H155452   6.323   2.936  11.749 -1.7308 -1.0038 -1.0713
10419TIP3    H255453   6.219   3.044  11.769  1.4259  1.7889  1.5424
10420TIP3   OH255454   4.119   5.616  13.442 -0.2225 -0.4415 -0.1063
10420TIP3    H155455   4.153   5.536  13.402  1.7607 -0.1158  0.7938
10420TIP3    H255456   4.158   5.618  13.529 -2.9132 -0.1758  1.2148
10421TIP3   OH255457   3.318   5.689  10.739  0.7322  0.8167 -0.8370
10421TIP3    H155458   3.269   5.661  10.816  0.4356  1.5373 -0.7490
10421TIP3    H255459   3.353   5.609  10.701 -1.7933  0.0609 -1.7649
10422TIP3   OH255460   5.461   1.412   9.842 -0.2421  0.4467  0.4042
10422TIP3    H155461   5.538   1.429   9.897  0.1025 -1.3415  0.5116
10422TIP3    H255462   5.391   1.395   9.905 -0.2256 -0.0283  0.2911
10423TIP3   OH255463   5.480   4.124   9.636 -0.1227 -0.4281  0.0453
10423TIP3    H155464   5.521   4.038   9.627  0.7043 -0.1309  0.8707
10423TIP3    H255465   5.398   4.116   9.586  0.0314 -1.6250 -0.0566
10424TIP3   OH255466   2.576   2.408   9.334  0.2536 -0.7165 -0.1546
10424TIP3    H155467   2.625   2.350   9.392  0.8910  0.4825  0.5436
10424TIP3    H255468   2.640   2.475   9.307 -0.7211  0.2853 -0.0520
10425TIP3   OH255469   3.184   1.452   9.762 -0.0350  0.4253  0.2015
10425TIP3    H155470   3.175   1.452   9.667  0.3392 -0.8872  0.1571
10425TIP3    H255471   3.142   1.372   9.791  0.2699  0.5762  1.1091
10426TIP3   OH255472   5.110   1.585   9.200 -0.0107  0.0084 -0.3098
10426TIP3    H155473   5.197   1.544   9.197 -0.2738 -0.6441  0.7433
10426TIP3    H255474   5.127   1.674   9.231  0.6362  1.0144 -3.1402
10427TIP3   OH255475   1.198   2.487   9.976  0.4899 -0.0484 -0.1876
10427TIP3    H155476   1.212   2.545   9.901 -1.8441 -0.0368 -0.6868
10427TIP3    H255477   1.253   2.524  10.046  0.2018  1.8724 -0.9199
10428TIP3   OH255478   6.199   0.801  10.517 -0.6141  0.8044  0.5372
10428TIP3    H155479   6.186   0.761  10.431  0.7088  2.2472 -0.3865
10428TIP3    H255480   6.232   0.730  10.572 -1.8424 -0.2317 -0.0039
10429TIP3   OH255481   3.961   4.615  11.918  0.2063 -0.0215  0.1890
10429TIP3    H155482   3.881   4.562  11.922 -0.7227  1.3804  1.2387
10429TIP3    H255483   4.021   4.573  11.979 -1.2679  1.2280  2.6672
10430TIP3   OH255484   4.338   2.571  11.227  0.2176  0.3413  0.3632
10430TIP3    H155485   4.262   2.592  11.172 -0.3920 -0.5707  0.8347
10430TIP3    H255486   4.323   2.619  11.308 -0.0998 -0.2093  0.6345
10431TIP3   OH255487   2.820   4.250   9.122  0.1459 -0.4467  0.4948
10431TIP3    H155488   2.897   4.203   9.154 -0.8379 -1.3524  1.6133
10431TIP3    H255489   2.753   4.183   9.113 -0.2270  0.1500 -1.5287
10432TIP3   OH255490   3.862   6.485  10.478  0.0324 -0.7739  0.4327
10432TIP3    H155491   3.841   6.548  10.546  1.2722 -0.3430  0.4488
10432TIP3    H255492   3.789   6.423  10.477 -1.4618  0.9387  0.0724
10433TIP3   OH255493   2.441   1.564  12.554 -0.4323 -0.1841  0.2948
10433TIP3    H155494   2.518   1.621  12.555 -1.4424  1.2298  1.3903
10433TIP3    H255495   2.367   1.624  12.554 -1.5583 -1.5196 -0.5870
10434TIP3   OH255496   5.770   2.176  10.510 -0.5131 -0.0650 -0.1903
10434TIP3    H155497   5.845   2.220  10.469 -0.1217 -0.9048 -0.3814
10434TIP3    H255498   5.694   2.221  10.474 -0.1202  0.4487 -0.3927
10435TIP3   OH255499   6.038   4.773  10.249 -0.0617 -0.1082 -0.1877
10435TIP3    H155500   6.127   4.749  10.274  0.7493  2.2487 -0.6035
10435TIP3    H255501   5.986   4.695  10.270  1.9016 -1.1851  1.0086
10436TIP3   OH255502   2.904   6.654  11.530 -0.0852  0.4361 -0.1128
10436TIP3    H155503   2.902   6.714  11.456  2.1894  1.0560  0.2526
10436TIP3    H255504   2.861   6.575  11.498  0.2182  0.9421 -1.8687
10437TIP3   OH255505   2.687   6.550  12.438  0.1786 -0.1281  0.5768
10437TIP3    H155506   2.677   6.645  12.432  0.9545  0.0275  1.4853
10437TIP3    H255507   2.613   6.515  12.389 -0.6502  0.9425  1.0330
10438TIP3   OH255508   3.802   3.511   9.939 -0.0705 -0.2372  0.0268
10438TIP3    H155509   3.776   3.421   9.921 -3.0673  0.7799 -1.3467
10438TIP3    H255510   3.870   3.530   9.874  1.0357 -1.6283  0.7297
10439TIP3   OH255511   5.065   1.277  11.864 -0.1988 -0.0967  0.1847
10439TIP3    H155512   5.000   1.254  11.930  1.1172 -0.2477  1.4706
10439TIP3    H255513   5.109   1.355  11.899 -0.3154  0.5888 -1.1213
   6.74687   6.74687  30.00000
